G5NP-PAMAM in water
110979
    1aaa     C1    1   4.975   8.262   6.416 -0.1221 -0.0764  0.0040
    1aaa     H1    2   4.990   8.211   6.320 -3.4789 -0.6998 -0.2869
    1aaa     H2    3   4.890   8.211   6.462  0.8550 -1.4265  0.3725
    1aaa     C2    4   4.930   8.412   6.398 -0.4066 -0.1987 -0.1974
    1aaa     H3    5   4.934   8.451   6.501 -1.8712 -1.8083  0.5301
    1aaa     H4    6   5.003   8.464   6.336  0.3946  1.6339  2.1461
    1aaa     N1    7   4.791   8.425   6.352  0.1156  0.8109 -0.0317
    1aaa     N2    8   5.094   8.236   6.499 -0.4845  0.4052  0.2312
    1aaa     C3    9   5.222   8.297   6.460  0.7040 -0.6509 -0.0696
    1aaa     H5   10   5.204   8.396   6.416  1.2471  0.8658  2.9089
    1aaa     H6   11   5.268   8.232   6.385  2.4362  0.6933 -0.2255
    1aaa     C4   12   5.094   8.115   6.583 -0.1484 -0.3142 -0.0865
    1aaa     H7   13   5.168   8.125   6.663  0.3572  1.1889 -0.7046
    1aaa     H8   14   4.998   8.092   6.631 -0.4166  0.3980 -0.2643
    1aaa     C5   15   4.733   8.333   6.250 -0.0147  0.0162  0.0944
    1aaa     H9   16   4.743   8.230   6.287  1.0080  0.1788  0.3128
    1aaa    H10   17   4.626   8.355   6.238  0.4289  2.6606  0.3453
    1aaa     C6   18   4.755   8.568   6.342 -0.0354 -0.1747  0.4345
    1aaa    H11   19   4.657   8.571   6.292  0.5944  1.0059 -0.7907
    1aaa    H12   20   4.823   8.619   6.273  0.4686 -0.7008  0.5319
    1aaa     C7   21   4.811   8.351   6.121 -0.6280 -0.5988  0.0343
    1aaa    H13   22   4.749   8.411   6.052 -1.2806 -0.9639  0.2958
    1aaa    H14   23   4.907   8.402   6.133 -1.6572  1.0459  1.7308
    1aaa     C8   24   4.745   8.638   6.481  0.6112 -0.1202 -0.2157
    1aaa    H15   25   4.693   8.580   6.558  0.7691  0.4951  0.3626
    1aaa    H16   26   4.844   8.663   6.521  1.3139 -2.2122 -0.5021
    1aaa     C9   27   5.126   7.999   6.499  0.2461  0.0038 -0.1182
    1aaa    H17   28   5.037   7.995   6.434  0.5893 -0.8842 -0.5581
    1aaa    H18   29   5.214   8.012   6.434  0.4592 -1.7004 -0.2133
    1aaa    C10   30   5.314   8.322   6.581 -0.2296 -0.0705 -0.0248
    1aaa    H19   31   5.255   8.370   6.660  1.3810 -1.4320  2.0943
    1aaa    H20   32   5.354   8.226   6.616 -0.6339  0.0438  0.7674
    1aaa    C11   33   5.133   7.870   6.577 -0.3772 -0.4800 -0.4047
    1aaa    C12   34   5.434   8.407   6.559  0.4700  0.2458  0.1510
    1aaa    C13   35   4.822   8.215   6.052  0.5690  0.1667 -0.0391
    1aaa    C14   36   4.671   8.773   6.474  0.0508 -0.1130  0.4928
    1aaa     O1   37   5.220   7.846   6.658  0.3317  0.0948  0.0650
    1aaa     O2   38   4.719   8.154   6.021 -0.0816 -0.0710 -0.2968
    1aaa     O3   39   4.735   8.874   6.466 -0.5787 -0.2257  0.0431
    1aaa     O4   40   5.432   8.503   6.488 -0.0005 -0.6422  0.0172
    2bbb     C1   41   4.914   7.714   6.769 -1.3530  0.3658  0.6953
    2bbb     H1   42   4.845   7.794   6.739 -1.0041  0.5170  0.2833
    2bbb     H2   43   4.993   7.756   6.833 -0.7149  1.4827 -0.7538
    2bbb     C2   44   4.993   7.665   6.646  0.0153  0.3344  0.8055
    2bbb     H3   45   5.079   7.605   6.679  1.6246  2.6210  0.9941
    2bbb     H4   46   4.922   7.603   6.589 -2.5436  3.6207  0.0961
    2bbb     N1   47   4.843   7.601   6.828  0.0612  0.1799 -0.0843
    2bbb     C3   48   4.931   7.514   6.894 -0.3577 -0.5255 -0.7769
    2bbb     H5   49   4.933   7.529   7.002  0.0312  1.4751 -1.0308
    2bbb     H6   50   5.035   7.538   6.868 -0.4109  4.2673  2.3450
    2bbb     C4   51   4.734   7.660   6.910 -0.3973  0.5155  0.4731
    2bbb     H7   52   4.773   7.696   7.006  0.8683  0.1783  0.1039
    2bbb     H8   53   4.691   7.741   6.850 -1.4667  0.0273  0.5589
    2bbb     C5   54   4.619   7.563   6.938 -0.3208 -0.1891 -0.0236
    2bbb     H9   55   4.578   7.520   6.846  1.7841  2.1571 -2.2238
    2bbb    H10   56   4.664   7.482   6.996 -0.7288 -0.4907 -0.1294
    2bbb     C6   57   4.900   7.368   6.859 -0.3490  0.4421 -0.3363
    2bbb    H11   58   4.883   7.313   6.952  1.8472 -0.6608 -0.5086
    2bbb    H12   59   4.809   7.352   6.799  0.1064 -2.5821 -0.3956
    2bbb     C7   60   4.519   7.631   7.020 -0.1234  0.1393 -0.1565
    2bbb     C8   61   5.019   7.301   6.793  0.0879  0.0846 -0.0211
    2bbb     O1   62   4.531   7.671   7.134 -0.1131 -0.5050  0.0537
    2bbb     O2   63   5.021   7.277   6.668 -0.1755 -0.2209 -0.4337
    2bbb     N4   64   5.030   7.778   6.552 -0.1302  0.1649 -0.2969
    2bbb    H21   65   4.964   7.817   6.486  0.1586  0.1833 -0.5778
    3bbb     C1   66   5.660   8.567   6.749 -0.4734 -0.0128  0.0560
    3bbb     H1   67   5.636   8.514   6.842 -2.2097  1.1057  0.2701
    3bbb     H2   68   5.579   8.637   6.727 -0.7462 -0.8279 -1.6550
    3bbb     C2   69   5.666   8.470   6.629  0.1242 -0.0013 -1.1725
    3bbb     H3   70   5.680   8.518   6.531  1.2394  2.6299  0.1605
    3bbb     H4   71   5.758   8.412   6.643  0.2435  0.6153  1.1514
    3bbb     N1   72   5.776   8.650   6.766  0.0222 -0.2863 -0.2865
    3bbb     C3   73   5.803   8.742   6.661 -0.3762 -0.4562 -0.3806
    3bbb     H5   74   5.718   8.805   6.631  1.2027  2.7622  1.5367
    3bbb     H6   75   5.820   8.674   6.576 -0.0767 -1.2417  0.2898
    3bbb     C4   76   5.780   8.703   6.907 -0.4570  0.3269 -0.3827
    3bbb     H7   77   5.814   8.806   6.925  1.4450 -0.1731 -0.9236
    3bbb     H8   78   5.689   8.679   6.962 -1.2439  3.2575 -0.2195
    3bbb     C5   79   5.887   8.617   6.979  0.3687  0.5579 -0.6933
    3bbb     H9   80   5.896   8.518   6.933 -0.0776  0.6368 -0.9502
    3bbb    H10   81   5.989   8.657   6.983  0.5514  0.0319 -0.0505
    3bbb     C6   82   5.926   8.828   6.679  0.2124  0.5464 -0.4414
    3bbb    H11   83   5.926   8.884   6.773  0.2385  0.7941 -0.5902
    3bbb    H12   84   6.002   8.749   6.679 -0.2430 -0.0133  2.3592
    3bbb     C7   85   5.853   8.602   7.127  0.1301  0.3036  0.1378
    3bbb     C8   86   5.942   8.907   6.555  0.2476 -1.1715  0.1871
    3bbb     O1   87   5.836   8.497   7.189  0.6693  0.6395 -0.0767
    3bbb     O2   88   5.849   8.918   6.474 -0.3881  0.0274 -0.7404
    3bbb     N4   89   5.549   8.377   6.629  0.0865 -0.2490 -0.2478
    3bbb    H21   90   5.554   8.299   6.693  3.4149  0.8561  1.0372
    4bbb     C1   91   5.145   8.052   5.923  0.0008 -0.0319  0.6669
    4bbb     H1   92   5.188   8.064   6.023 -1.2179 -0.5588  1.2755
    4bbb     H2   93   5.186   8.135   5.864 -0.8369  0.0602  0.1840
    4bbb     C2   94   4.989   8.065   5.934  0.3847 -0.0895 -0.6401
    4bbb     H3   95   4.959   8.096   5.833  1.7460  0.9292 -0.7718
    4bbb     H4   96   4.951   7.972   5.977  2.3179 -0.8115 -0.3684
    4bbb     N1   97   5.176   7.926   5.859 -0.1982 -0.0680 -0.5528
    4bbb     C3   98   5.150   7.800   5.933  0.5641  0.6531  0.1069
    4bbb     H5   99   5.088   7.822   6.021 -1.5540 -0.7682 -0.9559
    4bbb     H6  100   5.239   7.743   5.961 -0.1739  0.3729  2.0378
    4bbb     C4  101   5.314   7.921   5.805 -0.1513 -0.0023  0.5807
    4bbb     H7  102   5.383   7.974   5.871 -0.5261 -0.5348  1.4100
    4bbb     H8  103   5.354   7.819   5.801  1.0532  0.4826 -0.4011
    4bbb     C5  104   5.325   7.960   5.660  0.1062  0.5756 -0.2526
    4bbb     H9  105   5.256   7.894   5.606 -1.5515 -0.6710  3.0766
    4bbb    H10  106   5.288   8.062   5.645  1.3139  0.9466 -0.9174
    4bbb     C6  107   5.074   7.699   5.842 -0.0575 -0.3219 -0.2219
    4bbb    H11  108   5.147   7.661   5.770  2.0378 -1.8360  2.5049
    4bbb    H12  109   5.048   7.612   5.903 -0.6369  1.3794  2.0784
    4bbb     C7  110   5.465   7.953   5.606  0.4326 -0.9646  0.0868
    4bbb     C8  111   4.947   7.753   5.786 -0.4341 -0.3243  0.0249
    4bbb     O1  112   5.561   7.959   5.687  1.1378  0.6414  0.1666
    4bbb     O2  113   4.946   7.783   5.670  0.3254 -0.8036 -0.5404
    4bbb     N4  114   4.949   8.177   6.027  0.1561 -0.1299 -0.1810
    4bbb    H21  115   5.018   8.239   6.069 -0.4643 -1.6325  3.4281
    5bbb     C1  116   4.457   8.915   6.261 -0.6751 -0.9311  0.7477
    5bbb     H1  117   4.357   8.881   6.230 -1.0128  0.2773  0.4446
    5bbb     H2  118   4.536   8.858   6.209 -1.6389 -1.0717 -0.6274
    5bbb     C2  119   4.474   8.907   6.413 -0.0735 -0.5027  0.2937
    5bbb     H3  120   4.544   8.987   6.440  1.3291 -0.9629 -1.7661
    5bbb     H4  121   4.376   8.918   6.461  0.6563 -0.9312  1.9736
    5bbb     N1  122   4.458   9.050   6.201 -0.3276  0.3296 -0.0143
    5bbb     C3  123   4.364   9.136   6.267 -0.0325  0.4600  0.4270
    5bbb     H5  124   4.364   9.235   6.220  0.3716  0.5777  0.6744
    5bbb     H6  125   4.392   9.148   6.372  0.7942  2.2504  0.0539
    5bbb     C4  126   4.596   9.109   6.199  0.2107  0.1099  0.1351
    5bbb     H7  127   4.629   9.131   6.301  0.7035  1.6651 -0.3357
    5bbb     H8  128   4.671   9.036   6.165  0.6195  0.3768  0.4606
    5bbb     C5  129   4.590   9.235   6.120  0.3156 -0.4136  0.0290
    5bbb     H9  130   4.531   9.226   6.028 -1.1671  0.7451  0.8192
    5bbb    H10  131   4.545   9.325   6.165  1.2957  1.1852 -2.0024
    5bbb     C6  132   4.217   9.091   6.257 -0.3497  0.4700 -0.5126
    5bbb    H11  133   4.205   9.034   6.164  0.6954  0.5419 -0.7018
    5bbb    H12  134   4.197   9.035   6.349 -1.7498  1.2982 -0.2863
    5bbb     C7  135   4.725   9.265   6.082 -0.4521 -0.4194 -0.2010
    5bbb     C8  136   4.134   9.219   6.266  0.0697  0.1668 -0.2272
    5bbb     O1  137   4.783   9.193   6.002  0.5909 -0.1811 -0.5278
    5bbb     O2  138   4.152   9.309   6.344  0.5884  0.8560 -0.3265
    5bbb     N4  139   4.537   8.781   6.458  0.7348 -0.2171 -0.3860
    5bbb    H21  140   4.479   8.698   6.451  0.6040 -0.0294 -2.0880
    6bbb     C1  141   4.170   7.613   7.053 -0.1107  0.3848 -0.1114
    6bbb     H1  142   4.183   7.521   6.994  0.5818  1.5873 -1.9513
    6bbb     H2  143   4.068   7.649   7.035  0.2358  0.7672 -1.4666
    6bbb     C2  144   4.273   7.711   6.994 -0.4767  0.1649 -0.0207
    6bbb     H3  145   4.231   7.765   6.908  0.0508  4.6082  2.2177
    6bbb     H4  146   4.293   7.799   7.056  2.6189  0.4164 -1.2057
    6bbb     N1  147   4.190   7.599   7.195  0.4827  0.6826 -0.0374
    6bbb     C3  148   4.128   7.697   7.282 -0.1606 -0.2154 -0.5017
    6bbb     H5  149   4.021   7.676   7.295  0.1121 -1.3575  0.0687
    6bbb     H6  150   4.144   7.793   7.231  1.6969 -0.5824 -0.7071
    6bbb     C4  151   4.178   7.459   7.230 -0.1155 -0.6649  0.3558
    6bbb     H7  152   4.236   7.402   7.157 -1.3300 -1.9755  0.3661
    6bbb     H8  153   4.204   7.444   7.335 -2.1193 -1.4820  0.7886
    6bbb     C5  154   4.037   7.407   7.203 -0.0654  0.3478  0.1743
    6bbb     H9  155   3.958   7.473   7.241  1.2704  1.3904  1.2284
    6bbb    H10  156   4.013   7.385   7.098 -0.2227 -1.2294  0.5235
    6bbb     C6  157   4.208   7.703   7.411 -0.0200 -0.0445 -0.0433
    6bbb    H11  158   4.197   7.612   7.471  0.1008  0.6016  0.9947
    6bbb    H12  159   4.317   7.710   7.401 -0.0934  0.8824 -0.3262
    6bbb     C7  160   4.025   7.273   7.269  0.5165  0.4555  0.5402
    6bbb     C8  161   4.149   7.806   7.504 -0.5129 -0.1318  0.3002
    6bbb     O1  162   4.060   7.174   7.210  0.2273 -0.5256  0.2597
    6bbb     O2  163   4.165   7.922   7.494 -0.2098  0.3751 -0.1497
    6bbb     N4  164   4.399   7.648   6.956 -0.3375  0.6573  0.5339
    6bbb    H21  165   4.403   7.603   6.865 -3.1417  0.3230  0.4895
    7bbb     C1  166   5.347   7.343   6.826 -0.6663 -0.5556 -0.0703
    7bbb     H1  167   5.413   7.359   6.913  0.2991 -0.7404 -0.7581
    7bbb     H2  168   5.282   7.430   6.807 -0.7894 -1.0048 -1.8432
    7bbb     C2  169   5.250   7.224   6.848 -0.1469  0.2250  0.6001
    7bbb     H3  170   5.242   7.173   6.751  0.0389 -2.2552  1.8143
    7bbb     H4  171   5.299   7.151   6.914 -1.2092 -0.9190  0.1616
    7bbb     N1  172   5.433   7.299   6.719 -0.1339 -0.2197 -0.0715
    7bbb     C3  173   5.523   7.194   6.763 -0.4050  0.0664  0.9757
    7bbb     H5  174   5.494   7.136   6.852  0.7735  0.0686  1.3800
    7bbb     H6  175   5.620   7.241   6.785 -0.5671  1.7049 -1.4392
    7bbb     C4  176   5.500   7.422   6.679 -0.3220  1.2777  0.0857
    7bbb     H7  177   5.541   7.468   6.770 -1.3427  0.7135  0.8542
    7bbb     H8  178   5.582   7.383   6.617 -0.0732 -0.9276  1.6807
    7bbb     C5  179   5.429   7.524   6.589  0.2657 -0.1173 -0.2528
    7bbb     H9  180   5.371   7.469   6.514  1.4270 -0.9544 -0.5450
    7bbb    H10  181   5.352   7.581   6.643 -0.9974  0.9403 -2.9737
    7bbb     C6  182   5.540   7.104   6.643 -0.0916 -0.2721  0.5966
    7bbb    H11  183   5.443   7.060   6.620 -0.6193  0.6810  0.9415
    7bbb    H12  184   5.581   7.162   6.559 -0.0384 -1.0504  0.0761
    7bbb     C7  185   5.522   7.626   6.537  0.1380  0.9414 -0.2207
    7bbb     C8  186   5.645   6.998   6.676  0.5280  0.5865 -0.0541
    7bbb     O1  187   5.511   7.742   6.565 -0.2362  0.7004 -0.0112
    7bbb     O2  188   5.695   6.977   6.783  0.1842  0.0496 -0.5817
    7bbb     N4  189   5.114   7.258   6.881  0.7845 -0.1999  0.0578
    7bbb    H21  190   5.092   7.271   6.980  0.8971  1.0225 -0.0585
    8bbb     C1  191   5.827   8.892   7.377 -0.3924 -0.9452  0.0951
    8bbb     H1  192   5.733   8.937   7.343 -0.2444 -0.5860  0.1660
    8bbb     H2  193   5.907   8.946   7.326 -0.0878 -0.5794  0.9351
    8bbb     C2  194   5.828   8.745   7.333 -0.2262  0.3669 -0.0550
    8bbb     H3  195   5.893   8.677   7.390  3.0242  2.7575 -0.6786
    8bbb     H4  196   5.723   8.714   7.337 -0.2077  0.0432 -1.6263
    8bbb     N1  197   5.843   8.921   7.524 -0.1920  0.2761 -0.2973
    8bbb     C3  198   5.727   8.884   7.593  0.8134  1.1076 -0.3489
    8bbb     H5  199   5.678   8.797   7.547  1.8370  0.5785 -0.4673
    8bbb     H6  200   5.658   8.969   7.591 -0.1906  0.2962 -0.7402
    8bbb     C4  201   5.888   9.051   7.554 -0.1551  0.2111  0.0861
    8bbb     H7  202   5.826   9.123   7.499 -1.0752 -0.8283 -0.2635
    8bbb     H8  203   5.863   9.067   7.660  0.6715  2.3607  0.0053
    8bbb     C5  204   6.036   9.069   7.527 -0.2774 -0.4902 -0.5454
    8bbb     H9  205   6.097   8.982   7.554  0.0585  0.3426  1.6125
    8bbb    H10  206   6.049   9.087   7.420 -0.3421  1.9299 -0.1987
    8bbb     C6  207   5.740   8.841   7.738 -0.5217 -0.0862  0.5362
    8bbb    H11  208   5.821   8.771   7.762  0.6505  1.2061  0.4356
    8bbb    H12  209   5.771   8.928   7.797  1.0798  0.0854 -0.4934
    8bbb     C7  210   6.092   9.192   7.603 -0.6935 -0.3615  0.1047
    8bbb     C8  211   5.620   8.777   7.791 -0.2795  0.1178 -0.2805
    8bbb     O1  212   6.104   9.293   7.543  0.5160 -0.5593  0.2773
    8bbb     O2  213   5.605   8.658   7.776 -0.3345  0.3064 -0.5661
    8bbb     N4  214   5.860   8.721   7.190  0.4001  0.4786 -0.0261
    8bbb    H21  215   5.891   8.802   7.137 -1.5702  1.4862  0.2344
    9bbb     C1  216   6.214   9.148   6.414  0.2735  0.2662  0.1220
    9bbb     H1  217   6.172   9.237   6.463  0.8757 -0.6115  2.3434
    9bbb     H2  218   6.238   9.182   6.313 -1.1361 -0.0648 -0.3505
    9bbb     C2  219   6.101   9.038   6.409 -0.4384 -0.5925  0.1417
    9bbb     H3  220   6.006   9.067   6.364  0.4413 -1.1414 -2.2652
    9bbb     H4  221   6.135   8.957   6.343  0.4170 -2.3431  2.5949
    9bbb     N1  222   6.331   9.106   6.490 -0.6003  0.2614 -0.8161
    9bbb     C3  223   6.420   9.210   6.529  0.5232  0.2466 -0.3619
    9bbb     H5  224   6.425   9.282   6.446  0.2320  2.9131  1.7850
    9bbb     H6  225   6.522   9.177   6.549  0.4634  0.8568  1.0861
    9bbb     C4  226   6.393   8.992   6.429  0.1302 -0.0810  0.5801
    9bbb     H7  227   6.332   8.948   6.349  1.8993 -0.7139 -0.4981
    9bbb     H8  228   6.485   9.022   6.377  0.2749  1.7824  1.8123
    9bbb     C5  229   6.415   8.888   6.533 -0.1648 -0.4836 -0.1761
    9bbb     H9  230   6.482   8.916   6.615 -0.0200  1.4874 -0.9155
    9bbb    H10  231   6.316   8.865   6.574  0.1944 -1.7033  0.0480
    9bbb     C6  232   6.363   9.279   6.654 -0.0728 -0.1150 -0.4451
    9bbb    H11  233   6.421   9.369   6.679 -1.0544  0.4653 -0.1836
    9bbb    H12  234   6.257   9.307   6.650 -0.7729 -2.3008  1.0132
    9bbb     C7  235   6.475   8.767   6.471 -0.3504 -0.5015  0.7437
    9bbb     C8  236   6.379   9.185   6.771  0.1944 -0.4067 -0.5609
    9bbb     O1  237   6.580   8.775   6.412 -0.0530 -0.3483  0.0702
    9bbb     O2  238   6.295   9.110   6.816 -0.1506 -0.1714 -0.2526
    9bbb     N4  239   6.062   8.978   6.538 -0.0894 -0.0705 -0.1571
    9bbb    H21  240   6.129   8.960   6.612  0.0192 -1.5204 -0.5862
   10bbb     C1  241   5.516   8.103   5.279 -0.5142  0.1061  0.8772
   10bbb     H1  242   5.486   8.203   5.312  0.3655  1.8872 -3.1277
   10bbb     H2  243   5.419   8.061   5.249 -0.0112  0.6150 -1.6811
   10bbb     C2  244   5.583   8.012   5.391  0.4077 -0.4141  0.1509
   10bbb     H3  245   5.634   7.932   5.336 -0.1335 -0.3739 -0.4106
   10bbb     H4  246   5.650   8.075   5.452 -0.0876 -0.4926  0.7908
   10bbb     N1  247   5.609   8.121   5.157 -0.2086 -0.5954  0.6709
   10bbb     C3  248   5.696   8.239   5.176 -0.0391 -0.1982 -0.0845
   10bbb     H5  249   5.723   8.254   5.281 -0.5515  2.1004 -0.2303
   10bbb     H6  250   5.626   8.315   5.138 -1.0909 -2.3475 -2.7977
   10bbb     C4  251   5.530   8.134   5.034  0.4365  0.4210  0.0307
   10bbb     H7  252   5.438   8.186   5.062  1.2968  0.3135  3.4408
   10bbb     H8  253   5.593   8.166   4.950  1.0604 -0.2369  0.2381
   10bbb     C5  254   5.505   7.991   4.983 -0.8605  0.2232  0.0833
   10bbb     H9  255   5.599   7.943   4.951 -0.6862 -0.4991  1.5636
   10bbb    H10  256   5.465   7.928   5.063  0.3393  1.5526  1.8073
   10bbb     C6  257   5.822   8.237   5.095 -0.7824 -0.3561  0.1499
   10bbb    H11  258   5.887   8.152   5.121  1.1391  0.6361 -1.1726
   10bbb    H12  259   5.806   8.238   4.987  1.6615 -1.3221 -0.2734
   10bbb     C7  260   5.404   7.996   4.870  0.3373  0.3372 -0.0458
   10bbb     C8  261   5.897   8.363   5.118 -0.7631 -0.2552  0.2874
   10bbb     O1  262   5.332   8.096   4.862  0.0776 -0.0095  0.2035
   10bbb     O2  263   5.841   8.467   5.099  0.2482 -0.6467  0.6134
   10bbb     N4  264   5.474   7.956   5.471 -0.4007 -0.6987  0.5602
   10bbb    H21  265   5.384   7.960   5.424  0.5107  3.3601 -1.2589
   11bbb     C1  266   4.602   7.719   5.817 -0.2521 -0.3760 -0.9401
   11bbb     H1  267   4.598   7.671   5.915  0.0933  1.2055 -0.1143
   11bbb     H2  268   4.632   7.664   5.727  0.1187 -2.3687  0.3524
   11bbb     C2  269   4.713   7.828   5.852  0.2426  0.3939 -0.6331
   11bbb     H3  270   4.714   7.894   5.765  0.9882  0.3504 -0.6624
   11bbb     H4  271   4.681   7.893   5.935  0.1965  1.0289 -1.1442
   11bbb     N1  272   4.468   7.774   5.783 -0.0919  0.0633 -0.4821
   11bbb     C3  273   4.462   7.842   5.654  0.4179 -0.0871  0.7700
   11bbb     H5  274   4.547   7.911   5.656  0.3696  0.0798  4.2582
   11bbb     H6  275   4.372   7.904   5.654  1.4484  1.7127  4.4217
   11bbb     C4  276   4.411   7.866   5.883 -0.6131  0.1713 -0.5127
   11bbb     H7  277   4.482   7.934   5.930 -1.2363  2.1137 -2.1944
   11bbb     H8  278   4.328   7.926   5.842  0.8615  1.4405 -1.7487
   11bbb     C5  279   4.349   7.785   5.989 -0.2286  0.8524 -0.0783
   11bbb     H9  280   4.266   7.724   5.950 -1.4229  2.9168 -0.9217
   11bbb    H10  281   4.424   7.720   6.035 -1.6553 -0.7840  0.0646
   11bbb     C6  282   4.469   7.750   5.533  0.0262  0.7141 -0.5374
   11bbb    H11  283   4.479   7.815   5.445  0.1845  2.0070  0.4091
   11bbb    H12  284   4.551   7.677   5.536 -0.9765 -0.4253  0.9893
   11bbb     C7  285   4.290   7.861   6.102 -0.1019  0.0982  0.9562
   11bbb     C8  286   4.344   7.673   5.518 -0.1627 -0.4328 -0.0131
   11bbb     O1  287   4.364   7.923   6.176  0.3132 -0.3105 -0.2478
   11bbb     O2  288   4.243   7.732   5.506  0.5133  0.0262  0.0239
   11bbb     N4  289   4.843   7.761   5.874 -0.6577  0.0031 -0.5330
   11bbb    H21  290   4.859   7.714   5.962 -1.5392 -0.4953 -0.6263
   12bbb     C1  291   4.925   9.580   6.034  0.7312  0.4637 -0.2064
   12bbb     H1  292   5.018   9.631   6.061 -0.5773  1.3879  3.0022
   12bbb     H2  293   4.838   9.631   6.078 -0.3574 -0.0854 -1.6346
   12bbb     C2  294   4.922   9.430   6.086 -0.3066 -0.6476  0.2257
   12bbb     H3  295   4.969   9.378   6.002  0.9449  1.1506 -0.2489
   12bbb     H4  296   4.986   9.426   6.175 -1.0833  0.5784  0.8844
   12bbb     N1  297   4.915   9.581   5.888 -0.4651 -0.5162 -0.0920
   12bbb     C3  298   4.994   9.693   5.831  0.4323 -0.0206 -0.3635
   12bbb     H5  299   4.961   9.788   5.876 -0.3457  0.0391 -1.0446
   12bbb     H6  300   4.986   9.687   5.722  4.2471  0.1634 -0.7916
   12bbb     C4  301   4.780   9.572   5.832  0.5715  0.0700  0.6114
   12bbb     H7  302   4.721   9.494   5.881 -0.6962  2.0415  2.3554
   12bbb     H8  303   4.733   9.670   5.848  3.4181  1.0863  3.9454
   12bbb     C5  304   4.782   9.531   5.684  0.5307 -0.8710 -0.3523
   12bbb     H9  305   4.822   9.605   5.613 -1.0049 -0.5704 -0.9701
   12bbb    H10  306   4.849   9.446   5.669  1.3904 -0.2080 -0.3439
   12bbb     C6  307   5.144   9.683   5.852 -0.0622  0.3672  0.3703
   12bbb    H11  308   5.172   9.721   5.951  0.6107  1.2757 -0.1549
   12bbb    H12  309   5.174   9.579   5.840 -1.9118 -0.3283  1.2732
   12bbb     C7  310   4.646   9.514   5.628  0.0094  0.0429  0.1519
   12bbb     C8  311   5.213   9.772   5.757 -0.6493  0.0413 -0.0215
   12bbb     O1  312   4.576   9.611   5.614  0.3629  0.6081 -0.2694
   12bbb     O2  313   5.153   9.859   5.691  0.2117  0.6084 -0.1052
   12bbb     N4  314   4.794   9.375   6.128  0.8019  0.1094 -1.5576
   12bbb    H21  315   4.739   9.427   6.195 -1.1910 -0.8174 -2.3765
   13bbb     C1  316   3.799   9.163   6.285  0.2422 -0.0382 -0.1940
   13bbb     H1  317   3.702   9.212   6.296  1.4739  2.4992  0.3722
   13bbb     H2  318   3.839   9.145   6.385 -0.0146 -0.3170 -0.1408
   13bbb     C2  319   3.894   9.264   6.211 -0.1852  0.2810 -0.2604
   13bbb     H3  320   3.852   9.305   6.118 -1.7113 -1.0312 -0.1887
   13bbb     H4  321   3.909   9.342   6.286  1.5085 -1.2862  1.1214
   13bbb     N1  322   3.775   9.034   6.213 -0.3538  0.4347 -0.4867
   13bbb     C3  323   3.649   9.028   6.137 -0.3161 -1.0055 -0.1088
   13bbb     H5  324   3.560   9.045   6.200  0.3585 -0.5328  0.7300
   13bbb     H6  325   3.647   8.942   6.069 -2.3574  0.6490 -2.3141
   13bbb     C4  326   3.774   8.925   6.307 -0.8793  0.0597 -0.3582
   13bbb     H7  327   3.727   8.965   6.398 -1.8220  0.8006 -1.1429
   13bbb     H8  328   3.724   8.835   6.271  2.2058 -1.2891 -1.5664
   13bbb     C5  329   3.915   8.873   6.339 -0.0156  0.3752  0.0225
   13bbb     H9  330   3.927   8.778   6.285  0.7231 -1.6599  3.4623
   13bbb    H10  331   3.994   8.942   6.308  0.1912  0.4331  0.6636
   13bbb     C6  332   3.632   9.141   6.035  0.5487 -0.0083  0.5661
   13bbb    H11  333   3.628   9.240   6.081 -1.6070  0.4671 -0.5464
   13bbb    H12  334   3.708   9.143   5.955  0.4712 -2.0086  0.3804
   13bbb     C7  335   3.938   8.833   6.479  0.2498 -0.2004  0.0605
   13bbb     C8  336   3.500   9.126   5.973 -0.7729 -0.5123 -0.6205
   13bbb     O1  337   3.850   8.777   6.547  0.4293  0.8888 -0.0393
   13bbb     O2  338   3.486   9.044   5.887  0.1830  0.2143 -0.0501
   13bbb     N4  339   4.022   9.206   6.185 -0.1213  0.8569 -0.2052
   13bbb    H21  340   4.029   9.116   6.139  0.8475  1.1760 -0.7158
   14bbb     C1  341   4.126   7.119   7.550  0.3572 -0.4159  0.0164
   14bbb     H1  342   4.195   7.130   7.466  2.4865  2.4322  1.9351
   14bbb     H2  343   4.129   7.018   7.592  2.9163 -0.2659  0.3912
   14bbb     C2  344   3.986   7.143   7.484  0.4706 -0.8138  0.0168
   14bbb     H3  345   3.952   7.062   7.418  2.4977 -0.4032 -1.6569
   14bbb     H4  346   3.903   7.152   7.554  0.5186 -0.5661  0.0444
   14bbb     N1  347   4.159   7.223   7.652  0.3847 -0.1787  0.3736
   14bbb     C3  348   4.303   7.222   7.687 -0.6779  0.5142 -0.0015
   14bbb     H5  349   4.341   7.122   7.711 -2.8071 -0.2434  0.3507
   14bbb     H6  350   4.316   7.283   7.777 -1.3849 -0.6545  0.9079
   14bbb     C4  351   4.069   7.247   7.764  0.0417  0.3753 -0.2844
   14bbb     H7  352   3.973   7.196   7.752 -0.5270  1.1816  0.7073
   14bbb     H8  353   4.121   7.224   7.858 -0.3689  1.5129  0.2425
   14bbb     C5  354   4.030   7.395   7.769  0.4468  0.0153  0.2700
   14bbb     H9  355   3.982   7.431   7.861  2.8797 -0.8595  1.9697
   14bbb    H10  356   4.114   7.466   7.767  0.4870  0.1438  3.0015
   14bbb     C6  357   4.395   7.273   7.575  0.8028  0.4043 -0.4875
   14bbb    H11  358   4.368   7.221   7.483 -0.1362 -1.3021  0.6840
   14bbb    H12  359   4.379   7.379   7.550  4.2463  0.7448 -1.8047
   14bbb     C7  360   3.931   7.426   7.660  0.8346 -0.3700 -0.6503
   14bbb     C8  361   4.544   7.254   7.602  0.0242 -0.0998 -0.1987
   14bbb     O1  362   3.958   7.501   7.572 -0.6346 -0.4425  0.4390
   14bbb     O2  363   4.605   7.319   7.683 -0.1598 -0.5444 -0.6930
   14bbb     N4  364   3.989   7.271   7.402  0.0606  0.7097  0.2426
   14bbb    H21  365   3.967   7.364   7.434  1.8007  1.3190 -0.1682
   15bbb     C1  366   3.854   7.836   7.734 -0.1016  0.0381 -0.1587
   15bbb     H1  367   3.828   7.910   7.811 -0.9399  1.1116 -1.4098
   15bbb     H2  368   3.828   7.741   7.781 -1.1136  0.3447 -0.0626
   15bbb     C2  369   4.008   7.835   7.713 -0.1618  0.2592 -0.5677
   15bbb     H3  370   4.046   7.937   7.723  0.9350 -0.3554  3.1130
   15bbb     H4  371   4.045   7.798   7.809 -2.8492 -0.0337  0.4283
   15bbb     N1  372   3.767   7.865   7.618 -0.6438 -0.0620 -0.2847
   15bbb     C3  373   3.766   7.754   7.518 -0.2060 -0.0792  0.3410
   15bbb     H5  374   3.772   7.662   7.576  1.5117  0.7288  1.5328
   15bbb     H6  375   3.857   7.766   7.457 -0.2699  1.1666  0.4677
   15bbb     C4  376   3.801   7.997   7.564 -0.1870 -0.4203  0.0756
   15bbb     H7  377   3.909   8.011   7.548 -0.0553 -0.8322  0.5520
   15bbb     H8  378   3.739   8.014   7.476 -0.0398  0.2391  0.0887
   15bbb     C5  379   3.750   8.104   7.653 -0.6879  0.3735  0.0004
   15bbb     H9  380   3.641   8.101   7.649 -0.7024  1.3894 -0.8083
   15bbb    H10  381   3.784   8.109   7.757  2.0964  0.0419 -0.8058
   15bbb     C6  382   3.642   7.762   7.429  0.3227 -0.5134 -0.1050
   15bbb    H11  383   3.547   7.749   7.483 -0.1710  1.0691 -0.5236
   15bbb    H12  384   3.635   7.863   7.388  0.8230 -1.1550 -1.8557
   15bbb     C7  385   3.770   8.236   7.583  0.2944 -0.3837 -0.5522
   15bbb     C8  386   3.644   7.665   7.312 -0.5706 -0.3833 -0.6687
   15bbb     O1  387   3.692   8.271   7.496 -0.2045 -0.0098 -0.4710
   15bbb     O2  388   3.746   7.645   7.248 -0.5139  0.2881  0.0868
   15bbb     N4  389   4.060   7.755   7.598  0.1969  0.4421 -0.2695
   15bbb    H21  390   4.017   7.665   7.583  0.5828  0.5296 -2.1976
   16bbb     C1  391   5.808   7.563   6.290 -0.4974  0.0062  0.3471
   16bbb     H1  392   5.765   7.514   6.201  3.4289 -2.3274 -0.4847
   16bbb     H2  393   5.839   7.471   6.341  1.0075  0.3009 -0.0131
   16bbb     C2  394   5.719   7.653   6.379  0.2728  0.4879  0.4606
   16bbb     H3  395   5.786   7.697   6.453  2.9599 -3.0125  0.3700
   16bbb     H4  396   5.679   7.735   6.317  1.3641  1.3796  0.9071
   16bbb     N1  397   5.926   7.636   6.251 -0.0657  0.0642 -0.1083
   16bbb     C3  398   5.892   7.725   6.137 -0.4758 -0.0349  0.1475
   16bbb     H5  399   5.803   7.787   6.154 -0.5444  0.0354 -0.4752
   16bbb     H6  400   5.887   7.659   6.050 -0.9477 -0.2471  0.3292
   16bbb     C4  401   6.037   7.546   6.217  0.4606  0.3908 -0.2689
   16bbb     H7  402   6.002   7.444   6.197 -0.8523  0.0979  2.8804
   16bbb     H8  403   6.104   7.584   6.139  0.4929  0.9184  0.0159
   16bbb     C5  404   6.119   7.525   6.343  0.3324 -0.5915  0.1474
   16bbb     H9  405   6.151   7.623   6.378  0.1748 -0.5879  0.2837
   16bbb    H10  406   6.057   7.470   6.415  0.2857 -0.1237  0.4664
   16bbb     C6  407   5.998   7.829   6.135  0.6933 -0.8217 -0.3863
   16bbb    H11  408   5.986   7.885   6.229 -0.5506 -0.9587 -0.4543
   16bbb    H12  409   6.100   7.792   6.117  2.0408  1.9670  0.8065
   16bbb     C7  410   6.235   7.432   6.316 -0.2649 -0.3487 -0.0471
   16bbb     C8  411   5.980   7.923   6.024  0.6933 -0.4397  0.6224
   16bbb     O1  412   6.350   7.481   6.323  0.1593  0.0730  0.3277
   16bbb     O2  413   5.921   7.893   5.920  0.2975  0.2445  0.4127
   16bbb     N4  414   5.613   7.575   6.451 -0.2742  0.3224  0.3764
   16bbb    H21  415   5.604   7.479   6.420  0.3520  0.3786  0.0168
   17bbb     C1  416   5.603   6.680   6.528  0.3569  0.8902  0.6200
   17bbb     H1  417   5.645   6.588   6.485  0.2181  2.3826 -3.1279
   17bbb     H2  418   5.571   6.734   6.438  2.2616  0.7179 -0.2122
   17bbb     C2  419   5.713   6.776   6.588  0.4645  0.2951  0.0073
   17bbb     H3  420   5.715   6.734   6.689 -0.3765 -0.3639 -0.2344
   17bbb     H4  421   5.812   6.764   6.542  0.7520 -0.2053  0.7381
   17bbb     N1  422   5.496   6.669   6.631 -0.0021  0.5198  0.0648
   17bbb     C3  423   5.480   6.534   6.670  0.6338  0.5140  0.5060
   17bbb     H5  424   5.486   6.475   6.577 -1.5478  0.8941  0.0668
   17bbb     H6  425   5.382   6.511   6.713 -0.9976 -1.8989 -3.8584
   17bbb     C4  426   5.366   6.715   6.578 -0.3421 -0.5073  0.1250
   17bbb     H7  427   5.378   6.795   6.504 -1.8700  0.6481  1.0723
   17bbb     H8  428   5.332   6.629   6.518 -2.5557  0.7542 -0.5266
   17bbb     C5  429   5.277   6.760   6.693  0.2678 -0.4179 -0.4295
   17bbb     H9  430   5.257   6.691   6.776 -1.3923  2.9950  2.2720
   17bbb    H10  431   5.319   6.850   6.738 -3.1673  0.3638  1.5892
   17bbb     C6  432   5.576   6.486   6.771 -0.8384  0.8609 -0.2381
   17bbb    H11  433   5.566   6.378   6.788 -1.6024  1.3766  3.4942
   17bbb    H12  434   5.677   6.516   6.742 -0.5814  0.2109 -0.0334
   17bbb     C7  435   5.151   6.820   6.644 -0.0399 -0.8556 -0.0551
   17bbb     C8  436   5.548   6.539   6.908  0.1992 -0.5759  1.1045
   17bbb     O1  437   5.121   6.821   6.522 -0.5663  0.0976  0.0824
   17bbb     O2  438   5.536   6.461   6.998 -0.3636  0.1732 -0.1299
   17bbb     N4  439   5.673   6.916   6.575 -0.3141  0.1150 -0.2947
   17bbb    H21  440   5.638   6.950   6.486  0.4474  0.7016 -0.3772
   18bbb     C1  441   6.105   9.242   7.983  0.4127 -0.0262  0.4369
   18bbb     H1  442   6.150   9.307   8.060 -2.7027  2.9378 -0.0047
   18bbb     H2  443   6.133   9.139   8.007 -1.3427 -0.7034 -0.2717
   18bbb     C2  444   6.160   9.281   7.841  0.2316 -0.3720 -0.3235
   18bbb     H3  445   6.128   9.382   7.811  2.1475 -0.0533 -1.4622
   18bbb     H4  446   6.269   9.289   7.845  0.0662  2.5013  0.1187
   18bbb     N1  447   5.956   9.260   7.993  0.0725 -0.7177 -0.1903
   18bbb     C3  448   5.900   9.395   7.957  0.3125  0.1154  0.4775
   18bbb     H5  449   5.791   9.380   7.961  0.4110 -0.3419  2.0343
   18bbb     H6  450   5.925   9.428   7.856  1.1418 -1.8111  0.0022
   18bbb     C4  451   5.909   9.203   8.117 -0.2532  0.0994  0.0628
   18bbb     H7  452   5.975   9.120   8.145 -2.3216 -1.7047 -0.1524
   18bbb     H8  453   5.915   9.276   8.199 -0.8937 -0.9540  1.0814
   18bbb     C5  454   5.771   9.155   8.094  0.4871 -0.1947 -0.4912
   18bbb     H9  455   5.706   9.243   8.083 -2.4960 -2.0382  0.8330
   18bbb    H10  456   5.760   9.101   8.000 -1.8827 -0.2203 -0.2614
   18bbb     C6  457   5.952   9.498   8.056 -0.9011 -0.0910 -0.0455
   18bbb    H11  458   5.919   9.484   8.160 -0.9615 -3.3225 -0.3976
   18bbb    H12  459   6.060   9.516   8.058 -0.7325 -1.0224 -0.0437
   18bbb     C7  460   5.719   9.088   8.213  0.4279  0.0427  0.3498
   18bbb     C8  461   5.880   9.631   8.013 -1.0444 -0.0776 -0.6851
   18bbb     O1  462   5.794   9.039   8.295  0.3889 -0.3592  0.4219
   18bbb     O2  463   5.779   9.683   8.070  0.3466 -0.1730 -0.3891
   18bbb     N4  464   6.117   9.178   7.740  0.1495 -0.5214 -0.7335
   18bbb    H21  465   6.096   9.084   7.771 -0.6635  0.2981  1.3270
   19bbb     C1  466   5.259   8.834   7.850 -0.6906  0.0054  0.1751
   19bbb     H1  467   5.239   8.939   7.827 -1.0172 -0.5824 -2.6069
   19bbb     H2  468   5.184   8.800   7.922  0.8417 -2.2204  0.8384
   19bbb     C2  469   5.398   8.816   7.910 -0.1128  0.8004 -0.5440
   19bbb     H3  470   5.407   8.874   8.003  0.9865 -1.2386  0.6791
   19bbb     H4  471   5.411   8.710   7.934  1.6576  0.0013 -4.3215
   19bbb     N1  472   5.250   8.766   7.719 -0.0827  0.0308  0.7532
   19bbb     C3  473   5.291   8.834   7.595  0.3316 -1.0677 -0.8176
   19bbb     H5  474   5.365   8.901   7.639 -0.8076 -0.4967  0.2894
   19bbb     H6  475   5.211   8.902   7.565  1.6005  1.1677  0.6399
   19bbb     C4  476   5.134   8.681   7.710 -0.1170 -0.0064  0.5171
   19bbb     H7  477   5.053   8.734   7.763 -0.9135  0.0791 -0.7326
   19bbb     H8  478   5.107   8.674   7.604  2.2318  0.7059 -0.1907
   19bbb     C5  479   5.164   8.543   7.761  0.3586  0.8363  0.2227
   19bbb     H9  480   5.237   8.502   7.690  0.2760  1.3619 -0.1776
   19bbb    H10  481   5.210   8.550   7.860  1.5864  1.2437 -0.3555
   19bbb     C6  482   5.354   8.740   7.502  0.6948  0.1608 -0.4661
   19bbb    H11  483   5.438   8.687   7.548  0.0301 -0.6706 -0.1778
   19bbb    H12  484   5.276   8.672   7.467  1.2953 -1.1575  0.6505
   19bbb     C7  485   5.049   8.451   7.763  0.5284 -0.1306  0.1913
   19bbb     C8  486   5.405   8.816   7.379 -1.2442 -0.2383  0.2897
   19bbb     O1  487   4.935   8.497   7.765 -0.4876  0.3357 -0.6699
   19bbb     O2  488   5.408   8.939   7.377  0.1054 -0.1744  0.2229
   19bbb     N4  489   5.520   8.857   7.832  0.2844 -0.0447 -0.1589
   19bbb    H21  490   5.536   8.956   7.819 -1.7825  0.3711  0.1294
   20bbb     C1  491   6.328   8.456   6.356  0.9117  0.2940 -0.1949
   20bbb     H1  492   6.262   8.408   6.429  0.8319 -2.0494 -1.6757
   20bbb     H2  493   6.352   8.372   6.289 -3.5615 -0.3413 -1.3651
   20bbb     C2  494   6.444   8.510   6.433 -0.5801 -0.2195  0.2954
   20bbb     H3  495   6.470   8.441   6.514 -1.1407  1.4016  1.9413
   20bbb     H4  496   6.528   8.518   6.364  0.0733  2.1455  1.2316
   20bbb     N1  497   6.256   8.561   6.289  0.1863 -0.1030  0.3699
   20bbb     C3  498   6.326   8.633   6.184  0.0703  0.0169 -0.1299
   20bbb     H5  499   6.417   8.678   6.227  0.9940  0.4984 -2.4043
   20bbb     H6  500   6.261   8.706   6.135  0.2669  1.2904  1.4193
   20bbb     C4  501   6.124   8.509   6.242  0.3037  0.2308  0.6389
   20bbb     H7  502   6.088   8.558   6.150  0.6175  0.9868  0.9140
   20bbb     H8  503   6.141   8.403   6.220  0.7291  0.4903 -0.3741
   20bbb     C5  504   6.017   8.532   6.350 -0.4451 -0.3594 -0.4630
   20bbb     H9  505   6.024   8.465   6.436 -0.3536 -0.3595 -0.4704
   20bbb    H10  506   6.035   8.636   6.380  1.5671 -1.2004  1.4972
   20bbb     C6  507   6.369   8.541   6.072 -0.5553  0.1992 -0.2975
   20bbb    H11  508   6.447   8.474   6.112 -0.8839  0.7158  1.2816
   20bbb    H12  509   6.284   8.480   6.039 -0.1053 -0.7475  0.2465
   20bbb     C7  510   5.875   8.528   6.298  0.1940 -0.0984 -0.1843
   20bbb     C8  511   6.431   8.616   5.958  0.5991  0.3983  0.7635
   20bbb     O1  512   5.819   8.635   6.269  0.3281  0.2257 -0.5765
   20bbb     O2  513   6.356   8.660   5.872 -0.5950 -0.1264  0.2162
   20bbb     N4  514   6.413   8.646   6.502 -0.3749 -0.0599 -0.5929
   20bbb    H21  515   6.323   8.660   6.547  0.0387 -0.4289  0.3780
   21bbb     C1  516   6.684   9.194   6.995 -0.0124  0.9823 -0.0738
   21bbb     H1  517   6.747   9.132   6.931 -2.3017 -2.7584  1.0246
   21bbb     H2  518   6.714   9.179   7.100 -0.9715 -0.0900  0.0614
   21bbb     C2  519   6.536   9.146   6.966  0.2999 -0.4795 -0.3310
   21bbb     H3  520   6.530   9.037   6.970  0.0989 -0.4264  1.5689
   21bbb     H4  521   6.484   9.199   7.046 -1.8950 -2.4615 -0.3287
   21bbb     N1  522   6.701   9.334   6.957  0.4121 -0.6137 -0.1893
   21bbb     C3  523   6.829   9.357   6.879  0.0800  0.3728  0.1069
   21bbb     H5  524   6.911   9.330   6.947 -1.4853  1.1764  2.4360
   21bbb     H6  525   6.846   9.463   6.858 -1.1916  0.4809 -0.4928
   21bbb     C4  526   6.678   9.428   7.071  0.3406 -0.0220 -0.7872
   21bbb     H7  527   6.575   9.422   7.110  0.5109  0.8843 -0.1558
   21bbb     H8  528   6.730   9.395   7.162 -1.8018  1.9304  1.3371
   21bbb     C5  529   6.705   9.576   7.039  0.4706 -0.3754 -0.5200
   21bbb     H9  530   6.805   9.600   7.002 -0.0435  1.6947 -0.6806
   21bbb    H10  531   6.640   9.620   6.962  0.0061 -1.4218 -0.7394
   21bbb     C6  532   6.845   9.287   6.741 -0.2584 -0.1509  0.0578
   21bbb    H11  533   6.868   9.179   6.746 -1.5766 -0.4558 -0.1793
   21bbb    H12  534   6.753   9.290   6.682 -1.1241  0.1235  1.3885
   21bbb     C7  535   6.692   9.655   7.165 -0.1440  0.1417  0.5326
   21bbb     C8  536   6.947   9.362   6.652 -0.4968 -0.2090 -0.1427
   21bbb     O1  537   6.616   9.626   7.255 -0.0477 -0.2555  0.3145
   21bbb     O2  538   6.911   9.451   6.579 -0.4699 -0.0496 -0.4779
   21bbb     N4  539   6.495   9.207   6.839  1.0478 -0.1749 -0.0343
   21bbb    H21  540   6.549   9.288   6.810  0.3624 -0.1716 -1.3757
   22bbb     C1  541   5.236   7.702   4.707  0.1132 -0.2763 -0.0650
   22bbb     H1  542   5.293   7.653   4.628 -0.0045  3.6234 -2.8570
   22bbb     H2  543   5.129   7.698   4.684 -0.0179 -1.8263  0.7035
   22bbb     C2  544   5.281   7.850   4.701 -0.1587  0.0227 -0.0813
   22bbb     H3  545   5.310   7.868   4.596  2.7866  1.7355  0.8931
   22bbb     H4  546   5.198   7.917   4.726 -2.7847 -2.5290 -1.3305
   22bbb     N1  547   5.245   7.632   4.849 -0.2628 -0.2246 -0.4087
   22bbb     C3  548   5.189   7.703   4.963  0.0448 -0.4789 -0.3884
   22bbb     H5  549   5.242   7.797   4.983 -2.3029  0.7982  0.2538
   22bbb     H6  550   5.202   7.643   5.053  4.8592  0.2557 -0.3085
   22bbb     C4  551   5.376   7.576   4.872  0.5274 -0.4525 -1.0035
   22bbb     H7  552   5.453   7.635   4.821  0.8061 -1.5076 -1.8325
   22bbb     H8  553   5.406   7.587   4.978  0.6963 -1.6862 -0.9042
   22bbb     C5  554   5.383   7.436   4.837  0.1414 -0.0178  0.2837
   22bbb     H9  555   5.314   7.377   4.899  0.0502 -0.8403 -0.5884
   22bbb    H10  556   5.348   7.425   4.734 -0.6109  0.0965  0.5133
   22bbb     C6  557   5.048   7.731   4.939  0.1631  0.5455 -0.0809
   22bbb    H11  558   5.027   7.813   4.869 -1.2757  0.7938  0.5993
   22bbb    H12  559   4.987   7.642   4.915 -1.3742  0.6792  2.8323
   22bbb     C7  560   5.522   7.380   4.852  1.5689 -0.3321 -0.2475
   22bbb     C8  561   4.991   7.774   5.074  0.1251  0.0495  0.0767
   22bbb     O1  562   5.606   7.384   4.767 -0.3652  0.2028  0.6866
   22bbb     O2  563   5.059   7.798   5.172 -0.2159 -0.0391 -0.5985
   22bbb     N4  564   5.396   7.886   4.790 -0.1887 -0.3605 -0.0106
   22bbb    H21  565   5.450   7.805   4.819 -0.4951 -0.6271 -0.1790
   23bbb     C1  566   6.050   8.383   5.428  0.4359 -0.1299  0.0544
   23bbb     H1  567   5.945   8.403   5.452  0.3814  0.0317 -0.3197
   23bbb     H2  568   6.114   8.449   5.487  1.4336  0.4136 -1.6086
   23bbb     C2  569   6.075   8.427   5.280 -0.2323 -0.4192 -0.6706
   23bbb     H3  570   6.031   8.527   5.272 -2.3448 -0.9561  2.3525
   23bbb     H4  571   6.181   8.449   5.263 -0.0045 -1.6714 -0.9691
   23bbb     N1  572   6.094   8.242   5.448  0.6596  1.4450 -0.7069
   23bbb     C3  573   5.978   8.155   5.434 -0.0809 -0.0573  0.2260
   23bbb     H5  574   5.913   8.188   5.352 -0.7186  0.7263  1.0282
   23bbb     H6  575   5.923   8.153   5.529 -0.7361 -1.5554 -0.1594
   23bbb     C4  576   6.151   8.224   5.587 -0.1677 -0.9706  0.1962
   23bbb     H7  577   6.076   8.263   5.658 -0.9107  0.0209 -1.0983
   23bbb     H8  578   6.180   8.121   5.611  1.1383 -0.5279  0.5985
   23bbb     C5  579   6.280   8.301   5.603 -0.2049  0.4998 -0.3761
   23bbb     H9  580   6.341   8.253   5.526 -2.6556 -0.6658 -1.7162
   23bbb    H10  581   6.282   8.410   5.601  0.5205  0.4855 -0.6684
   23bbb     C6  582   6.006   8.010   5.398  0.6931  0.4531 -0.5000
   23bbb    H11  583   6.085   7.974   5.465 -0.0252 -0.8003 -0.3076
   23bbb    H12  584   5.916   7.949   5.409  0.2954  1.2922  1.3633
   23bbb     C7  585   6.339   8.272   5.739 -0.2182  0.4787 -0.2828
   23bbb     C8  586   6.057   7.998   5.254 -0.3379  0.0488 -0.2716
   23bbb     O1  587   6.293   8.193   5.818  0.5833  0.0002  0.7197
   23bbb     O2  588   5.999   7.932   5.169  0.4425 -0.1106  0.0700
   23bbb     N4  589   6.022   8.342   5.177  0.0770 -0.1072  0.3761
   23bbb    H21  590   6.061   8.248   5.185  2.2989  0.9030  2.4887
   24bbb     C1  591   4.043   7.892   6.321 -0.6789  0.2211 -0.0438
   24bbb     H1  592   4.139   7.895   6.374 -2.2848 -0.0754  3.1452
   24bbb     H2  593   4.007   7.790   6.305 -0.2530  0.1236 -0.4226
   24bbb     C2  594   4.068   7.955   6.185 -0.0249  0.8625 -0.5154
   24bbb     H3  595   3.973   7.976   6.134  0.5981  1.8727 -1.3050
   24bbb     H4  596   4.115   8.055   6.186  1.2439  0.3339 -2.1882
   24bbb     N1  597   3.952   7.974   6.402 -0.1436  0.2362  0.7816
   24bbb     C3  598   3.977   7.957   6.551 -0.0781  0.2237 -0.5725
   24bbb     H5  599   4.021   7.858   6.567  2.0138  1.4081  1.7338
   24bbb     H6  600   3.881   7.965   6.605 -0.1684 -2.6974 -0.1417
   24bbb     C4  601   3.808   7.972   6.371  0.4893 -0.1644 -0.4455
   24bbb     H7  602   3.799   7.951   6.264 -2.2210 -2.7111  0.1473
   24bbb     H8  603   3.765   7.888   6.426  0.1041 -0.0575 -0.5786
   24bbb     C5  604   3.750   8.105   6.417  0.7993  1.0219  0.1411
   24bbb     H9  605   3.729   8.121   6.523  2.6599  0.3131  0.6559
   24bbb    H10  606   3.817   8.189   6.394  0.1012  1.3766 -0.6614
   24bbb     C6  607   4.070   8.058   6.611  0.8615  0.6329  1.0587
   24bbb    H11  608   4.164   8.056   6.554  1.0057 -2.2910  1.2228
   24bbb    H12  609   4.027   8.156   6.588 -1.1974 -1.0579 -3.3499
   24bbb     C7  610   3.627   8.131   6.346 -0.5296 -0.5707 -0.0111
   24bbb     C8  611   4.106   8.035   6.752 -0.0145 -0.8447 -0.1563
   24bbb     O1  612   3.568   8.059   6.270 -0.7415  0.0767 -0.0973
   24bbb     O2  613   4.072   7.947   6.828  0.2519  0.0516  0.3433
   24bbb     N4  614   4.152   7.868   6.100 -0.6212 -0.0596  0.5091
   24bbb    H21  615   4.107   7.795   6.046  0.4508 -3.1352  3.4124
   25bbb     C1  616   4.245   7.438   5.736  0.1113  0.4392 -0.4649
   25bbb     H1  617   4.141   7.410   5.760  0.5630 -1.0939 -0.2297
   25bbb     H2  618   4.251   7.536   5.786 -3.6304  0.9685 -0.7615
   25bbb     C2  619   4.238   7.458   5.578  0.1289 -0.3363  0.4037
   25bbb     H3  620   4.238   7.360   5.528 -1.7013  0.0315 -0.4113
   25bbb     H4  621   4.142   7.507   5.557  1.1347  2.5120  1.9229
   25bbb     N1  622   4.349   7.339   5.776  0.5362 -0.5075  0.0120
   25bbb     C3  623   4.302   7.250   5.884 -0.0939  0.6961  0.2723
   25bbb     H5  624   4.214   7.297   5.930 -0.6674  1.7024 -1.7294
   25bbb     H6  625   4.375   7.224   5.962 -1.0620  1.1045  1.3410
   25bbb     C4  626   4.478   7.409   5.802  0.8598  0.6666  0.2046
   25bbb     H7  627   4.495   7.492   5.732  1.5174 -0.9856 -1.7128
   25bbb     H8  628   4.495   7.439   5.906 -0.7355  0.9611  0.3942
   25bbb     C5  629   4.591   7.312   5.776  0.9443  0.0370 -0.8469
   25bbb     H9  630   4.595   7.244   5.862  2.2248  0.0117 -0.9061
   25bbb    H10  631   4.578   7.261   5.681 -0.0929 -0.4567 -0.4525
   25bbb     C6  632   4.272   7.116   5.815  0.2015 -0.1872  0.0408
   25bbb    H11  633   4.185   7.121   5.748 -1.6025 -1.2840  2.1276
   25bbb    H12  634   4.364   7.085   5.765 -0.0819 -1.3023  0.1694
   25bbb     C7  635   4.723   7.387   5.782 -0.4154  0.1706 -1.7557
   25bbb     C8  636   4.235   7.015   5.925  0.5169 -0.2988  0.0211
   25bbb     O1  637   4.777   7.420   5.886  0.3736  0.1433  0.2145
   25bbb     O2  638   4.136   7.031   5.987  0.1609  0.1894 -0.2196
   25bbb     N4  639   4.349   7.540   5.530  0.5634 -0.2779 -0.2451
   25bbb    H21  640   4.444   7.505   5.530  0.5656 -0.2947 -1.0555
   26bbb     C1  641   4.446   9.239   5.723 -0.3693 -0.2325  0.7646
   26bbb     H1  642   4.473   9.297   5.812  2.4777 -1.1386  0.5903
   26bbb     H2  643   4.522   9.166   5.691  0.6162  1.2293 -0.3669
   26bbb     C2  644   4.457   9.335   5.610 -0.1219 -0.2416 -0.3162
   26bbb     H3  645   4.432   9.283   5.516  2.6639  0.2895 -1.4580
   26bbb     H4  646   4.393   9.422   5.629  1.6537  1.1588 -0.4940
   26bbb     N1  647   4.306   9.181   5.730 -0.3243  0.6032 -0.5793
   26bbb     C3  648   4.223   9.273   5.805 -0.2976  0.2737 -0.3973
   26bbb     H5  649   4.232   9.374   5.764  0.7695  0.7845  1.0016
   26bbb     H6  650   4.253   9.277   5.911  1.7394 -0.9262 -0.8574
   26bbb     C4  651   4.318   9.042   5.777  0.0441 -0.3764 -0.3031
   26bbb     H7  652   4.401   9.044   5.847  0.1229  1.1143 -0.4105
   26bbb     H8  653   4.229   8.999   5.825  0.0084  0.3630  0.3087
   26bbb     C5  654   4.347   8.948   5.660  0.3443 -0.8817 -0.5424
   26bbb     H9  655   4.266   8.965   5.587 -0.8852 -2.2043  0.4602
   26bbb    H10  656   4.445   8.973   5.618  1.4047 -2.4537  0.8821
   26bbb     C6  657   4.077   9.227   5.789  0.2640  0.2904  0.3812
   26bbb    H11  658   4.059   9.184   5.690  0.5282 -0.2181  0.5481
   26bbb    H12  659   4.059   9.147   5.862  1.8008 -0.6893 -0.2762
   26bbb     C7  660   4.339   8.797   5.699 -0.2723  0.0200  0.6653
   26bbb     C8  661   3.976   9.339   5.811 -0.2525 -0.1993  0.0740
   26bbb     O1  662   4.336   8.764   5.814 -0.3265  0.2188 -0.1955
   26bbb     O2  663   4.004   9.446   5.859 -0.1918 -0.1577  0.0206
   26bbb     N4  664   4.601   9.388   5.602 -0.1975  0.1942  0.4898
   26bbb    H21  665   4.676   9.320   5.600  1.4823  1.9759 -0.5911
   27bbb     C1  666   5.569   9.774   5.618  0.2792 -0.3312  0.2884
   27bbb     H1  667   5.548   9.703   5.537 -1.2487 -0.6980  0.9750
   27bbb     H2  668   5.608   9.705   5.694  0.4996  1.5033  1.9334
   27bbb     C2  669   5.436   9.840   5.657 -0.1752 -0.0743 -0.0565
   27bbb     H3  670   5.467   9.929   5.714  0.1669  0.2753 -0.7757
   27bbb     H4  671   5.389   9.880   5.567 -0.1147 -0.4849 -0.2723
   27bbb     N1  672   5.681   9.867   5.591 -0.9658 -0.0948 -0.0154
   27bbb     C3  673   5.645   9.962   5.482  0.1415 -0.0966 -0.1076
   27bbb     H5  674   5.547  10.010   5.491  0.6535  1.7101 -2.9877
   27bbb     H6  675   5.638   9.906   5.388  0.4038 -1.8973  0.9007
   27bbb     C4  676   5.793   9.777   5.558 -0.6309  0.3492  0.4007
   27bbb     H7  677   5.768   9.690   5.497  2.2667 -0.6512  0.4992
   27bbb     H8  678   5.870   9.831   5.502  0.1044 -1.1080 -0.0488
   27bbb     C5  679   5.864   9.726   5.683  0.3288  0.0532  0.3700
   27bbb     H9  680   5.890   9.808   5.750 -0.1473  0.8398 -0.3876
   27bbb    H10  681   5.805   9.656   5.743  0.0348  0.1731  0.2252
   27bbb     C6  682   5.754  10.066   5.477 -0.1073 -0.4422  0.0773
   27bbb    H11  683   5.787  10.104   5.574 -2.9640  0.1433  0.8895
   27bbb    H12  684   5.842  10.039   5.417  2.1650  0.7080  2.6562
   27bbb     C7  685   5.974   9.630   5.636  0.1082  0.3200 -0.6523
   27bbb     C8  686   5.692  10.182   5.406 -0.9130  0.0615 -0.3768
   27bbb     O1  687   5.947   9.519   5.601 -0.3682 -0.3114  0.2465
   27bbb     O2  688   5.614  10.255   5.460 -0.1294  0.1274  0.5579
   27bbb     N4  689   5.349   9.756   5.739 -0.2409  0.3857  0.5124
   27bbb    H21  690   5.382   9.675   5.791  0.2796  1.5214  2.0538
   28bbb     C1  691   4.214   8.909   6.737  0.5534 -0.3164 -0.2196
   28bbb     H1  692   4.192   8.981   6.818  1.3273  0.1965 -0.4483
   28bbb     H2  693   4.263   8.968   6.658 -1.8766  1.9984 -0.1468
   28bbb     C2  694   4.071   8.877   6.681 -0.8560 -0.1682  0.1821
   28bbb     H3  695   4.047   8.778   6.723  0.6914 -0.9627 -0.7337
   28bbb     H4  696   3.996   8.950   6.713 -0.8382 -0.3945  0.7583
   28bbb     N1  697   4.282   8.794   6.798 -0.3145 -0.0526  0.5282
   28bbb     C3  698   4.409   8.823   6.870  0.4693 -0.5455 -0.1423
   28bbb     H5  699   4.475   8.883   6.807  1.8134  0.9049  2.4728
   28bbb     H6  700   4.451   8.726   6.901  1.3696 -0.3737 -0.7973
   28bbb     C4  701   4.319   8.692   6.694  0.1313  0.4224 -0.4557
   28bbb     H7  702   4.249   8.684   6.611  1.5463 -0.4658 -1.6090
   28bbb     H8  703   4.419   8.695   6.648 -0.0664 -1.1921 -1.0539
   28bbb     C5  704   4.305   8.553   6.781  0.3361  0.0616  0.4412
   28bbb     H9  705   4.380   8.540   6.859  2.2589  2.4150 -0.8488
   28bbb    H10  706   4.208   8.564   6.831  0.0089  1.0697 -0.3661
   28bbb     C6  707   4.367   8.886   6.998  0.1837 -0.2617 -0.5481
   28bbb    H11  708   4.325   8.985   6.982  0.8351  0.2910  0.9862
   28bbb    H12  709   4.300   8.819   7.053  1.3830 -2.0837 -1.1724
   28bbb     C7  710   4.318   8.437   6.688 -1.1040 -0.4776  0.3482
   28bbb     C8  711   4.496   8.893   7.076 -0.5379  0.2942 -0.4865
   28bbb     O1  712   4.226   8.399   6.626 -0.6492 -0.1726  0.1082
   28bbb     O2  713   4.606   8.893   7.021 -0.4627 -0.5862 -0.1200
   28bbb     N4  714   4.056   8.873   6.538  0.5865  0.4992 -0.2173
   28bbb    H21  715   4.122   8.920   6.475  0.8020  2.3902  1.3161
   29bbb     C1  716   3.237   9.304   5.847 -0.1711  0.3188 -0.0921
   29bbb     H1  717   3.161   9.264   5.778  0.7928 -0.1533 -0.9029
   29bbb     H2  718   3.323   9.294   5.780  0.5643 -2.0516  1.0852
   29bbb     C2  719   3.259   9.206   5.974 -0.5218  0.1615  0.3970
   29bbb     H3  720   3.179   9.217   6.048  0.2607  0.0031  1.2889
   29bbb     H4  721   3.246   9.103   5.938  0.2817 -0.7435  2.5373
   29bbb     N1  722   3.208   9.448   5.865 -0.4211  0.0687  0.2827
   29bbb     C3  723   3.076   9.485   5.923 -0.3884 -0.1037  0.2654
   29bbb     H5  724   3.057   9.593   5.920  1.1881  0.2180  1.0521
   29bbb     H6  725   3.071   9.461   6.030 -0.7623 -0.9985  0.0595
   29bbb     C4  726   3.317   9.510   5.937  0.4504 -0.5557 -0.2378
   29bbb     H7  727   3.302   9.513   6.046  0.6443  0.7092 -0.2314
   29bbb     H8  728   3.413   9.457   5.932  2.4213  2.7202 -0.0397
   29bbb     C5  729   3.337   9.654   5.877 -0.8281 -0.0304 -0.3847
   29bbb     H9  730   3.324   9.664   5.769 -0.4252 -1.5432 -0.5945
   29bbb    H10  731   3.266   9.725   5.921  1.2296  1.2698  1.0178
   29bbb     C6  732   2.964   9.400   5.863 -0.0122 -0.1010 -0.0591
   29bbb    H11  733   2.968   9.408   5.753 -0.7668  2.0975  0.0188
   29bbb    H12  734   2.964   9.293   5.889  2.0610 -0.1313 -0.0350
   29bbb     C7  735   3.478   9.693   5.910 -0.4671 -0.7450 -0.3612
   29bbb     C8  736   2.836   9.461   5.904  0.6403  0.0091  0.4442
   29bbb     O1  737   3.557   9.634   5.984  0.1859 -0.8869  0.2470
   29bbb     O2  738   2.767   9.530   5.831  0.1219  0.2067 -0.3604
   29bbb     N4  739   3.399   9.210   6.021  0.2573  0.3998  0.2738
   29bbb    H21  740   3.423   9.267   6.102  0.9358 -2.8465  2.5557
   30bbb     C1  741   3.610   7.240   7.560  0.9599 -0.2168  0.6421
   30bbb     H1  742   3.579   7.185   7.649  1.4504 -1.5867 -0.0097
   30bbb     H2  743   3.676   7.169   7.508  0.8923 -0.3250  0.7039
   30bbb     C2  744   3.679   7.376   7.591  0.2854  0.6479 -0.4502
   30bbb     H3  745   3.708   7.431   7.501  2.8193  1.2027  0.6112
   30bbb     H4  746   3.595   7.432   7.635  0.1550  0.8598 -0.9651
   30bbb     N1  747   3.482   7.254   7.491  0.0564 -0.7009  0.1553
   30bbb     C3  748   3.441   7.127   7.432  0.5461 -0.5620 -0.0934
   30bbb     H5  749   3.333   7.117   7.415  0.7328 -2.6425 -0.3073
   30bbb     H6  750   3.458   7.060   7.517  1.5660  1.4352  1.3784
   30bbb     C4  751   3.369   7.311   7.561  0.1974 -0.1717  0.0475
   30bbb     H7  752   3.316   7.240   7.626  1.2892  1.0819  2.4623
   30bbb     H8  753   3.408   7.386   7.632  0.7130  1.3113 -1.7172
   30bbb     C5  754   3.273   7.384   7.464  0.5744  0.1973  0.1518
   30bbb     H9  755   3.333   7.462   7.416 -0.2606  0.6082 -0.2309
   30bbb    H10  756   3.230   7.309   7.396 -2.2162  0.5081  1.4561
   30bbb     C6  757   3.512   7.082   7.312 -0.8402 -0.7030 -0.2100
   30bbb    H11  758   3.519   7.172   7.250 -2.8522  1.1940  2.1167
   30bbb    H12  759   3.608   7.036   7.335 -1.3873 -2.2729 -0.9033
   30bbb     C7  760   3.165   7.459   7.544 -0.1097  0.5423  0.6846
   30bbb     C8  761   3.430   6.978   7.245 -0.2531 -0.4529 -0.3545
   30bbb     O1  762   3.180   7.486   7.661 -0.2138 -0.4707 -0.5873
   30bbb     O2  763   3.349   7.015   7.165  0.1208  0.3893  0.5319
   30bbb     N4  764   3.799   7.369   7.680 -0.6563 -0.1753  0.5262
   30bbb    H21  765   3.791   7.309   7.761 -1.4241 -1.0448 -0.1675
   31bbb     C1  766   4.803   7.015   7.444 -0.0205 -0.3402  0.2682
   31bbb     H1  767   4.740   7.010   7.354  0.2452  1.1932 -0.0321
   31bbb     H2  768   4.775   6.924   7.499 -0.7176  0.2107  0.8477
   31bbb     C2  769   4.756   7.138   7.527  0.4549 -0.8079 -0.3970
   31bbb     H3  770   4.782   7.121   7.632 -0.9262  1.0391  0.2940
   31bbb     H4  771   4.818   7.218   7.483 -0.0691 -0.1070  0.1326
   31bbb     N1  772   4.950   7.000   7.421  0.1570 -0.0514  0.8035
   31bbb     C3  773   4.973   6.914   7.306 -0.4627  1.0231 -0.4285
   31bbb     H5  774   4.909   6.943   7.221 -1.7849 -0.0740  0.1447
   31bbb     H6  775   4.965   6.809   7.334  1.7447  0.5582 -1.3566
   31bbb     C4  776   5.029   6.992   7.541 -0.1142 -0.6330 -0.3713
   31bbb     H7  777   4.982   7.005   7.639  1.0114 -1.4856  0.3104
   31bbb     H8  778   5.075   6.892   7.544  0.7413 -0.2630 -0.6883
   31bbb     C5  779   5.139   7.096   7.526  0.1023  0.2673  0.5242
   31bbb     H9  780   5.188   7.100   7.427 -2.7575 -1.3023 -1.1047
   31bbb    H10  781   5.089   7.193   7.531  1.1025  1.3370 -4.4466
   31bbb     C6  782   5.117   6.933   7.259  0.3250  0.3787  0.4228
   31bbb    H11  783   5.130   7.037   7.228 -1.0886  0.1168 -1.1472
   31bbb    H12  784   5.194   6.908   7.334  0.2797 -2.2726 -0.3346
   31bbb     C7  785   5.239   7.084   7.634 -0.8542  1.2734 -0.2133
   31bbb     C8  786   5.148   6.845   7.135  0.0960 -0.3907 -0.2298
   31bbb     O1  787   5.209   7.108   7.749 -0.6973 -0.3450 -0.2884
   31bbb     O2  788   5.134   6.879   7.021  0.3333  0.2032  0.4817
   31bbb     N4  789   4.608   7.163   7.523 -0.0383  0.7997 -0.1889
   31bbb    H21  790   4.549   7.101   7.470 -0.3131  1.6703 -0.9192
   32bbb     C1  791   4.053   8.492   7.587 -0.2239  0.9629 -0.1077
   32bbb     H1  792   4.119   8.411   7.553 -2.2140  0.4289 -3.1052
   32bbb     H2  793   4.066   8.494   7.696  2.3294  0.0292 -0.3213
   32bbb     C2  794   3.903   8.453   7.556  0.5588 -0.1086 -0.8090
   32bbb     H3  795   3.832   8.517   7.610  1.9955 -1.0677  2.4271
   32bbb     H4  796   3.886   8.460   7.448  1.0840 -0.6957 -0.9363
   32bbb     N1  797   4.084   8.619   7.535  0.7268  0.5953  0.3499
   32bbb     C3  798   4.227   8.646   7.520  0.1285 -0.2955 -0.2996
   32bbb     H5  799   4.290   8.589   7.589  0.6679 -0.0183 -0.5517
   32bbb     H6  800   4.258   8.750   7.541 -2.6837  0.8979 -1.5148
   32bbb     C4  801   4.025   8.728   7.618 -0.3819  0.1954  0.1151
   32bbb     H7  802   3.917   8.708   7.619  0.1753 -3.9536 -1.7553
   32bbb     H8  803   4.074   8.733   7.716 -0.8229 -1.5507  0.4756
   32bbb     C5  804   4.024   8.857   7.537  0.3839 -0.0524  0.5018
   32bbb     H9  805   4.123   8.892   7.506  1.1432 -2.1657  0.3371
   32bbb    H10  806   3.973   8.845   7.440  0.2802 -0.1348  0.5657
   32bbb     C6  807   4.258   8.604   7.379 -0.2503  0.1858  0.4236
   32bbb    H11  808   4.365   8.619   7.361 -0.2930  2.1345  1.5106
   32bbb    H12  809   4.231   8.499   7.364 -1.9156  0.7188 -0.5567
   32bbb     C7  810   3.965   8.971   7.609  0.4876 -0.6124 -0.2681
   32bbb     C8  811   4.194   8.691   7.274  0.3855  0.0274 -0.7479
   32bbb     O1  812   3.915   8.958   7.718  0.2491  0.4548 -0.2851
   32bbb     O2  813   4.226   8.812   7.266  0.2322  0.8846  0.4386
   32bbb     N4  814   3.877   8.318   7.616  0.0660  0.4863  0.1057
   32bbb    H21  815   3.931   8.279   7.692  0.1858  0.4062 -0.0208
   33bbb     C1  816   3.465   7.531   7.048 -0.1320  0.4083 -0.2764
   33bbb     H1  817   3.463   7.434   6.996  0.7622 -0.3140  0.9712
   33bbb     H2  818   3.554   7.580   7.008  2.1117 -4.1131 -1.5151
   33bbb     C2  819   3.501   7.490   7.192  0.1164  0.3753 -0.8369
   33bbb     H3  820   3.421   7.426   7.231 -1.2170  1.8445 -1.0072
   33bbb     H4  821   3.592   7.430   7.184  0.2983  0.4983  0.2366
   33bbb     N1  822   3.334   7.601   7.030 -0.4112  0.1352  0.4826
   33bbb     C3  823   3.343   7.742   7.049 -0.2123 -1.0520  0.2915
   33bbb     H5  824   3.438   7.779   7.009 -1.0755  1.6746  0.5580
   33bbb     H6  825   3.328   7.753   7.157 -2.5123 -0.0977 -0.0690
   33bbb     C4  826   3.224   7.540   7.093 -0.0086  0.0297  0.2418
   33bbb     H7  827   3.237   7.551   7.201 -1.0687  1.1059  0.2885
   33bbb     H8  828   3.129   7.587   7.065 -0.8736 -1.1315  1.1488
   33bbb     C5  829   3.209   7.392   7.060  0.0630  0.3926  0.1311
   33bbb     H9  830   3.193   7.371   6.953 -0.2944  0.6031  0.1414
   33bbb    H10  831   3.297   7.338   7.095 -0.1961 -0.2081 -0.1286
   33bbb     C6  832   3.228   7.812   6.977  0.4716 -0.6666 -0.7369
   33bbb    H11  833   3.227   7.790   6.869  0.1899 -1.9652 -0.4960
   33bbb    H12  834   3.127   7.787   7.012  0.7725  0.1907  0.7998
   33bbb     C7  835   3.091   7.331   7.132  1.0731  0.1483  0.0205
   33bbb     C8  836   3.244   7.964   6.997  0.0251 -0.0490 -0.4190
   33bbb     O1  837   2.995   7.396   7.174 -1.0602  0.6863 -0.0741
   33bbb     O2  838   3.340   8.026   6.952 -0.2862 -0.2594 -0.2939
   33bbb     N4  839   3.524   7.606   7.287  0.0288  0.3070 -0.1681
   33bbb    H21  840   3.447   7.640   7.342  0.4301  1.3516 -0.2193
   34bbb     C1  841   6.360   7.117   6.388 -0.0699  0.2577 -0.6841
   34bbb     H1  842   6.432   7.173   6.449  2.0961 -2.0252 -0.9928
   34bbb     H2  843   6.418   7.031   6.352  1.1313  0.6654  0.1933
   34bbb     C2  844   6.319   7.202   6.271 -0.6743  0.1728  0.2776
   34bbb     H3  845   6.411   7.254   6.243 -0.3749 -0.3672  0.2515
   34bbb     H4  846   6.290   7.146   6.181 -2.5048  1.0150  0.2757
   34bbb     N1  847   6.251   7.070   6.472 -0.5162 -0.2602  0.3789
   34bbb     C3  848   6.284   7.008   6.600  0.0421 -0.9602 -0.0765
   34bbb     H5  849   6.370   6.940   6.588  0.5537 -0.4152  0.4089
   34bbb     H6  850   6.195   6.960   6.643 -0.6031 -0.2751 -0.6337
   34bbb     C4  851   6.155   6.993   6.401 -0.0269 -0.3192 -0.6600
   34bbb     H7  852   6.150   7.025   6.296  1.6963 -2.0531 -1.3217
   34bbb     H8  853   6.198   6.894   6.386 -0.0869 -0.4843  0.2191
   34bbb     C5  854   6.014   6.988   6.463  0.1129  0.0414  0.0148
   34bbb     H9  855   5.947   6.933   6.394 -0.4595  0.4644  0.2218
   34bbb    H10  856   6.014   6.940   6.561 -2.6931  0.4651  0.3228
   34bbb     C6  857   6.337   7.114   6.695  0.1831 -0.7968  0.3372
   34bbb    H11  858   6.436   7.158   6.674 -0.1849  0.2559  0.7596
   34bbb    H12  859   6.273   7.203   6.694  0.2009 -0.7761  0.7642
   34bbb     C7  860   5.968   7.127   6.467  0.0557  0.3735  0.3495
   34bbb     C8  861   6.329   7.047   6.834  0.2532 -0.0860  1.5976
   34bbb     O1  862   5.946   7.198   6.375 -0.6100  0.2083  0.4145
   34bbb     O2  863   6.223   7.005   6.871  0.3485 -0.3127 -0.4665
   34bbb     N4  864   6.211   7.306   6.290  0.0271  0.9174 -0.0885
   34bbb    H21  865   6.114   7.280   6.280  1.0385 -2.8547 -2.8800
   35bbb     C1  866   5.864   8.238   5.955 -0.3311  0.3242  0.8910
   35bbb     H1  867   5.837   8.244   6.061 -0.0576 -1.2493  1.0805
   35bbb     H2  868   5.796   8.157   5.923  1.9247 -1.1181 -0.5290
   35bbb     C2  869   6.000   8.166   5.948 -0.1678  0.0226  0.1079
   35bbb     H3  870   6.017   8.124   5.848  0.8979  3.5382 -1.3472
   35bbb     H4  871   6.073   8.246   5.967 -1.8028  1.6706 -0.2762
   35bbb     N1  872   5.863   8.360   5.870  0.1442  0.1455  0.5612
   35bbb     C3  873   5.911   8.472   5.955 -0.2881  0.2178  0.9961
   35bbb     H5  874   5.976   8.438   6.036  1.1735  0.6937  0.0480
   35bbb     H6  875   5.823   8.516   6.003 -2.2032  0.0746 -2.0641
   35bbb     C4  876   5.727   8.388   5.812 -0.4857  0.1272 -0.6159
   35bbb     H7  877   5.649   8.403   5.888 -1.0585  0.3773 -1.2482
   35bbb     H8  878   5.738   8.485   5.762 -0.7160 -0.1298 -1.1702
   35bbb     C5  879   5.687   8.274   5.709 -0.1523 -0.0136  0.3567
   35bbb     H9  880   5.769   8.263   5.636 -0.1052 -1.4753  0.6025
   35bbb    H10  881   5.662   8.176   5.751 -1.2866 -0.2490 -0.8173
   35bbb     C6  882   5.980   8.571   5.865  0.2042 -0.2449  0.1408
   35bbb    H11  883   6.083   8.532   5.859  0.1312 -0.7358  1.5722
   35bbb    H12  884   5.930   8.569   5.768 -3.0738  0.5277  1.6799
   35bbb     C7  885   5.576   8.322   5.617  0.5369 -0.0631  1.2275
   35bbb     C8  886   5.973   8.708   5.915  0.5377  0.4650 -0.4969
   35bbb     O1  887   5.595   8.376   5.510 -0.2981 -0.1418  0.2229
   35bbb     O2  888   5.867   8.756   5.949  0.5393 -0.0322  0.5076
   35bbb     N4  889   6.027   8.052   6.040  0.1973 -0.1014  0.1453
   35bbb    H21  890   6.077   8.070   6.126  0.7468 -2.3838  0.3686
   36bbb     C1  891   4.873   6.927   6.888 -0.4956 -0.5912  0.6033
   36bbb     H1  892   4.917   7.020   6.927 -1.4072  0.4420 -0.7465
   36bbb     H2  893   4.903   6.837   6.943  1.2216 -1.3832 -1.4804
   36bbb     C2  894   4.927   6.887   6.748 -0.7265  0.0270 -0.1447
   36bbb     H3  895   4.873   6.794   6.724 -0.3732 -0.5190  1.1062
   36bbb     H4  896   4.898   6.968   6.680 -0.9511  1.8836  2.0699
   36bbb     N1  897   4.726   6.941   6.888 -0.5154  0.2140 -0.0196
   36bbb     C3  898   4.699   7.070   6.839  0.9020 -0.0185  0.4590
   36bbb     H5  899   4.770   7.100   6.761  0.4283 -0.6610 -0.2238
   36bbb     H6  900   4.707   7.145   6.919 -1.8058  1.1858 -0.3142
   36bbb     C4  901   4.664   6.909   7.013  0.2169  0.0105  0.5054
   36bbb     H7  902   4.707   6.954   7.103 -0.3836  0.4186  0.5916
   36bbb     H8  903   4.560   6.941   7.005  0.1566 -0.5617 -1.6912
   36bbb     C5  904   4.661   6.763   7.025 -0.1811  0.4153  0.2631
   36bbb     H9  905   4.611   6.718   6.939 -1.7465  0.4019  1.1412
   36bbb    H10  906   4.763   6.722   7.019 -0.8938 -1.3294 -0.5963
   36bbb     C6  907   4.566   7.074   6.771 -0.4589 -0.0414 -0.2906
   36bbb    H11  908   4.574   7.012   6.682  0.2095  2.2305 -1.9018
   36bbb    H12  909   4.484   7.038   6.835  0.0262 -0.2772  0.2024
   36bbb     C7  910   4.590   6.719   7.144 -0.0805 -0.1253  0.6225
   36bbb     C8  911   4.531   7.211   6.728 -1.1074 -0.5253  0.5658
   36bbb     O1  912   4.592   6.783   7.246 -0.1400 -0.3886  0.7205
   36bbb     O2  913   4.606   7.268   6.645 -0.8022 -0.1561 -0.1984
   36bbb     N4  914   5.073   6.867   6.750 -0.2954  0.1217  0.6041
   36bbb    H21  915   5.120   6.869   6.840 -0.1543  2.6534  0.5206
   37bbb     C1  916   5.706   6.751   7.109 -0.6569  0.3438  0.4287
   37bbb     H1  917   5.770   6.816   7.048 -1.7813 -0.1290 -1.2958
   37bbb     H2  918   5.744   6.648   7.115  0.4747  0.7728  0.9731
   37bbb     C2  919   5.567   6.752   7.042 -0.3744  0.0478  0.3404
   37bbb     H3  920   5.494   6.713   7.114 -0.2897  0.8595  0.8814
   37bbb     H4  921   5.536   6.852   7.010  2.9903  1.4835  1.1881
   37bbb     N1  922   5.703   6.811   7.246  0.2414 -0.6729  0.1360
   37bbb     C3  923   5.706   6.713   7.357  0.0701 -0.0667  0.4187
   37bbb     H5  924   5.685   6.763   7.452 -0.8881 -1.3477  0.9042
   37bbb     H6  925   5.806   6.666   7.355 -0.0952 -0.4177  0.3514
   37bbb     C4  926   5.816   6.896   7.269 -0.8566 -0.0662  0.3024
   37bbb     H7  927   5.829   6.907   7.377 -0.8777  1.4852  0.1727
   37bbb     H8  928   5.908   6.856   7.224 -0.2907  2.1921 -0.6715
   37bbb     C5  929   5.792   7.030   7.206  0.0852 -0.5184 -0.0680
   37bbb     H9  930   5.781   7.026   7.097 -1.4399  1.4467 -0.0422
   37bbb    H10  931   5.706   7.076   7.258  1.2426 -0.5739  2.0033
   37bbb     C6  932   5.604   6.599   7.343  0.3511  0.1408  0.1611
   37bbb    H11  933   5.506   6.645   7.359  1.1730  0.9636  3.7797
   37bbb    H12  934   5.621   6.546   7.249 -2.0377  1.0063 -0.8262
   37bbb     C7  935   5.922   7.111   7.218 -1.5810 -0.2717  0.0878
   37bbb     C8  936   5.629   6.500   7.456 -0.8722  0.1609 -0.7066
   37bbb     O1  937   6.029   7.069   7.185 -0.4765 -0.4676  0.3126
   37bbb     O2  938   5.683   6.536   7.555 -0.1570  0.2331 -0.4708
   37bbb     N4  939   5.558   6.675   6.920  0.1026 -0.3898  0.2062
   37bbb    H21  940   5.580   6.715   6.829 -0.3564 -1.0432 -0.2000
   38bbb     C1  941   5.350   9.019   8.312  0.0067  0.1480  0.5973
   38bbb     H1  942   5.303   8.995   8.409 -1.3644 -0.7939 -0.2616
   38bbb     H2  943   5.325   8.934   8.248  0.8542  1.1684 -1.1523
   38bbb     C2  944   5.502   9.022   8.330 -0.2753 -0.6392  0.2642
   38bbb     H3  945   5.515   9.084   8.419 -4.7611  1.7253 -0.4082
   38bbb     H4  946   5.527   8.916   8.347 -2.1250 -0.7322  3.1853
   38bbb     N1  947   5.282   9.139   8.267  0.3877 -0.4682  0.7960
   38bbb     C3  948   5.145   9.115   8.214  0.5234  0.2783 -0.0182
   38bbb     H5  949   5.098   9.204   8.170  0.1437 -1.0522 -2.4910
   38bbb     H6  950   5.083   9.072   8.292 -0.5170  0.7547 -0.5626
   38bbb     C4  951   5.284   9.246   8.363 -0.5262 -0.0304 -0.6018
   38bbb     H7  952   5.200   9.248   8.434  0.4212 -0.4722  0.5764
   38bbb     H8  953   5.369   9.226   8.430 -0.3563  1.7206 -0.2487
   38bbb     C5  954   5.306   9.374   8.285  0.4567 -0.0597 -0.9205
   38bbb     H9  955   5.245   9.385   8.194 -2.1951  1.2697  0.9076
   38bbb    H10  956   5.286   9.457   8.353 -0.3326 -1.0257  0.0525
   38bbb     C6  957   5.144   9.029   8.090  0.5424 -0.1396 -0.2876
   38bbb    H11  958   5.209   9.083   8.021 -0.4788  0.5891 -0.6973
   38bbb    H12  959   5.177   8.927   8.114 -0.3089 -0.4235 -0.2890
   38bbb     C7  960   5.449   9.384   8.241  0.6197  0.6410  1.1628
   38bbb     C8  961   5.003   9.028   8.032 -0.5613 -0.1107 -0.2030
   38bbb     O1  962   5.485   9.340   8.127  0.0354 -0.0331 -0.1575
   38bbb     O2  963   4.976   9.107   7.944  0.1444  0.0945  0.1139
   38bbb     N4  964   5.578   9.087   8.219 -0.4172 -0.1372 -0.1505
   38bbb    H21  965   5.538   9.142   8.144  1.7927 -0.0990 -1.3719
   39bbb     C1  966   5.934   9.830   7.680 -0.7748  0.3423  0.6348
   39bbb     H1  967   5.882   9.753   7.621  1.2163  0.0981 -0.9068
   39bbb     H2  968   6.040   9.805   7.672 -1.0491 -0.2671 -2.1220
   39bbb     C2  969   5.878   9.803   7.826  0.3338  0.3526  0.5991
   39bbb     H3  970   5.891   9.893   7.888 -1.5739  0.5051  0.8503
   39bbb     H4  971   5.769   9.788   7.821  0.0409  2.1611  0.9504
   39bbb     N1  972   5.909   9.964   7.625  0.4081 -0.3265 -0.5101
   39bbb     C3  973   5.980  10.067   7.697 -0.0312  0.5881  0.5572
   39bbb     H5  974   5.969  10.062   7.806  2.1412 -0.3242  0.7971
   39bbb     H6  975   5.946  10.167   7.667 -0.0565  0.9705  1.7920
   39bbb     C4  976   5.768   9.995   7.633  0.2392 -0.6101  0.7769
   39bbb     H7  977   5.705   9.908   7.613  0.8560 -0.5130 -2.1508
   39bbb     H8  978   5.745  10.041   7.730  0.3368  0.2034  0.4266
   39bbb     C5  979   5.727  10.097   7.528 -0.5726 -0.4620  0.4107
   39bbb     H9  980   5.756  10.200   7.549 -0.4504 -0.1177 -1.3334
   39bbb    H10  981   5.778  10.070   7.435 -1.6951  1.4296 -0.8049
   39bbb     C6  982   6.132  10.055   7.659  0.0728 -0.1954  0.5533
   39bbb    H11  983   6.175   9.964   7.702  2.3835  0.8262  0.5381
   39bbb    H12  984   6.137  10.055   7.549  1.9955  2.5963  0.5475
   39bbb     C7  985   5.579  10.107   7.501 -0.8430  0.1042  0.8220
   39bbb     C8  986   6.208  10.171   7.713 -0.1245 -0.0886 -1.1415
   39bbb     O1  987   5.496  10.040   7.563  0.0189  0.4252  0.9179
   39bbb     O2  988   6.166  10.239   7.803 -0.3479 -0.1486 -0.3263
   39bbb     N4  989   5.936   9.686   7.897 -0.1342  0.6057  0.2815
   39bbb    H21  990   6.019   9.644   7.858  1.3944  2.6277  1.1637
   40bbb     C1  991   5.038   8.076   7.843 -0.7845  0.3458  0.1989
   40bbb     H1  992   5.105   8.091   7.928 -1.1499 -1.7084  0.9019
   40bbb     H2  993   5.097   8.040   7.757  2.3247  2.6120  1.1665
   40bbb     C2  994   4.980   8.214   7.806 -0.2121  0.1590 -0.0838
   40bbb     H3  995   4.951   8.189   7.703  1.3268  0.5499 -0.6439
   40bbb     H4  996   4.894   8.251   7.861  0.8897  2.6327  0.0891
   40bbb     N1  997   4.931   7.980   7.876  0.4332 -0.2192  0.1969
   40bbb     C3  998   4.992   7.871   7.950  0.0521  1.0637 -1.2887
   40bbb     H5  999   5.051   7.911   8.033  0.6108  1.1323 -1.7060
   40bbb     H6 1000   5.074   7.823   7.894  1.9937  0.0711  2.1275
   40bbb     C4 1001   4.840   7.943   7.764 -0.2642 -0.2345 -0.3860
   40bbb     H7 1002   4.866   7.991   7.668 -4.2823  0.8158 -1.1084
   40bbb     H8 1003   4.826   7.836   7.745 -1.5246  0.2163 -2.2447
   40bbb     C5 1004   4.701   7.982   7.797  0.6324 -0.3831 -0.3885
   40bbb     H9 1005   4.699   7.987   7.906  1.0479  0.1716 -0.4087
   40bbb    H10 1006   4.671   8.081   7.760 -2.0943 -0.9401  0.0822
   40bbb     C6 1007   4.894   7.764   7.999  0.1209 -0.2529  0.1821
   40bbb    H11 1008   4.802   7.812   8.034  0.7264 -1.0867  3.1888
   40bbb    H12 1009   4.863   7.705   7.912 -1.1497 -0.5123  0.7938
   40bbb     C7 1010   4.598   7.885   7.744 -0.1388 -0.6678 -0.1090
   40bbb     C8 1011   4.952   7.670   8.095  0.0871  0.0416 -0.6921
   40bbb     O1 1012   4.605   7.818   7.644 -0.4403  0.4621 -0.1897
   40bbb     O2 1013   5.041   7.704   8.176  0.6976  0.2710 -0.6065
   40bbb     N4 1014   5.081   8.320   7.785 -0.1845  0.5869  0.2878
   40bbb    H21 1015   5.178   8.292   7.791 -0.7311 -1.2539  1.3869
   41bbb     C1 1016   5.434   8.867   7.041 -0.2043 -0.0048 -0.4872
   41bbb     H1 1017   5.370   8.937   7.096 -0.1027  0.4106 -0.8923
   41bbb     H2 1018   5.383   8.815   6.959  0.2320  1.1739 -1.5403
   41bbb     C2 1019   5.501   8.763   7.140 -0.1409  0.3444  0.0578
   41bbb     H3 1020   5.516   8.667   7.089 -0.0126  0.5384 -0.2765
   41bbb     H4 1021   5.603   8.799   7.160  1.2029 -1.4086 -2.9423
   41bbb     N1 1022   5.540   8.947   6.979  0.1436 -0.5327  0.2398
   41bbb     C3 1023   5.519   8.974   6.831 -0.5428  0.8166  0.2120
   41bbb     H5 1024   5.507   8.880   6.776 -0.6567  0.8759  0.1350
   41bbb     H6 1025   5.608   9.026   6.792 -0.2217  0.3888  0.3595
   41bbb     C4 1026   5.576   9.065   7.062 -0.2035  0.2871 -0.5779
   41bbb     H7 1027   5.513   9.155   7.068  0.9970  1.1169 -0.1278
   41bbb     H8 1028   5.589   9.032   7.165 -0.4630 -1.1403 -0.9812
   41bbb     C5 1029   5.713   9.109   7.018  0.2511  0.3474 -0.3949
   41bbb     H9 1030   5.787   9.029   7.024  0.3010  0.2998 -1.4940
   41bbb    H10 1031   5.728   9.154   6.919  1.2288  1.0644  0.0573
   41bbb     C6 1032   5.400   9.064   6.804 -0.1851  0.0926  0.3798
   41bbb    H11 1033   5.388   9.052   6.696  0.1885 -2.9408  0.5817
   41bbb    H12 1034   5.308   9.020   6.846 -1.0375  0.2175 -1.2586
   41bbb     C7 1035   5.762   9.206   7.121 -0.5660  0.0724  0.8126
   41bbb     C8 1036   5.410   9.212   6.837 -0.2475  0.2887  0.5491
   41bbb     O1 1037   5.692   9.244   7.215 -0.1435  0.1380 -0.2465
   41bbb     O2 1038   5.327   9.274   6.901  0.2874  0.0018  0.4185
   41bbb     N4 1039   5.430   8.734   7.270 -0.2831 -0.0093 -0.0207
   41bbb    H21 1040   5.423   8.634   7.286 -1.8613  0.1677  0.6191
   42bbb     C1 1041   5.636   8.241   6.253 -0.1900  0.3726  0.6759
   42bbb     H1 1042   5.587   8.217   6.348 -3.3181  0.6665 -0.7569
   42bbb     H2 1043   5.728   8.181   6.245 -0.1888  0.4831 -0.2963
   42bbb     C2 1044   5.668   8.389   6.257  0.0260 -0.5378 -0.4613
   42bbb     H3 1045   5.654   8.441   6.162  1.5095  0.5453 -0.1426
   42bbb     H4 1046   5.603   8.437   6.331 -1.1149 -0.3435 -1.5614
   42bbb     N1 1047   5.533   8.204   6.153 -0.1414 -0.0154  0.1536
   42bbb     C3 1048   5.413   8.283   6.180 -0.8440  0.0252  0.1730
   42bbb     H5 1049   5.413   8.342   6.272  0.7048  2.6178 -1.3705
   42bbb     H6 1050   5.328   8.214   6.194 -1.6046  1.0828  0.9487
   42bbb     C4 1051   5.497   8.068   6.144  0.0754 -0.2102 -0.0945
   42bbb     H7 1052   5.480   8.032   6.246 -1.3891  0.6340 -0.0157
   42bbb     H8 1053   5.403   8.053   6.089 -0.9578  2.1460  0.8794
   42bbb     C5 1054   5.604   7.994   6.070  0.2299 -0.3830 -0.2978
   42bbb     H9 1055   5.614   8.031   5.967 -0.4415 -0.9199 -0.5686
   42bbb    H10 1056   5.704   8.011   6.112  0.4904 -2.8500  0.2810
   42bbb     C6 1057   5.387   8.380   6.059 -0.0814  0.5804 -0.4708
   42bbb    H11 1058   5.471   8.449   6.046  0.5188  0.4726  2.2448
   42bbb    H12 1059   5.380   8.321   5.967  1.2288  2.8251 -2.1237
   42bbb     C7 1060   5.572   7.845   6.072  0.7427 -0.2111  0.4868
   42bbb     C8 1061   5.262   8.444   6.097 -0.7447 -0.0697 -0.3773
   42bbb     O1 1062   5.511   7.793   6.161  0.4777 -0.2020 -0.6843
   42bbb     O2 1063   5.157   8.387   6.079 -0.1365 -0.2003  0.0226
   42bbb     N4 1064   5.816   8.408   6.294 -0.3691  0.3453 -0.6922
   42bbb    H21 1065   5.860   8.329   6.340 -0.1714 -0.3617 -2.0541
   43bbb     C1 1066   6.779   8.720   5.851  0.5594  0.6513 -0.1388
   43bbb     H1 1067   6.806   8.626   5.801 -0.2900  0.7911 -0.8998
   43bbb     H2 1068   6.815   8.727   5.954  0.7844 -0.2972 -0.1438
   43bbb     C2 1069   6.625   8.735   5.863 -0.9845 -0.4761 -0.0658
   43bbb     H3 1070   6.604   8.836   5.899  0.5036  0.4446 -1.6180
   43bbb     H4 1071   6.583   8.722   5.763 -0.7602 -1.5651 -0.0271
   43bbb     N1 1072   6.838   8.826   5.773 -0.6080  0.1001  0.6282
   43bbb     C3 1073   6.796   8.830   5.630  0.1169  0.6523  0.1421
   43bbb     H5 1074   6.694   8.790   5.624  0.2089  0.3196  0.7739
   43bbb     H6 1075   6.859   8.770   5.564  0.1413  0.5588  0.2516
   43bbb     C4 1076   6.985   8.821   5.776 -0.0205  0.1094  0.1209
   43bbb     H7 1077   7.023   8.722   5.747  2.3292  0.8499  0.4144
   43bbb     H8 1078   7.028   8.889   5.701  2.1348 -0.5262  0.6922
   43bbb     C5 1079   7.040   8.847   5.913  0.4156  0.0399  0.6196
   43bbb     H9 1080   6.981   8.921   5.968  1.9322  0.3988  1.8602
   43bbb    H10 1081   7.028   8.757   5.975  1.0593 -0.5420 -0.0731
   43bbb     C6 1082   6.781   8.965   5.564 -0.1999 -0.5947  0.1972
   43bbb    H11 1083   6.709   9.019   5.627 -1.2737 -1.4881 -0.2404
   43bbb    H12 1084   6.874   9.023   5.574 -1.4815  1.2990  2.2651
   43bbb     C7 1085   7.179   8.891   5.898  0.2805  0.0126  0.1876
   43bbb     C8 1086   6.740   8.963   5.412 -0.6074  0.6019 -0.0308
   43bbb     O1 1087   7.210   8.998   5.846 -0.2524 -0.1847 -0.4348
   43bbb     O2 1088   6.743   8.854   5.353  0.0192  0.7382 -0.6161
   43bbb     N4 1089   6.562   8.639   5.956 -0.1667  0.2335 -0.1575
   43bbb    H21 1090   6.614   8.593   6.029 -1.0669 -0.6061 -0.0302
   44bbb     C1 1091   6.861   9.992   7.250 -0.1094 -0.3928  0.2323
   44bbb     H1 1092   6.914   9.999   7.154  1.9043  0.6198  1.3584
   44bbb     H2 1093   6.941   9.946   7.310 -0.2623  0.1402  0.8495
   44bbb     C2 1094   6.741   9.885   7.255  0.4864 -0.0016 -0.5217
   44bbb     H3 1095   6.733   9.840   7.355  3.5611  0.0633 -0.1438
   44bbb     H4 1096   6.651   9.943   7.234  0.0907 -0.6865 -0.7440
   44bbb     N1 1097   6.824  10.125   7.304  1.4351  0.3696  0.0323
   44bbb     C3 1098   6.923  10.225   7.270 -0.1030  0.1329 -0.0851
   44bbb     H5 1099   6.951  10.226   7.164  0.6038 -1.9341  0.0376
   44bbb     H6 1100   7.010  10.203   7.333 -0.3604  0.1436  0.2808
   44bbb     C4 1101   6.784  10.119   7.450  0.4667 -0.8785 -0.2500
   44bbb     H7 1102   6.747  10.215   7.488  4.0267  0.4830  0.1219
   44bbb     H8 1103   6.698  10.051   7.453 -0.1144 -0.0969  1.9864
   44bbb     C5 1104   6.893  10.070   7.550  0.0578  0.1532 -0.2702
   44bbb     H9 1105   6.923   9.966   7.532  0.4324  0.4276 -1.3614
   44bbb    H10 1106   6.982  10.134   7.546  0.4952 -0.4734 -1.2026
   44bbb     C6 1107   6.881  10.369   7.300  0.0993 -0.1651  0.7515
   44bbb    H11 1108   6.777  10.388   7.275  0.7706  0.9479 -1.3865
   44bbb    H12 1109   6.892  10.379   7.409  2.0334  0.9221  0.5086
   44bbb     C7 1110   6.841  10.081   7.683  0.2666  0.2638 -0.6702
   44bbb     C8 1111   6.971  10.474   7.233  0.0958  0.0317 -0.8573
   44bbb     O1 1112   6.755  10.000   7.719 -0.0401 -0.0511 -0.7403
   44bbb     O2 1113   6.952  10.513   7.122  0.2823  0.1403 -0.0213
   44bbb     N4 1114   6.765   9.772   7.165  0.6185 -0.7232  0.1397
   44bbb    H21 1115   6.828   9.791   7.088 -1.2055  2.1669 -0.8098
   45bbb     C1 1116   7.311   9.245   6.617 -0.7323 -0.1082  0.1114
   45bbb     H1 1117   7.349   9.190   6.531 -0.2693 -1.1553  0.9622
   45bbb     H2 1118   7.280   9.177   6.698  1.1961 -1.0757  0.0920
   45bbb     C2 1119   7.184   9.321   6.568 -0.2391 -0.3000  0.0257
   45bbb     H3 1120   7.215   9.423   6.539  1.8851 -0.7005  0.7308
   45bbb     H4 1121   7.149   9.273   6.476 -2.3782  2.7492 -0.9355
   45bbb     N1 1122   7.425   9.337   6.656 -0.0204  0.2777 -0.2687
   45bbb     C3 1123   7.553   9.266   6.671 -0.4303  0.2961  0.1286
   45bbb     H5 1124   7.543   9.188   6.747  1.9677  0.5857  0.8095
   45bbb     H6 1125   7.628   9.335   6.711  0.3246 -1.8146  2.5977
   45bbb     C4 1126   7.384   9.413   6.777  0.3865  0.2109  0.6832
   45bbb     H7 1127   7.279   9.443   6.782  0.4781  0.3112  3.0027
   45bbb     H8 1128   7.399   9.348   6.864 -0.6234 -3.1289 -1.4934
   45bbb     C5 1129   7.462   9.546   6.786 -0.1866  0.0592 -0.3447
   45bbb     H9 1130   7.570   9.538   6.769 -0.5662  0.8707 -3.9862
   45bbb    H10 1131   7.424   9.620   6.715 -0.0645  1.7381  1.2538
   45bbb     C6 1132   7.612   9.201   6.545 -0.9269  0.2366 -0.2195
   45bbb    H11 1133   7.547   9.122   6.507 -0.0078 -1.2689  1.2349
   45bbb    H12 1134   7.628   9.268   6.459  1.7974  0.7495  0.6071
   45bbb     C7 1135   7.442   9.597   6.932 -0.7494  0.3373  0.6489
   45bbb     C8 1136   7.749   9.144   6.577 -0.3577 -0.3720  0.4723
   45bbb     O1 1137   7.507   9.543   7.024 -0.2561 -0.2622 -0.0998
   45bbb     O2 1138   7.854   9.200   6.558 -0.1047  0.1845 -0.6294
   45bbb     N4 1139   7.076   9.322   6.667 -0.5999 -0.4415  0.0109
   45bbb    H21 1140   7.103   9.268   6.748  0.4484 -0.1874 -0.1606
   46bbb     C1 1141   5.622   7.161   5.136  0.1028 -0.2622  0.0065
   46bbb     H1 1142   5.578   7.231   5.207  0.4533 -0.1107  0.0752
   46bbb     H2 1143   5.712   7.125   5.188  1.1578  2.0104 -0.1597
   46bbb     C2 1144   5.663   7.248   5.016  1.6431 -0.0186 -0.4552
   46bbb     H3 1145   5.738   7.323   5.042  0.4721  0.7308  0.9095
   46bbb     H4 1146   5.695   7.190   4.928  0.1445  1.4884 -2.1005
   46bbb     N1 1147   5.529   7.052   5.094  0.3221  0.1949  0.2227
   46bbb     C3 1148   5.406   7.059   5.166 -0.1957 -0.2574 -0.4709
   46bbb     H5 1149   5.375   7.165   5.163 -1.7202 -0.7004 -1.1947
   46bbb     H6 1150   5.413   7.037   5.273 -0.8846  0.6496 -0.2229
   46bbb     C4 1151   5.597   6.920   5.108  0.4947 -0.3706 -0.2359
   46bbb     H7 1152   5.645   6.918   5.207 -0.9957  0.4491  0.5370
   46bbb     H8 1153   5.522   6.841   5.100  0.2744 -0.0885 -1.1282
   46bbb     C5 1154   5.706   6.888   5.006 -0.4272 -0.9219  0.6054
   46bbb     H9 1155   5.676   6.920   4.905 -3.6577 -2.3368  0.9934
   46bbb    H10 1156   5.801   6.938   5.032 -0.4442 -0.9306  0.6811
   46bbb     C6 1157   5.293   6.984   5.104  0.8011 -0.4024 -0.7751
   46bbb    H11 1158   5.200   7.042   5.113  0.2408 -1.4314  0.4896
   46bbb    H12 1159   5.307   6.965   4.997 -0.9346 -1.3277 -0.8852
   46bbb     C7 1160   5.724   6.739   5.009  0.8026 -0.5587  0.5669
   46bbb     C8 1161   5.271   6.858   5.188  0.2639 -0.8424 -0.4711
   46bbb     O1 1162   5.720   6.673   5.112 -0.0793 -0.6054  0.1160
   46bbb     O2 1163   5.286   6.850   5.310  0.1069  0.2793  0.1438
   46bbb     N4 1164   5.540   7.319   4.972 -0.3936 -0.2574  0.1690
   46bbb    H21 1165   5.463   7.327   5.037 -0.1521  0.7137  0.3398
   47bbb     C1 1166   4.615   7.790   5.163  0.1254  1.0417 -0.6340
   47bbb     H1 1167   4.599   7.863   5.083 -2.7107  1.6808  0.4024
   47bbb     H2 1168   4.576   7.822   5.261  2.8713 -0.6293  1.1792
   47bbb     C2 1169   4.766   7.795   5.194  0.3480 -0.6748  0.5287
   47bbb     H3 1170   4.774   7.897   5.234 -1.3003 -0.8149  1.2939
   47bbb     H4 1171   4.792   7.740   5.286  1.6454  1.0242  1.2163
   47bbb     N1 1172   4.576   7.652   5.131 -0.4394 -0.5953 -0.3953
   47bbb     C3 1173   4.457   7.640   5.046  0.2406 -0.3280  0.1274
   47bbb     H5 1174   4.375   7.706   5.079 -1.5452 -1.8059 -1.1810
   47bbb     H6 1175   4.415   7.539   5.036  1.7952 -1.1481  1.3950
   47bbb     C4 1176   4.564   7.570   5.253  0.8624  0.1859 -0.4980
   47bbb     H7 1177   4.642   7.591   5.327 -0.7960  1.8467  0.8909
   47bbb     H8 1178   4.470   7.591   5.306  0.8699 -0.0255 -0.3965
   47bbb     C5 1179   4.568   7.423   5.218 -0.3060  0.0141  0.5663
   47bbb     H9 1180   4.491   7.397   5.144  0.1388  1.3287 -0.4100
   47bbb    H10 1181   4.668   7.402   5.179 -0.6261  0.5165 -0.5578
   47bbb     C6 1182   4.480   7.688   4.905 -0.1636  0.0390 -0.1350
   47bbb    H11 1183   4.407   7.656   4.829  2.6199 -1.0602 -2.5570
   47bbb    H12 1184   4.486   7.797   4.908  0.1473  0.0196  3.0094
   47bbb     C7 1185   4.542   7.337   5.334  0.1949  0.4685  0.6252
   47bbb     C8 1186   4.608   7.630   4.858  0.1236  0.0311  0.0612
   47bbb     O1 1187   4.584   7.351   5.446  0.3726 -0.7010 -0.2899
   47bbb     O2 1188   4.699   7.710   4.842  0.1297 -0.0548 -0.7932
   47bbb     N4 1189   4.854   7.769   5.078 -0.5288 -0.2982  0.1755
   47bbb    H21 1190   4.811   7.764   4.986  1.6806 -1.4425 -0.8748
   48bbb     C1 1191   6.685   8.322   5.858 -0.2007 -0.5591  0.5446
   48bbb     H1 1192   6.693   8.432   5.856  2.1324 -0.6817 -1.3661
   48bbb     H2 1193   6.710   8.280   5.760 -1.0219 -1.3838  0.6809
   48bbb     C2 1194   6.541   8.274   5.879  0.3624  0.2433  0.0305
   48bbb     H3 1195   6.532   8.165   5.879  0.3305  0.1711  3.2969
   48bbb     H4 1196   6.506   8.315   5.974  1.0702 -0.1835  0.4830
   48bbb     N1 1197   6.784   8.274   5.954  0.1294 -0.2909 -0.5515
   48bbb     C3 1198   6.908   8.348   5.926  0.4051  0.1213  0.3804
   48bbb     H5 1199   6.895   8.457   5.915  0.2038  0.0213 -0.4335
   48bbb     H6 1200   6.959   8.325   5.832 -0.3037  2.3112 -0.6114
   48bbb     C4 1201   6.798   8.128   5.966 -0.3785 -0.1823  0.0361
   48bbb     H7 1202   6.746   8.070   5.889  0.5513  0.5439 -1.1621
   48bbb     H8 1203   6.905   8.108   5.961 -0.5408 -1.1059  0.0860
   48bbb     C5 1204   6.763   8.090   6.108  0.8079  0.3064 -0.1449
   48bbb     H9 1205   6.822   8.146   6.182 -0.7802  0.5781  0.9724
   48bbb    H10 1206   6.653   8.097   6.115  0.5970 -0.7992 -1.8152
   48bbb     C6 1207   7.014   8.329   6.036 -0.1906 -0.0972 -0.1087
   48bbb    H11 1208   6.967   8.291   6.128  0.5543 -2.0563 -0.4769
   48bbb    H12 1209   7.086   8.250   6.010  1.9128  1.9071 -0.7133
   48bbb     C7 1210   6.797   7.944   6.119  0.4239 -0.4730  0.4789
   48bbb     C8 1211   7.076   8.460   6.078  0.1546  1.4090  0.5216
   48bbb     O1 1212   6.761   7.855   6.050 -0.0040 -0.7078  0.7308
   48bbb     O2 1213   7.163   8.506   6.011 -0.4059 -0.2087  0.1420
   48bbb     N4 1214   6.459   8.333   5.776  0.0174  1.0038  0.3462
   48bbb    H21 1215   6.476   8.404   5.706  0.4704 -0.9028 -1.5894
   49bbb     C1 1216   6.407   8.051   5.150  0.4398  0.2334 -0.3606
   49bbb     H1 1217   6.455   8.070   5.053 -3.7551  1.3504 -2.4877
   49bbb     H2 1218   6.422   7.951   5.191 -0.2270  0.6703  1.0202
   49bbb     C2 1219   6.257   8.062   5.111 -1.4385 -0.4449 -0.5044
   49bbb     H3 1220   6.247   8.156   5.056 -0.1484 -0.4889 -0.8345
   49bbb     H4 1221   6.232   7.978   5.045  1.2631 -0.4622 -1.6297
   49bbb     N1 1222   6.440   8.150   5.253 -0.3779  0.6244  0.5517
   49bbb     C3 1223   6.532   8.109   5.356  0.1611  0.0756  0.0550
   49bbb     H5 1224   6.540   8.187   5.433  0.6126 -0.5428  0.6623
   49bbb     H6 1225   6.633   8.090   5.318  0.6133  0.0363  1.2238
   49bbb     C4 1226   6.457   8.292   5.225  0.1095 -0.5063 -0.1255
   49bbb     H7 1227   6.364   8.330   5.182 -0.6447  1.7911  3.1088
   49bbb     H8 1228   6.475   8.342   5.321  2.9873 -0.0801 -0.7784
   49bbb     C5 1229   6.566   8.319   5.125  0.2086 -0.6255 -0.3717
   49bbb     H9 1230   6.663   8.277   5.157 -0.2924 -3.5456 -2.3069
   49bbb    H10 1231   6.542   8.258   5.037  2.4704 -3.5397  0.8226
   49bbb     C6 1232   6.485   7.986   5.433 -0.3562  0.0572 -0.7476
   49bbb    H11 1233   6.380   7.999   5.462 -0.4359 -2.3152  0.3037
   49bbb    H12 1234   6.485   7.893   5.374 -0.8065  0.3513 -1.2174
   49bbb     C7 1235   6.569   8.462   5.081  0.2241 -0.6907  0.1142
   49bbb     C8 1236   6.567   7.956   5.557  0.1878 -0.2714  0.1603
   49bbb     O1 1237   6.584   8.561   5.150  0.1208 -0.6816 -0.1001
   49bbb     O2 1238   6.629   8.039   5.620  0.0579 -0.0592  1.0062
   49bbb     N4 1239   6.172   8.067   5.235 -0.5788  0.8611 -0.0175
   49bbb    H21 1240   6.211   8.118   5.313  1.7286 -0.5570 -0.1303
   50bbb     C1 1241   3.452   8.473   6.314  0.8399  0.5102  0.6489
   50bbb     H1 1242   3.379   8.503   6.239  0.3469  0.5988  1.1607
   50bbb     H2 1243   3.545   8.531   6.305  1.1857  0.2205  2.0708
   50bbb     C2 1244   3.490   8.326   6.274 -0.3888 -0.5523 -0.1994
   50bbb     H3 1245   3.406   8.256   6.276 -0.2482 -0.7129  1.4041
   50bbb     H4 1246   3.529   8.331   6.172  1.3623  0.8803  0.4824
   50bbb     N1 1247   3.405   8.490   6.452 -0.2117  0.8686  0.3731
   50bbb     C3 1248   3.285   8.412   6.483  0.0500  0.3901  0.9933
   50bbb     H5 1249   3.287   8.310   6.443  0.9785  0.5634  0.5756
   50bbb     H6 1250   3.191   8.460   6.452 -1.0354 -2.9134 -1.3933
   50bbb     C4 1251   3.380   8.628   6.490 -0.0659 -0.5012  0.7382
   50bbb     H7 1252   3.322   8.666   6.406  1.7216  2.2438  0.6264
   50bbb     H8 1253   3.307   8.642   6.570 -0.3027  2.7564  0.0571
   50bbb     C5 1254   3.512   8.704   6.516  0.4918 -0.1849 -0.2705
   50bbb     H9 1255   3.560   8.655   6.602 -0.9693 -0.1701  0.5694
   50bbb    H10 1256   3.576   8.698   6.427  0.4780  0.2539 -0.3120
   50bbb     C6 1257   3.289   8.392   6.632 -0.0684 -0.3131 -0.4334
   50bbb    H11 1258   3.385   8.348   6.660 -0.4907  0.5074  2.6591
   50bbb    H12 1259   3.272   8.485   6.688  1.9744 -0.4308  0.4457
   50bbb     C7 1260   3.481   8.851   6.546 -0.9691 -0.4813 -0.0735
   50bbb     C8 1261   3.170   8.305   6.665 -0.7742  0.2323 -0.5126
   50bbb     O1 1262   3.371   8.900   6.531 -0.1452  0.5102 -0.1292
   50bbb     O2 1263   3.068   8.350   6.711  0.1857 -0.1394  0.5966
   50bbb     N4 1264   3.585   8.262   6.368 -0.1381 -0.0686 -0.0369
   50bbb    H21 1265   3.631   8.308   6.446  1.3616 -0.3472 -0.7108
   51bbb     C1 1266   4.346   8.111   6.967  0.4326 -0.1928  0.3754
   51bbb     H1 1267   4.423   8.153   6.901 -1.5445  1.6011 -0.9146
   51bbb     H2 1268   4.349   8.003   6.952 -1.3312 -0.1917 -0.1450
   51bbb     C2 1269   4.212   8.171   6.936  0.0960  0.2265 -0.1655
   51bbb     H3 1270   4.137   8.140   7.009  1.7278 -0.2965  1.3845
   51bbb     H4 1271   4.210   8.279   6.954  1.3328  0.1642  0.5021
   51bbb     N1 1272   4.404   8.154   7.092  0.6803 -0.5015 -0.1346
   51bbb     C3 1273   4.434   8.302   7.103 -0.1378  0.0175  0.4701
   51bbb     H5 1274   4.343   8.362   7.122 -1.1804 -0.1027 -3.2578
   51bbb     H6 1275   4.473   8.334   7.005 -1.1035 -1.6272 -0.4999
   51bbb     C4 1276   4.343   8.101   7.211 -0.4332 -0.1294  0.7174
   51bbb     H7 1277   4.349   8.180   7.287  0.2940  0.3092  0.2085
   51bbb     H8 1278   4.237   8.087   7.185  0.0358 -3.3819  0.0611
   51bbb     C5 1279   4.416   7.972   7.237 -0.7748 -0.0602 -0.6535
   51bbb     H9 1280   4.355   7.921   7.312 -0.8993  1.5164  0.3553
   51bbb    H10 1281   4.421   7.910   7.147 -3.3335 -0.2267 -0.7307
   51bbb     C6 1282   4.537   8.318   7.207  0.2968  0.2696  0.1338
   51bbb    H11 1283   4.486   8.308   7.303  4.4941 -0.3532  2.5457
   51bbb    H12 1284   4.614   8.242   7.189 -0.8103 -0.5107 -1.5112
   51bbb     C7 1285   4.561   7.979   7.298  0.2756  0.0577  0.2154
   51bbb     C8 1286   4.593   8.458   7.198  0.2101  0.6604 -0.1594
   51bbb     O1 1287   4.593   8.077   7.365 -0.3958  0.5245  0.0857
   51bbb     O2 1288   4.555   8.541   7.116  0.6794 -0.3479  0.0849
   51bbb     N4 1289   4.178   8.146   6.792  0.5348 -1.0746 -0.3317
   51bbb    H21 1290   4.190   8.209   6.714  0.5811 -2.6124 -1.6226
   52bbb     C1 1291   5.037   7.336   5.595 -0.2665  0.2153 -0.2246
   52bbb     H1 1292   5.035   7.247   5.659 -0.3879 -0.5541 -1.2941
   52bbb     H2 1293   5.139   7.374   5.606 -0.5638  0.6400  1.4794
   52bbb     C2 1294   4.931   7.441   5.647 -0.3015  0.8739 -0.2630
   52bbb     H3 1295   4.967   7.472   5.745 -1.4839  0.4694  0.3206
   52bbb     H4 1296   4.945   7.531   5.587  1.6020  0.0515 -1.1490
   52bbb     N1 1297   5.006   7.296   5.458  0.0466  0.0269 -0.7438
   52bbb     C3 1298   5.120   7.320   5.372  0.3831  0.3680  0.3528
   52bbb     H5 1299   5.120   7.247   5.291  0.4907 -0.2232  0.8816
   52bbb     H6 1300   5.217   7.302   5.420 -0.4210  0.5557  2.1251
   52bbb     C4 1301   4.954   7.166   5.447 -0.0430  0.4178  0.1727
   52bbb     H7 1302   5.034   7.091   5.452  0.5770  1.1725  2.3164
   52bbb     H8 1303   4.885   7.147   5.530 -1.2257  3.5493  0.0362
   52bbb     C5 1304   4.873   7.156   5.317 -0.5676  0.3620  0.3028
   52bbb     H9 1305   4.794   7.232   5.313 -0.1627  0.8285  0.9082
   52bbb    H10 1306   4.930   7.174   5.225  0.7991  1.6407  1.3385
   52bbb     C6 1307   5.107   7.463   5.321  0.4160  0.5477 -0.0226
   52bbb    H11 1308   5.044   7.461   5.232  1.9110 -0.5386 -1.1232
   52bbb    H12 1309   5.082   7.547   5.386  2.3044  1.5231 -0.4805
   52bbb     C7 1310   4.814   7.016   5.315  0.5084 -0.3004  0.3079
   52bbb     C8 1311   5.244   7.492   5.268 -0.0286 -0.0990 -0.1691
   52bbb     O1 1312   4.831   6.925   5.395 -0.1364 -0.1682 -0.1170
   52bbb     O2 1313   5.300   7.426   5.188 -0.3757 -0.3173 -0.0111
   52bbb     N4 1314   4.788   7.397   5.660  0.4781  0.8529  0.3215
   52bbb    H21 1315   4.738   7.351   5.585  1.2407 -0.3010  0.5048
   53bbb     C1 1316   4.272   6.671   5.972  0.4092 -0.5301 -0.0169
   53bbb     H1 1317   4.290   6.589   6.043  0.3447 -0.2311  0.3516
   53bbb     H2 1318   4.357   6.654   5.905  0.0354 -0.5471 -0.4917
   53bbb     C2 1319   4.305   6.806   6.037 -0.5954  0.0278  0.3413
   53bbb     H3 1320   4.230   6.839   6.110 -0.1892  0.0665  0.7451
   53bbb     H4 1321   4.397   6.792   6.096 -1.2139  0.4002  1.4353
   53bbb     N1 1322   4.146   6.656   5.903 -0.0287  0.3157  0.3508
   53bbb     C3 1323   4.026   6.698   5.965  0.8518  0.3927 -0.4086
   53bbb     H5 1324   4.047   6.752   6.058  2.2151 -1.2240  0.2763
   53bbb     H6 1325   3.964   6.609   5.987  1.8099  0.0667  1.1350
   53bbb     C4 1326   4.114   6.540   5.821 -0.8193  0.7599  0.3941
   53bbb     H7 1327   4.064   6.461   5.878 -0.8866  2.4015  2.7766
   53bbb     H8 1328   4.034   6.562   5.750 -0.9912  0.5793  0.5322
   53bbb     C5 1329   4.231   6.489   5.730  0.6111 -0.0377 -0.2981
   53bbb     H9 1330   4.278   6.572   5.674 -1.6147  1.5368  0.0489
   53bbb    H10 1331   4.300   6.441   5.801 -0.0889 -0.8460 -0.1581
   53bbb     C6 1332   3.947   6.799   5.876  0.4152  0.1523  0.1104
   53bbb    H11 1333   4.006   6.882   5.836 -1.5039  1.2989 -0.4596
   53bbb    H12 1334   3.900   6.751   5.789 -0.6505  0.2763  0.6021
   53bbb     C7 1335   4.172   6.388   5.632  0.3407 -0.0678 -0.2690
   53bbb     C8 1336   3.832   6.854   5.953  0.0033 -0.4666  0.9910
   53bbb     O1 1337   4.155   6.410   5.517  0.0912 -0.1137  0.2163
   53bbb     O2 1338   3.719   6.814   5.945 -0.2005 -0.0229 -0.1131
   53bbb     N4 1339   4.330   6.921   5.948 -0.2620  0.0399 -0.1675
   53bbb    H21 1340   4.417   6.946   5.904 -0.3106 -4.0107 -3.1448
   54bbb     C1 1341   4.286   8.480   5.491 -0.3432 -0.2130 -1.0056
   54bbb     H1 1342   4.186   8.517   5.463  0.0984  1.9898  0.0797
   54bbb     H2 1343   4.270   8.376   5.522 -0.3717  0.2642  0.6748
   54bbb     C2 1344   4.330   8.560   5.621 -0.0976  0.1062 -0.0668
   54bbb     H3 1345   4.244   8.534   5.684  0.0511 -1.4173 -0.4364
   54bbb     H4 1346   4.427   8.525   5.659 -0.0550  0.8350  0.4991
   54bbb     N1 1347   4.380   8.484   5.376 -0.6600 -0.2461 -0.3580
   54bbb     C3 1348   4.314   8.404   5.272  0.0187 -0.0721 -0.0566
   54bbb     H5 1349   4.247   8.327   5.310 -2.7257  1.2625 -1.8453
   54bbb     H6 1350   4.387   8.346   5.214  0.4485 -1.1251  1.4825
   54bbb     C4 1351   4.517   8.435   5.411 -0.3296  0.0169  1.1805
   54bbb     H7 1352   4.547   8.485   5.504 -3.4753  1.8248  1.3683
   54bbb     H8 1353   4.518   8.327   5.432 -0.4230 -0.0730  0.7344
   54bbb     C5 1354   4.612   8.469   5.300 -0.0635 -0.0241 -0.0978
   54bbb     H9 1355   4.561   8.436   5.208 -0.4004  1.0813 -0.3260
   54bbb    H10 1356   4.612   8.579   5.307  0.8589  0.0637 -1.1507
   54bbb     C6 1357   4.231   8.495   5.187  0.4473 -0.3467  0.3193
   54bbb    H11 1358   4.168   8.430   5.125  1.9651 -0.7700 -0.8174
   54bbb    H12 1359   4.165   8.563   5.243  0.9155  0.5564 -0.1969
   54bbb     C7 1360   4.758   8.424   5.309  0.4660  0.1907 -0.4507
   54bbb     C8 1361   4.310   8.545   5.072 -0.3450 -0.2761 -0.3929
   54bbb     O1 1362   4.843   8.509   5.316 -0.4825  0.5022  0.1769
   54bbb     O2 1363   4.338   8.486   4.969  0.3206  0.1742 -0.0945
   54bbb     N4 1364   4.343   8.704   5.599 -0.0526  0.4736 -0.3944
   54bbb    H21 1365   4.348   8.745   5.506 -1.8424 -2.6019 -2.0186
   55bbb     C1 1366   3.693   9.492   5.651  0.0048 -0.0342  0.5807
   55bbb     H1 1367   3.775   9.562   5.629  2.7444 -2.5902  1.9424
   55bbb     H2 1368   3.605   9.555   5.666  1.3503  2.1482 -0.2046
   55bbb     C2 1369   3.732   9.411   5.774 -0.2467 -1.0624  0.3430
   55bbb     H3 1370   3.755   9.487   5.849  1.1590  0.5692 -1.6328
   55bbb     H4 1371   3.636   9.364   5.801  0.4502 -1.3247  2.5698
   55bbb     N1 1372   3.681   9.399   5.539 -0.2162 -0.3089 -0.1611
   55bbb     C3 1373   3.555   9.435   5.470 -0.6819  0.0011  0.1539
   55bbb     H5 1374   3.555   9.393   5.369  0.0394 -0.6501  0.4188
   55bbb     H6 1375   3.559   9.545   5.459  0.4937 -0.0502 -0.1649
   55bbb     C4 1376   3.789   9.408   5.445 -0.1770 -0.3390  0.2617
   55bbb     H7 1377   3.780   9.493   5.377 -0.5266  0.0011  0.7262
   55bbb     H8 1378   3.882   9.419   5.502 -2.0643  0.1285  3.5138
   55bbb     C5 1379   3.805   9.278   5.368 -0.8117 -0.3180 -0.1649
   55bbb     H9 1380   3.808   9.185   5.427  1.7689  1.0337  2.0733
   55bbb    H10 1381   3.726   9.280   5.292  0.3095  0.9839 -1.3625
   55bbb     C6 1382   3.431   9.395   5.547  0.4106 -0.1074  0.4097
   55bbb    H11 1383   3.433   9.286   5.557  0.0645 -0.1563 -0.0142
   55bbb    H12 1384   3.423   9.452   5.640 -0.7380  2.4582 -1.1341
   55bbb     C7 1385   3.929   9.288   5.283  0.1710 -0.7652 -0.2387
   55bbb     C8 1386   3.312   9.434   5.470  0.4223 -0.5884 -0.2862
   55bbb     O1 1387   3.928   9.317   5.162 -0.2012  0.1368  0.0374
   55bbb     O2 1388   3.304   9.444   5.348  0.5101  0.5865 -0.0642
   55bbb     N4 1389   3.845   9.316   5.770 -0.5063 -0.6014  0.8151
   55bbb    H21 1390   3.824   9.226   5.729 -1.3263 -0.0403 -0.0381
   56bbb     C1 1391   6.251   9.583   5.462  0.0647 -1.1895  0.7619
   56bbb     H1 1392   6.269   9.681   5.417  0.1050 -1.2653  0.6113
   56bbb     H2 1393   6.154   9.563   5.414  0.8140 -0.2448 -1.2387
   56bbb     C2 1394   6.216   9.606   5.613  0.0376  0.5136 -0.3096
   56bbb     H3 1395   6.205   9.504   5.652  0.7833  0.1702 -0.9889
   56bbb     H4 1396   6.307   9.648   5.657  0.3214 -0.8337  0.4575
   56bbb     N1 1397   6.355   9.486   5.422 -0.4069  0.2376 -0.4279
   56bbb     C3 1398   6.365   9.477   5.274  0.8206  0.1122  0.5200
   56bbb     H5 1399   6.470   9.475   5.242  0.9910  2.2270  0.7712
   56bbb     H6 1400   6.324   9.568   5.228  2.0437 -0.4576 -1.8640
   56bbb     C4 1401   6.482   9.532   5.485  0.1502 -0.3244  0.2975
   56bbb     H7 1402   6.561   9.520   5.409  0.6583  3.8237 -0.0202
   56bbb     H8 1403   6.475   9.641   5.496 -0.9439 -0.6365  3.6071
   56bbb     C5 1404   6.512   9.455   5.617 -0.5316  0.8144  0.0448
   56bbb     H9 1405   6.608   9.490   5.657  0.0799  0.4615 -1.0496
   56bbb    H10 1406   6.444   9.469   5.701  0.9966  1.1264  1.2789
   56bbb     C6 1407   6.284   9.358   5.219  0.5378 -0.3690 -0.6662
   56bbb    H11 1408   6.315   9.265   5.267  0.0303  0.6692  1.8628
   56bbb    H12 1409   6.175   9.375   5.219  0.5592 -0.1998 -1.4527
   56bbb     C7 1410   6.523   9.310   5.593  0.5593 -0.4648 -0.1272
   56bbb     C8 1411   6.332   9.334   5.081  0.7249  0.3762 -0.5198
   56bbb     O1 1412   6.634   9.260   5.586  0.9002 -0.4239  0.2841
   56bbb     O2 1413   6.388   9.411   5.008 -0.2967 -0.2826 -0.1409
   56bbb     N4 1414   6.102   9.682   5.636 -0.0217  0.0664  0.4245
   56bbb    H21 1415   6.118   9.774   5.675 -0.9885 -0.2318  1.5922
   57bbb     C1 1416   5.693  10.280   5.034 -0.3442  0.0355  0.6806
   57bbb     H1 1417   5.657  10.366   4.976 -0.4341 -0.5936 -0.2381
   57bbb     H2 1418   5.631  10.199   4.992 -2.4786  0.5265  2.6892
   57bbb     C2 1419   5.657  10.297   5.190 -0.0392  0.3480 -1.0869
   57bbb     H3 1420   5.680  10.400   5.221 -2.1506  0.8087 -0.9314
   57bbb     H4 1421   5.551  10.281   5.212  0.0439  1.7273  0.6061
   57bbb     N1 1422   5.835  10.245   5.022  0.3219 -0.0877  0.5278
   57bbb     C3 1423   5.906  10.375   5.032  0.1462  0.2127  0.4384
   57bbb     H5 1424   5.841  10.444   5.088 -0.3138  3.7994 -3.9669
   57bbb     H6 1425   5.925  10.420   4.934 -0.0226 -3.1635 -1.2871
   57bbb     C4 1426   5.874  10.193   4.888  0.0676  0.5175 -0.4508
   57bbb     H7 1427   5.840  10.267   4.815 -0.0134  0.7654 -0.1637
   57bbb     H8 1428   5.983  10.190   4.885  0.0442 -1.6728 -2.4732
   57bbb     C5 1429   5.817  10.050   4.869 -0.0542 -0.3122  0.3353
   57bbb     H9 1430   5.823   9.986   4.958 -0.4953 -0.0088  0.5873
   57bbb    H10 1431   5.714  10.050   4.834  0.4226  0.7194 -1.1818
   57bbb     C6 1432   6.037  10.359   5.106 -0.0758  0.2874  0.3559
   57bbb    H11 1433   6.116  10.317   5.042 -0.4087 -0.5650  0.4896
   57bbb    H12 1434   6.073  10.459   5.134  0.3167  0.4098 -0.5520
   57bbb     C7 1435   5.894   9.973   4.763 -0.3675 -0.6757 -0.2088
   57bbb     C8 1436   6.019  10.297   5.238 -0.7701  0.0636  0.4723
   57bbb     O1 1437   5.983  10.019   4.698 -0.0308  0.4860  0.4609
   57bbb     O2 1438   6.002  10.356   5.345  0.2672 -0.3937  0.1154
   57bbb     N4 1439   5.729  10.198   5.275 -0.2954 -0.3833 -0.1319
   57bbb    H21 1440   5.799  10.135   5.238 -0.3743 -0.0362 -0.8739
   58bbb     C1 1441   4.482   8.177   6.530  0.1316  0.3099  0.0038
   58bbb     H1 1442   4.541   8.139   6.446 -2.2480  0.9198 -2.0612
   58bbb     H2 1443   4.383   8.139   6.500  0.7689 -1.5234  0.1065
   58bbb     C2 1444   4.492   8.328   6.534  1.0453 -0.4008 -0.7190
   58bbb     H3 1445   4.586   8.378   6.507  0.3143  0.5231 -1.6763
   58bbb     H4 1446   4.425   8.373   6.459 -0.3345 -1.2499 -0.0425
   58bbb     N1 1447   4.523   8.113   6.654  0.0783 -0.2417  0.0983
   58bbb     C3 1448   4.665   8.134   6.679  0.2661 -0.5110  1.2067
   58bbb     H5 1449   4.704   8.226   6.634  1.1742  0.1917  3.2995
   58bbb     H6 1450   4.727   8.057   6.631  0.3506  0.1039  0.3099
   58bbb     C4 1451   4.479   7.971   6.663  0.1143  0.5243 -0.4611
   58bbb     H7 1452   4.504   7.936   6.764  0.0456  1.4514 -0.1084
   58bbb     H8 1453   4.372   7.974   6.641  0.1901  0.7505 -0.8077
   58bbb     C5 1454   4.546   7.883   6.550  0.1798 -0.5357 -0.2561
   58bbb     H9 1455   4.536   7.925   6.449  1.5537  1.4955  0.3757
   58bbb    H10 1456   4.654   7.881   6.569  0.3296 -0.1148 -1.0367
   58bbb     C6 1457   4.685   8.149   6.826  0.1036 -0.0916  0.1695
   58bbb    H11 1458   4.619   8.225   6.870 -1.8817 -1.4344 -0.3001
   58bbb    H12 1459   4.656   8.059   6.882 -0.4001 -0.4088 -0.5815
   58bbb     C7 1460   4.501   7.741   6.545 -0.8062 -1.2671  0.6801
   58bbb     C8 1461   4.828   8.180   6.840  0.8173  0.3636  0.0753
   58bbb     O1 1462   4.434   7.688   6.635 -0.2953 -0.3177  0.2556
   58bbb     O2 1463   4.907   8.093   6.861 -0.7421 -0.2951 -0.5475
   58bbb     N4 1464   4.444   8.395   6.659 -0.1072  0.0550 -0.2676
   58bbb    H21 1465   4.510   8.428   6.728  0.5384 -0.6161 -0.5403
   59bbb     C1 1466   4.564   8.922   7.457 -0.1568  0.0420  0.5926
   59bbb     H1 1467   4.510   8.828   7.472  1.7469 -1.1620  0.1624
   59bbb     H2 1468   4.505   9.004   7.501 -1.0421  0.0370 -0.5392
   59bbb     C2 1469   4.591   8.938   7.307 -0.1804 -0.0433  0.3536
   59bbb     H3 1470   4.615   9.045   7.300 -0.5040  0.0287  0.3210
   59bbb     H4 1471   4.683   8.882   7.288  0.1180  0.0815  1.3755
   59bbb     N1 1472   4.693   8.905   7.532 -0.0966  0.5325 -0.3308
   59bbb     C3 1473   4.663   8.852   7.666 -0.6163 -0.7636  1.2019
   59bbb     H5 1474   4.585   8.917   7.707 -0.5084  0.1172  0.0696
   59bbb     H6 1475   4.747   8.853   7.736 -0.3355 -0.9502  0.8685
   59bbb     C4 1476   4.768   9.027   7.527 -0.5802  0.4312 -0.7144
   59bbb     H7 1477   4.796   9.058   7.426  1.9210  2.3272  0.4387
   59bbb     H8 1478   4.718   9.110   7.579 -3.3099 -2.2627  1.3326
   59bbb     C5 1479   4.897   9.002   7.607 -1.0990 -0.2295 -0.1507
   59bbb     H9 1480   4.885   9.009   7.716  0.5814  0.6725  0.0149
   59bbb    H10 1481   4.946   8.908   7.581 -1.6761 -0.1750 -1.5148
   59bbb     C6 1482   4.628   8.706   7.675  0.6326  0.4168  0.6326
   59bbb    H11 1483   4.546   8.674   7.608  0.1824  0.7169  1.0338
   59bbb    H12 1484   4.720   8.653   7.649  0.3805  0.0460  0.4756
   59bbb     C7 1485   4.995   9.118   7.568  0.3663  1.1079  0.3521
   59bbb     C8 1486   4.584   8.667   7.810  0.5717  0.1933  0.1902
   59bbb     O1 1487   5.013   9.151   7.456 -0.0734 -0.1874  0.3846
   59bbb     O2 1488   4.466   8.680   7.841  0.5298  0.2608 -0.3973
   59bbb     N4 1489   4.482   8.900   7.210 -0.1819  0.5132  0.1402
   59bbb    H21 1490   4.386   8.891   7.240  0.2905  0.7005  1.8010
   60bbb     C1 1491   3.651  10.009   5.803 -0.1755  0.2325 -0.0281
   60bbb     H1 1492   3.682  10.054   5.898 -1.6105 -2.2950  1.7528
   60bbb     H2 1493   3.553  10.055   5.785 -1.0287 -1.7879 -0.8187
   60bbb     C2 1494   3.653   9.866   5.857  0.5976  0.3582  0.0173
   60bbb     H3 1495   3.739   9.805   5.825  1.7516  0.7119  2.2778
   60bbb     H4 1496   3.656   9.874   5.966  1.0296 -0.3349  0.0656
   60bbb     N1 1497   3.741  10.025   5.687 -0.0963 -0.2036 -0.5821
   60bbb     C3 1498   3.798  10.163   5.670  0.3360  0.2255  0.3176
   60bbb     H5 1499   3.715  10.235   5.679 -2.0405 -2.4365  0.9064
   60bbb     H6 1500   3.835  10.179   5.569 -1.5310 -0.0562 -0.4517
   60bbb     C4 1501   3.682   9.977   5.562 -0.2671  0.2345 -0.7638
   60bbb     H7 1502   3.609   9.901   5.592  0.2632  1.0238  2.9535
   60bbb     H8 1503   3.625  10.051   5.504 -0.1636  1.0566  0.1769
   60bbb     C5 1504   3.777   9.910   5.471 -0.8589  0.7996 -0.2851
   60bbb     H9 1505   3.870   9.956   5.438  1.3116 -1.8926  1.6306
   60bbb    H10 1506   3.805   9.817   5.521  0.5694  0.4727 -1.6141
   60bbb     C6 1507   3.899  10.189   5.776  0.3554  0.4260  0.0436
   60bbb    H11 1508   3.857  10.187   5.877 -0.9543  0.1008 -0.4912
   60bbb    H12 1509   3.984  10.120   5.765 -0.5313 -0.5006 -1.2176
   60bbb     C7 1510   3.695   9.867   5.351 -0.0561  0.7284 -0.6083
   60bbb     C8 1511   3.959  10.329   5.763  0.9719 -0.4388 -0.0276
   60bbb     O1 1512   3.653   9.753   5.357  0.0581  0.1030 -0.6909
   60bbb     O2 1513   3.975  10.402   5.857  0.0761 -0.4618 -0.2548
   60bbb     N4 1514   3.518   9.804   5.839  0.4912 -0.1478  0.0424
   60bbb    H21 1515   3.440   9.843   5.787  0.5015  1.1375  0.9798
   61bbb     C1 1516   2.692   9.493   6.250 -0.0171 -0.5823 -0.1922
   61bbb     H1 1517   2.599   9.507   6.307 -0.6330 -2.2342 -0.7433
   61bbb     H2 1518   2.749   9.583   6.275 -1.8578  0.0308  2.2536
   61bbb     C2 1519   2.671   9.482   6.095 -0.2624  0.0622 -0.4678
   61bbb     H3 1520   2.588   9.409   6.091 -1.9343  1.8029  0.7235
   61bbb     H4 1521   2.627   9.575   6.059  0.9577  0.9830  0.3630
   61bbb     N1 1522   2.766   9.375   6.298 -0.1421 -0.6347 -0.3022
   61bbb     C3 1523   2.678   9.261   6.301 -0.0955 -0.7246 -0.0288
   61bbb     H5 1524   2.608   9.254   6.216 -0.1901 -4.4942  0.1820
   61bbb     H6 1525   2.624   9.259   6.396  1.7804 -0.9413  1.0825
   61bbb     C4 1526   2.835   9.400   6.425 -0.1172 -0.2027  0.1467
   61bbb     H7 1527   2.778   9.466   6.490 -0.1761  0.2849 -0.3961
   61bbb     H8 1528   2.850   9.305   6.479 -0.1777  0.1584  0.8102
   61bbb     C5 1529   2.967   9.471   6.389  0.1030  0.1588 -0.2923
   61bbb     H9 1530   3.034   9.421   6.317 -0.6595  0.3456 -1.1577
   61bbb    H10 1531   2.946   9.569   6.344  1.5298  0.5538 -0.1389
   61bbb     C6 1532   2.772   9.135   6.306  0.1242 -0.2415 -0.6790
   61bbb    H11 1533   2.847   9.154   6.228  0.7038 -0.1450 -0.1079
   61bbb    H12 1534   2.819   9.126   6.404 -4.4141 -1.0910  1.6901
   61bbb     C7 1535   3.049   9.492   6.513  0.3053 -0.5074 -0.1624
   61bbb     C8 1536   2.703   9.009   6.271 -0.0831 -0.0095 -0.5553
   61bbb     O1 1537   3.049   9.412   6.604 -0.0567 -0.7192 -0.1545
   61bbb     O2 1538   2.584   8.989   6.272 -0.7339 -0.5021 -0.1172
   61bbb     N4 1539   2.801   9.430   6.032  0.2990 -0.6708 -0.5374
   61bbb    H21 1540   2.870   9.389   6.094  0.2200  0.5366  0.3991
   62bbb     C1 1541   2.805   7.420   7.506  0.4910  0.3058  0.5370
   62bbb     H1 1542   2.819   7.325   7.559  0.6005 -0.6062 -1.0602
   62bbb     H2 1543   2.794   7.379   7.405 -0.7781  2.3656 -0.2311
   62bbb     C2 1544   2.922   7.521   7.531 -0.2799 -0.0809  0.1132
   62bbb     H3 1545   2.899   7.621   7.493  0.9544 -0.3633 -1.4751
   62bbb     H4 1546   2.936   7.527   7.639 -1.0857 -1.4783  0.3299
   62bbb     N1 1547   2.675   7.480   7.542 -0.4510  0.4537 -0.5406
   62bbb     C3 1548   2.627   7.575   7.444  0.4957 -0.2078 -0.3128
   62bbb     H5 1549   2.574   7.533   7.357 -0.7733  1.3413 -0.3162
   62bbb     H6 1550   2.712   7.640   7.417  1.1689 -1.0427 -0.2603
   62bbb     C4 1551   2.575   7.379   7.572 -0.0838  0.3616 -0.2596
   62bbb     H7 1552   2.474   7.422   7.572  0.7370  2.3919 -0.2616
   62bbb     H8 1553   2.575   7.301   7.494  2.4162  1.9587 -1.9954
   62bbb     C5 1554   2.606   7.312   7.709  0.0737 -0.4205  0.0075
   62bbb     H9 1555   2.684   7.235   7.703 -0.4836 -0.9488 -0.7438
   62bbb    H10 1556   2.639   7.389   7.779  0.2943 -0.8100  0.3399
   62bbb     C6 1557   2.537   7.667   7.514  0.0045 -0.0286 -0.2085
   62bbb    H11 1558   2.432   7.638   7.524  0.3526 -0.6212  2.6661
   62bbb    H12 1559   2.560   7.681   7.620  0.4102 -1.7904 -0.0243
   62bbb     C7 1560   2.494   7.229   7.766 -0.1733  0.5897  0.2131
   62bbb     C8 1561   2.535   7.801   7.452  0.9009 -0.9274 -0.1575
   62bbb     O1 1562   2.429   7.261   7.864  0.4056 -0.3983  0.0698
   62bbb     O2 1563   2.589   7.833   7.344  0.0389  0.4579 -0.0758
   62bbb     N4 1564   3.050   7.487   7.473 -0.3281  0.2550 -0.2702
   62bbb    H21 1565   3.054   7.449   7.379 -2.7398 -0.4622 -0.1388
   63bbb     C1 1566   3.318   6.650   7.376  0.3088 -0.6671  1.2020
   63bbb     H1 1567   3.413   6.620   7.420  1.6441  0.8323 -0.5266
   63bbb     H2 1568   3.271   6.573   7.315  1.7405  0.4076 -1.4191
   63bbb     C2 1569   3.352   6.739   7.256 -0.2784  0.1140  0.1683
   63bbb     H3 1570   3.404   6.680   7.180 -0.5020  0.4869 -0.2776
   63bbb     H4 1571   3.267   6.794   7.214  1.4195  3.8692  1.1819
   63bbb     N1 1572   3.230   6.722   7.463  0.2144  0.0685 -0.1818
   63bbb     C3 1573   3.289   6.731   7.593 -0.2260 -0.4158  0.8760
   63bbb     H5 1574   3.397   6.750   7.581 -0.4783  0.9655  0.6215
   63bbb     H6 1575   3.282   6.642   7.656  0.3118 -0.8406  0.3486
   63bbb     C4 1576   3.099   6.651   7.472 -0.6133  0.1503  0.5640
   63bbb     H7 1577   3.112   6.542   7.476 -0.5504  0.1456  0.2668
   63bbb     H8 1578   3.050   6.677   7.567 -0.5920  0.0179  0.6106
   63bbb     C5 1579   3.010   6.687   7.359  0.2506  0.2459 -0.1975
   63bbb     H9 1580   2.965   6.785   7.377 -0.5506 -0.1118 -0.1595
   63bbb    H10 1581   3.068   6.685   7.266 -2.1370 -1.0942 -1.7757
   63bbb     C6 1582   3.235   6.853   7.665 -0.6143 -0.0091 -0.2207
   63bbb    H11 1583   3.250   6.936   7.595 -0.0521 -0.6168 -0.8439
   63bbb    H12 1584   3.127   6.845   7.684 -0.6469  1.8091  0.5215
   63bbb     C7 1585   2.892   6.593   7.345  0.2374  0.5717 -0.0667
   63bbb     C8 1586   3.324   6.883   7.783  0.9767 -0.5166 -0.2637
   63bbb     O1 1587   2.787   6.612   7.405 -0.4619  0.3128 -0.4781
   63bbb     O2 1588   3.421   6.953   7.764 -0.1190  0.0491 -0.1143
   63bbb     N4 1589   3.441   6.847   7.287 -0.2556 -0.4930 -0.0095
   63bbb    H21 1590   3.508   6.824   7.360  1.3436 -0.4203 -1.4077
   64bbb     C1 1591   5.604   7.004   7.645 -0.2026 -0.5234 -0.8424
   64bbb     H1 1592   5.612   7.077   7.564 -0.2927 -1.5665 -1.8147
   64bbb     H2 1593   5.620   6.906   7.599 -0.6138 -1.0044  0.0026
   64bbb     C2 1594   5.461   6.987   7.699 -0.0743 -0.4455  0.3079
   64bbb     H3 1595   5.441   6.886   7.735  0.4728 -0.5454  0.3422
   64bbb     H4 1596   5.438   7.052   7.784 -2.9902 -0.0597 -0.6632
   64bbb     N1 1597   5.696   7.044   7.753  0.6705 -0.0524 -0.2600
   64bbb     C3 1598   5.734   7.184   7.755  0.4574 -1.0365 -0.0842
   64bbb     H5 1599   5.799   7.203   7.669  0.2996 -1.2645 -0.2540
   64bbb     H6 1600   5.787   7.200   7.850 -1.8129  1.2613  0.9264
   64bbb     C4 1601   5.819   6.965   7.753  0.0706 -0.8741  0.0913
   64bbb     H7 1602   5.857   6.972   7.650  0.3413  0.4501  0.2619
   64bbb     H8 1603   5.903   7.000   7.815 -0.0835  1.2527 -0.8158
   64bbb     C5 1604   5.810   6.817   7.793  0.4003  0.1591 -0.2255
   64bbb     H9 1605   5.823   6.811   7.902  0.3267  2.1524 -0.0747
   64bbb    H10 1606   5.718   6.773   7.751  0.4548  1.0079 -1.2555
   64bbb     C6 1607   5.616   7.275   7.769 -0.0393 -0.5730  0.6129
   64bbb    H11 1608   5.543   7.276   7.688  0.8762  0.2961 -0.2286
   64bbb    H12 1609   5.555   7.256   7.858  0.3796  0.7403  1.2037
   64bbb     C7 1610   5.929   6.744   7.740  0.7414 -0.0620 -0.3885
   64bbb     C8 1611   5.658   7.417   7.793  1.1248 -0.1979  0.6040
   64bbb     O1 1612   6.030   6.801   7.704  0.3331 -0.3834  0.2354
   64bbb     O2 1613   5.637   7.503   7.708  0.0198  0.8320 -0.0558
   64bbb     N4 1614   5.361   7.028   7.600 -1.1873 -0.8394  0.1914
   64bbb    H21 1615   5.385   7.015   7.503 -2.1234 -2.7953  0.1891
   65bbb     C1 1616   5.090   6.527   7.042 -0.2183  0.2579 -0.4729
   65bbb     H1 1617   5.012   6.602   7.028  1.5678  2.4857  0.7408
   65bbb     H2 1618   5.070   6.471   7.135  0.5135  0.2720 -0.3008
   65bbb     C2 1619   5.215   6.614   7.070  0.2848 -0.9378 -0.2501
   65bbb     H3 1620   5.299   6.559   7.115  0.9580  1.6945  1.9552
   65bbb     H4 1621   5.259   6.652   6.977 -0.6703 -0.3896 -0.4924
   65bbb     N1 1622   5.115   6.431   6.942  1.0297 -0.3679  0.4675
   65bbb     C3 1623   4.988   6.403   6.873 -0.3962 -0.4507  0.2253
   65bbb     H5 1624   4.906   6.380   6.941  0.0094  1.2214  1.3557
   65bbb     H6 1625   5.000   6.314   6.811  0.4552 -0.1215 -0.0965
   65bbb     C4 1626   5.178   6.307   6.991 -0.0390 -0.0185  0.7348
   65bbb     H7 1627   5.265   6.335   7.051  0.3153  0.0608  0.1875
   65bbb     H8 1628   5.095   6.257   7.043 -2.4703  1.8770 -1.0492
   65bbb     C5 1629   5.235   6.210   6.887  0.5356 -0.5933  0.4235
   65bbb     H9 1630   5.159   6.189   6.810  0.4702 -0.3256  0.4110
   65bbb    H10 1631   5.322   6.266   6.851 -0.6236  1.5822  0.7504
   65bbb     C6 1632   4.948   6.517   6.786  0.4347  0.2894 -0.2106
   65bbb    H11 1633   4.921   6.605   6.845 -0.2955 -0.1014  0.0388
   65bbb    H12 1634   5.033   6.550   6.724 -0.9126  0.1598 -2.2217
   65bbb     C7 1635   5.279   6.086   6.954  0.8504 -0.0610  0.2229
   65bbb     C8 1636   4.834   6.484   6.700  0.1810  0.3725  0.3394
   65bbb     O1 1637   5.304   6.077   7.074  0.0515 -0.0046 -0.7514
   65bbb     O2 1638   4.728   6.536   6.725 -0.3026 -0.0725 -0.1495
   65bbb     N4 1639   5.190   6.722   7.169 -0.1242  0.5824  0.1087
   65bbb    H21 1640   5.190   6.715   7.270 -0.3649 -2.4731 -0.0261
   66bbb     C1 1641   4.046   9.328   7.512  0.3821  0.6068 -0.2122
   66bbb     H1 1642   4.140   9.302   7.561  0.1661  0.0337 -0.0985
   66bbb     H2 1643   4.010   9.428   7.539 -0.8721 -0.0000  0.4367
   66bbb     C2 1644   3.936   9.229   7.562  0.6925  0.1721  0.6825
   66bbb     H3 1645   3.924   9.235   7.671 -0.9546  0.0482  0.5324
   66bbb     H4 1646   3.840   9.252   7.514  0.2887 -2.5544  0.0489
   66bbb     N1 1647   4.061   9.311   7.373  0.1524  0.4574 -0.2778
   66bbb     C3 1648   4.193   9.352   7.322 -0.2379  0.4987 -0.0457
   66bbb     H5 1649   4.236   9.435   7.378  0.3663 -0.4738  0.9719
   66bbb     H6 1650   4.188   9.382   7.216 -0.3576  1.3962  0.2032
   66bbb     C4 1651   3.954   9.377   7.297  0.4977  0.6894 -0.9758
   66bbb     H7 1652   3.862   9.376   7.358  0.9263  1.2750 -0.3095
   66bbb     H8 1653   3.987   9.480   7.278  2.9897  0.4071  1.2914
   66bbb     C5 1654   3.925   9.297   7.177  0.0572  0.1017 -0.7533
   66bbb     H9 1655   3.854   9.352   7.114 -2.2442 -1.2913  0.4710
   66bbb    H10 1656   4.015   9.284   7.117 -0.9076  2.5552 -2.9087
   66bbb     C6 1657   4.283   9.225   7.345 -0.2264  0.1968 -0.4076
   66bbb    H11 1658   4.285   9.177   7.444  1.2823 -1.8454 -1.3605
   66bbb    H12 1659   4.242   9.143   7.285 -0.5011 -0.3124  0.4534
   66bbb     C7 1660   3.854   9.174   7.217  0.1986 -0.6251  0.6127
   66bbb     C8 1661   4.425   9.255   7.302 -0.2103 -0.4031  0.5257
   66bbb     O1 1662   3.908   9.071   7.230  0.0526  0.8051 -0.5841
   66bbb     O2 1663   4.514   9.271   7.380 -0.2885 -0.3901 -0.7723
   66bbb     N4 1664   3.961   9.087   7.534 -0.4828  0.5417  0.4166
   66bbb    H21 1665   3.995   9.057   7.443  1.0692 -0.5133  1.2906
   67bbb     C1 1666   3.940   8.605   7.013 -0.0248 -0.6282 -0.4487
   67bbb     H1 1667   3.866   8.567   7.084 -1.2007  1.9443 -0.1701
   67bbb     H2 1668   4.003   8.523   6.975  1.6361  0.5136 -0.2841
   67bbb     C2 1669   4.027   8.704   7.090 -0.5564  0.2211  0.3299
   67bbb     H3 1670   4.096   8.742   7.014 -1.1063  1.4761  0.4433
   67bbb     H4 1671   3.976   8.794   7.125  1.4981  1.1524  1.0687
   67bbb     N1 1672   3.879   8.670   6.895  0.4276 -0.6163  0.1536
   67bbb     C3 1673   3.793   8.778   6.928  0.3080 -0.6504 -0.9091
   67bbb     H5 1674   3.763   8.817   6.830 -1.2893 -2.5893 -1.2481
   67bbb     H6 1675   3.853   8.856   6.978  0.2419  0.7338 -2.8758
   67bbb     C4 1676   3.827   8.568   6.801  0.1945 -0.0539 -0.3836
   67bbb     H7 1677   3.775   8.485   6.851  2.9146 -2.2905 -1.0480
   67bbb     H8 1678   3.764   8.610   6.721  2.4273  2.2459 -1.0747
   67bbb     C5 1679   3.934   8.506   6.722 -0.8382  0.3784  0.1653
   67bbb     H9 1680   4.003   8.587   6.700 -0.3737  0.2858  1.2167
   67bbb    H10 1681   3.995   8.429   6.771 -1.0650 -0.6196 -1.0515
   67bbb     C6 1682   3.675   8.738   7.025 -0.0907  0.1991  0.0707
   67bbb    H11 1683   3.634   8.636   7.019  1.2117 -0.4909  1.8716
   67bbb    H12 1684   3.712   8.748   7.128 -0.5618  1.7967  0.1099
   67bbb     C7 1685   3.890   8.454   6.591  0.0265  0.9582 -0.4377
   67bbb     C8 1686   3.572   8.847   6.997 -0.4383  0.4385 -0.5623
   67bbb     O1 1687   3.806   8.364   6.578  0.5828  0.1500  0.1251
   67bbb     O2 1688   3.598   8.962   7.018  0.5822  0.2996  0.6006
   67bbb     N4 1689   4.099   8.634   7.198 -0.2229 -0.1025  0.7217
   67bbb    H21 1690   4.082   8.537   7.217 -0.3096 -0.3197 -0.3720
   68bbb     C1 1691   3.026   7.109   7.368  0.1828  0.0366  0.3108
   68bbb     H1 1692   3.044   7.213   7.399  0.4315  1.1864 -3.3253
   68bbb     H2 1693   3.120   7.062   7.401  0.1445  1.4327  2.6526
   68bbb     C2 1694   3.018   7.104   7.214  0.2018  0.1370 -0.4222
   68bbb     H3 1695   3.043   7.002   7.184 -1.5997  0.0731 -1.9030
   68bbb     H4 1696   2.918   7.117   7.172  0.2078 -2.2064 -1.3105
   68bbb     N1 1697   2.915   7.049   7.434  0.7518 -0.1615  0.1112
   68bbb     C3 1698   2.782   7.094   7.404  0.3811  0.0657  0.0048
   68bbb     H5 1699   2.770   7.177   7.333 -0.5112 -0.3539 -0.3589
   68bbb     H6 1700   2.731   7.136   7.491  3.0874  1.1813  1.1614
   68bbb     C4 1701   2.938   7.059   7.582  0.0531  0.4267  0.2735
   68bbb     H7 1702   3.042   7.029   7.597 -0.4019 -2.0567 -0.9073
   68bbb     H8 1703   2.918   7.160   7.619 -0.2480 -0.0038  1.3164
   68bbb     C5 1704   2.841   6.961   7.648 -0.6130  0.6870  0.1834
   68bbb     H9 1705   2.733   6.969   7.632 -0.7710  0.2402  0.9351
   68bbb    H10 1706   2.875   6.860   7.624  1.6873  0.6117  3.0821
   68bbb     C6 1707   2.709   6.981   7.341 -0.1027  0.2283  0.0506
   68bbb    H11 1708   2.757   6.949   7.248 -0.1449 -1.8022  0.6656
   68bbb    H12 1709   2.706   6.892   7.406  1.3995 -0.1537 -0.3781
   68bbb     C7 1710   2.879   6.964   7.792 -0.0940  0.0980 -0.1982
   68bbb     C8 1711   2.562   7.015   7.321 -0.2110 -0.3422  0.7320
   68bbb     O1 1712   2.981   7.013   7.832 -0.0550 -0.2246  0.0679
   68bbb     O2 1713   2.503   7.097   7.397 -0.3002  0.6361  0.1185
   68bbb     N4 1714   3.122   7.196   7.162  0.1304 -0.8267  0.0684
   68bbb    H21 1715   3.214   7.159   7.146  0.7999  0.5252  0.6276
   69bbb     C1 1716   3.003   8.216   7.147  0.1039 -0.2540 -0.7518
   69bbb     H1 1717   2.953   8.223   7.050  0.5536 -0.4760 -0.9968
   69bbb     H2 1718   3.017   8.319   7.183 -0.8537 -1.2213  2.7626
   69bbb     C2 1719   3.143   8.165   7.109 -0.0532  0.7216 -0.2644
   69bbb     H3 1720   3.185   8.235   7.036 -0.9129  0.2474 -1.2486
   69bbb     H4 1721   3.214   8.164   7.193  0.4689  1.1440 -0.6996
   69bbb     N1 1722   2.923   8.139   7.248 -0.4391 -0.2367  0.1114
   69bbb     C3 1723   2.785   8.179   7.256  0.4489 -0.9425 -0.0412
   69bbb     H5 1724   2.766   8.286   7.267 -0.2086 -1.0672  0.0435
   69bbb     H6 1725   2.731   8.125   7.335 -2.0183  1.3439 -0.0498
   69bbb     C4 1726   2.988   8.106   7.370 -0.4575  0.3966 -0.1157
   69bbb     H7 1727   3.096   8.091   7.361 -0.6737 -0.3352 -1.8463
   69bbb     H8 1728   2.985   8.187   7.444  0.9448  0.1033  0.2799
   69bbb     C5 1729   2.934   7.969   7.419 -0.0337 -0.0361 -0.0780
   69bbb     H9 1730   2.993   7.934   7.505  1.3248  0.3894 -0.8113
   69bbb    H10 1731   2.834   7.978   7.464 -0.1202  0.1302 -0.3050
   69bbb     C6 1732   2.708   8.142   7.128  0.8066  0.0367  0.0647
   69bbb    H11 1733   2.749   8.192   7.039  2.8904 -3.3410 -1.0807
   69bbb    H12 1734   2.723   8.037   7.099 -1.1798 -0.7325  1.6139
   69bbb     C7 1735   2.963   7.863   7.317 -0.1741  0.2315 -0.1509
   69bbb     C8 1736   2.561   8.170   7.142 -0.1399  0.0248  0.3237
   69bbb     O1 1737   3.076   7.822   7.299  0.6900  0.2501  0.2053
   69bbb     O2 1738   2.478   8.082   7.124  0.1202  0.2725  0.0099
   69bbb     N4 1739   3.140   8.024   7.060  0.7960  0.1284 -0.3584
   69bbb    H21 1740   3.066   7.964   7.094  0.2341  0.7226 -0.4924
   70bbb     C1 1741   5.893   7.318   6.789  0.7709  0.0360 -0.8706
   70bbb     H1 1742   5.997   7.336   6.818  0.2308 -0.3484  1.6173
   70bbb     H2 1743   5.861   7.229   6.845  1.3128  0.6045  0.4032
   70bbb     C2 1744   5.884   7.295   6.641  0.1952 -0.1669 -0.0909
   70bbb     H3 1745   5.778   7.296   6.615  0.0248  2.7130  0.3759
   70bbb     H4 1746   5.935   7.378   6.590 -0.5559 -0.5615 -1.5208
   70bbb     N1 1747   5.798   7.426   6.827 -0.2455  0.4603 -0.0240
   70bbb     C3 1748   5.817   7.558   6.771 -0.5538  0.3476  0.0635
   70bbb     H5 1749   5.726   7.614   6.794 -0.8498 -0.3023  0.5054
   70bbb     H6 1750   5.804   7.565   6.662 -2.9263 -0.2796  0.2530
   70bbb     C4 1751   5.796   7.420   6.973 -0.1897  0.4361  0.2754
   70bbb     H7 1752   5.764   7.321   7.007 -3.1386  1.5094  0.9477
   70bbb     H8 1753   5.897   7.440   7.010  0.5724  1.5923 -2.2398
   70bbb     C5 1754   5.693   7.511   7.031 -0.3627 -0.0229 -0.3731
   70bbb     H9 1755   5.746   7.607   7.030 -0.8041  0.2424  0.4540
   70bbb    H10 1756   5.599   7.505   6.974 -0.5065  1.6143 -0.3448
   70bbb     C6 1757   5.962   7.617   6.799 -0.0330 -0.2633  0.4461
   70bbb    H11 1758   5.967   7.644   6.905  0.4542  0.0570  0.3460
   70bbb    H12 1759   6.043   7.543   6.787  0.0308 -0.8440  3.5308
   70bbb     C7 1760   5.656   7.474   7.175  0.3735 -0.3178  0.2011
   70bbb     C8 1761   5.987   7.742   6.725  0.4971 -0.3249 -0.3574
   70bbb     O1 1762   5.652   7.362   7.216  0.4186 -0.1875  0.1456
   70bbb     O2 1763   5.913   7.840   6.732  0.0870  0.0812  0.0545
   70bbb     N4 1764   5.939   7.165   6.596  0.2886  0.5860 -0.1566
   70bbb    H21 1765   5.962   7.099   6.669 -0.1068 -0.6997 -1.1482
   71bbb     C1 1766   6.519   7.023   7.125 -0.9679 -0.8988  0.0546
   71bbb     H1 1767   6.463   7.117   7.115  0.2170  0.1609  2.5013
   71bbb     H2 1768   6.624   7.054   7.113 -0.3083 -1.8858  2.5755
   71bbb     C2 1769   6.481   6.932   7.008 -0.4764  0.0455 -0.5694
   71bbb     H3 1770   6.561   6.861   6.986 -1.5312 -0.7981 -1.7623
   71bbb     H4 1771   6.392   6.869   7.019  0.6956 -1.5137  0.4373
   71bbb     N1 1772   6.488   6.958   7.253  0.6765  1.2236  0.2975
   71bbb     C3 1773   6.476   7.046   7.373  0.0858 -0.3526 -0.3708
   71bbb     H5 1774   6.570   7.100   7.386 -0.0122 -0.5631  1.4511
   71bbb     H6 1775   6.452   6.987   7.463 -0.8659  0.3284 -0.1558
   71bbb     C4 1776   6.594   6.849   7.268 -0.0219 -0.1826  0.3463
   71bbb     H7 1777   6.600   6.787   7.177  1.0103  0.6794 -0.1955
   71bbb     H8 1778   6.692   6.890   7.292 -0.5235  0.3824  1.4704
   71bbb     C5 1779   6.560   6.743   7.372 -0.0769 -0.3491  0.2338
   71bbb     H9 1780   6.648   6.679   7.387  1.4869  1.1665 -1.8646
   71bbb    H10 1781   6.520   6.779   7.467 -1.3112  1.3068 -0.8615
   71bbb     C6 1782   6.360   7.144   7.361 -0.3096 -0.4366  0.8855
   71bbb    H11 1783   6.371   7.218   7.281 -0.2060 -0.1602  1.1544
   71bbb    H12 1784   6.271   7.086   7.332 -1.2994  2.1393 -1.8348
   71bbb     C7 1785   6.453   6.649   7.327  0.8028  0.0518  0.2954
   71bbb     C8 1786   6.324   7.209   7.484 -0.4034  0.0807 -0.1291
   71bbb     O1 1787   6.470   6.549   7.253 -0.4311 -0.1421  0.4031
   71bbb     O2 1788   6.212   7.200   7.532  0.4753  0.2446 -0.0544
   71bbb     N4 1789   6.452   7.016   6.887 -0.0051 -0.2103 -0.3958
   71bbb    H21 1790   6.530   7.053   6.835  0.0588  1.3698  0.7662
   72bbb     C1 1791   5.243   8.425   5.706 -0.5553  0.2672 -0.0487
   72bbb     H1 1792   5.307   8.505   5.746 -1.6464  0.5219  1.2608
   72bbb     H2 1793   5.245   8.361   5.795  0.3616  1.0735  0.5343
   72bbb     C2 1794   5.326   8.347   5.600  0.6891 -0.2328 -0.4304
   72bbb     H3 1795   5.267   8.259   5.569  0.4695 -0.1533 -0.2440
   72bbb     H4 1796   5.338   8.396   5.503 -1.3260 -2.1367 -1.7401
   72bbb     N1 1797   5.111   8.469   5.653  0.5582  0.3990 -0.9598
   72bbb     C3 1798   5.104   8.546   5.536  0.3862  0.2575 -0.3409
   72bbb     H5 1799   4.998   8.573   5.537  0.0641 -0.9460 -0.0223
   72bbb     H6 1800   5.132   8.495   5.443  0.0122  0.1848 -0.4154
   72bbb     C4 1801   5.024   8.352   5.657 -0.6693  0.2349 -0.1519
   72bbb     H7 1802   5.031   8.297   5.563  0.0103 -0.3091  0.2054
   72bbb     H8 1803   5.050   8.288   5.742 -2.5847  0.2607  0.5089
   72bbb     C5 1804   4.879   8.399   5.686 -0.3540  0.6916 -0.0814
   72bbb     H9 1805   4.890   8.454   5.780 -0.1130  1.8259 -0.7561
   72bbb    H10 1806   4.841   8.475   5.616  1.3719  0.1501 -1.7034
   72bbb     C6 1807   5.192   8.664   5.553  0.7026  0.0154  0.4528
   72bbb    H11 1808   5.172   8.711   5.651 -0.7694 -0.5850  0.4663
   72bbb    H12 1809   5.300   8.645   5.545  0.8874  1.0423  0.3090
   72bbb     C7 1810   4.781   8.282   5.689 -0.7293 -0.4708 -1.0157
   72bbb     C8 1811   5.148   8.770   5.462  0.2047  0.6974  0.2460
   72bbb     O1 1812   4.806   8.171   5.647 -0.1846  0.0871  0.0839
   72bbb     O2 1813   5.062   8.855   5.491 -0.4262 -0.0896  0.1894
   72bbb     N4 1814   5.449   8.298   5.663 -0.2246  0.1812 -0.4480
   72bbb    H21 1815   5.439   8.238   5.744  1.0732 -2.2303 -1.9808
   73bbb     C1 1816   6.252   8.968   5.945 -0.0414 -0.9290 -0.0872
   73bbb     H1 1817   6.293   8.984   5.844  3.3002  1.4170  1.4579
   73bbb     H2 1818   6.321   8.898   5.992 -0.5328 -1.1947  0.2464
   73bbb     C2 1819   6.106   8.918   5.960 -0.2337  0.0933  0.2705
   73bbb     H3 1820   6.069   8.933   6.062  0.3861 -0.9171  0.6606
   73bbb     H4 1821   6.035   8.980   5.903  1.7227  0.6471 -1.7136
   73bbb     N1 1822   6.273   9.100   6.016 -0.4020  0.3862 -0.5056
   73bbb     C3 1823   6.216   9.216   5.954  0.6307 -0.5145 -0.2977
   73bbb     H5 1824   6.110   9.190   5.945  0.9584 -2.7579  1.4804
   73bbb     H6 1825   6.269   9.224   5.858  1.1779  1.1137  0.0995
   73bbb     C4 1826   6.420   9.110   6.050  0.3197 -0.0637  0.0618
   73bbb     H7 1827   6.436   9.203   6.106  0.2708 -0.0888  0.1190
   73bbb     H8 1828   6.452   9.026   6.112  1.1959 -1.5601 -2.2955
   73bbb     C5 1829   6.518   9.119   5.930 -0.6890 -0.3031 -0.2120
   73bbb     H9 1830   6.493   9.052   5.847 -1.2644  0.8481 -0.9914
   73bbb    H10 1831   6.507   9.219   5.886  0.7645 -0.9431 -2.1628
   73bbb     C6 1832   6.234   9.344   6.028  0.2125  0.2877  0.2048
   73bbb    H11 1833   6.210   9.329   6.134 -0.5964  1.3667  0.2013
   73bbb    H12 1834   6.335   9.379   6.003 -0.6427  3.8052  1.0848
   73bbb     C7 1835   6.663   9.102   5.972  0.2998 -0.8522  0.0080
   73bbb     C8 1836   6.155   9.456   5.983  0.7701 -0.1232  0.0227
   73bbb     O1 1837   6.704   9.085   6.087 -0.1631 -0.6182  0.3561
   73bbb     O2 1838   6.073   9.451   5.892  0.0880 -0.4544 -0.3228
   73bbb     N4 1839   6.095   8.776   5.928 -0.1461  0.6399  0.6538
   73bbb    H21 1840   6.171   8.736   5.874  1.9958 -0.1697  4.0249
   74bbb     C1 1841   4.385   6.403   7.156  0.4595 -0.2586 -0.5618
   74bbb     H1 1842   4.301   6.446   7.100 -1.5455 -1.4212  1.4073
   74bbb     H2 1843   4.342   6.329   7.225  0.3915 -0.8174 -1.2007
   74bbb     C2 1844   4.452   6.522   7.230  0.2747 -0.7609 -0.0936
   74bbb     H3 1845   4.371   6.568   7.288 -0.2668  0.2912 -1.6263
   74bbb     H4 1846   4.527   6.486   7.302  0.0846  0.5209  0.7745
   74bbb     N1 1847   4.485   6.338   7.074 -0.1322  0.4329  0.5145
   74bbb     C3 1848   4.413   6.282   6.968 -0.1952  0.6837 -0.0698
   74bbb     H5 1849   4.341   6.352   6.924 -1.1409 -0.7427 -0.8633
   74bbb     H6 1850   4.365   6.194   7.014  0.0890 -0.2416 -1.4818
   74bbb     C4 1851   4.567   6.246   7.140 -0.3752  0.1014 -0.0454
   74bbb     H7 1852   4.551   6.256   7.248 -1.2005 -0.9343 -0.0611
   74bbb     H8 1853   4.538   6.140   7.134 -1.8987  0.5307 -0.5545
   74bbb     C5 1854   4.714   6.277   7.097  0.2724 -0.2135 -0.4393
   74bbb     H9 1855   4.719   6.276   6.987 -0.0676 -0.4276 -0.4531
   74bbb    H10 1856   4.732   6.384   7.115  2.1326 -0.0700 -2.6171
   74bbb     C6 1857   4.499   6.224   6.865  0.7608  0.0559  0.5276
   74bbb    H11 1858   4.564   6.302   6.824  2.0904 -0.7850  0.9209
   74bbb    H12 1859   4.558   6.138   6.900  2.4630  0.7288 -0.5447
   74bbb     C7 1860   4.807   6.191   7.179 -0.1619 -0.7666 -0.2777
   74bbb     C8 1861   4.419   6.194   6.745 -0.6242 -0.1851 -0.2585
   74bbb     O1 1862   4.835   6.217   7.298 -0.3005 -0.5294  0.7797
   74bbb     O2 1863   4.429   6.258   6.643  0.2809 -0.1010  0.4687
   74bbb     N4 1864   4.515   6.607   7.126 -0.2967  0.1025 -0.1122
   74bbb    H21 1865   4.526   6.564   7.035  0.8216 -2.9688  1.3352
   75bbb     C1 1866   4.227   7.401   6.642 -0.2007 -0.9952  0.2527
   75bbb     H1 1867   4.241   7.340   6.552  0.3662  1.2518 -1.2969
   75bbb     H2 1868   4.221   7.505   6.607  2.4695 -0.2915  1.5866
   75bbb     C2 1869   4.350   7.387   6.735 -0.4304  0.1090 -0.3113
   75bbb     H3 1870   4.424   7.461   6.701 -0.8779  1.2840  1.1239
   75bbb     H4 1871   4.311   7.426   6.831 -1.1633 -0.2200 -0.4712
   75bbb     N1 1872   4.105   7.368   6.707 -0.5852  0.0652  0.5367
   75bbb     C3 1873   4.086   7.222   6.720 -0.0011  0.0109  0.6161
   75bbb     H5 1874   4.136   7.159   6.646 -1.0766 -3.2341  2.4674
   75bbb     H6 1875   3.982   7.195   6.696  0.4991 -0.2317 -1.5503
   75bbb     C4 1876   3.992   7.428   6.646  0.2055 -0.5767  0.5009
   75bbb     H7 1877   3.983   7.397   6.541 -0.7599 -2.7302  1.1562
   75bbb     H8 1878   3.908   7.396   6.709 -0.9945  1.2821 -0.0715
   75bbb     C5 1879   3.984   7.574   6.666  0.2481 -0.5145  0.1357
   75bbb     H9 1880   4.001   7.606   6.769  0.8907 -0.3717 -0.0106
   75bbb    H10 1881   4.059   7.622   6.602  1.4579 -2.2390  0.1912
   75bbb     C6 1882   4.116   7.185   6.865  0.9198 -0.5798  0.0707
   75bbb    H11 1883   4.206   7.235   6.904  1.2572 -1.0169 -0.1336
   75bbb    H12 1884   4.029   7.218   6.923 -0.8010 -0.6979 -2.2831
   75bbb     C7 1885   3.846   7.624   6.619 -0.8339 -0.4656  0.2119
   75bbb     C8 1886   4.125   7.042   6.892 -0.6074  0.0565  0.0326
   75bbb     O1 1887   3.799   7.588   6.515  0.2437 -0.4976 -0.9019
   75bbb     O2 1888   4.120   6.971   6.793 -0.6639 -0.0747 -0.3075
   75bbb     N4 1889   4.404   7.256   6.764 -0.9708  0.6744 -0.1952
   75bbb    H21 1890   4.345   7.193   6.818 -0.6969 -0.3779 -1.0768
   76bbb     C1 1891   5.967   7.477   7.316  0.8769  0.0830 -0.1296
   76bbb     H1 1892   5.874   7.475   7.374  1.0978  0.8743  0.2708
   76bbb     H2 1893   5.927   7.512   7.220 -0.8692 -0.3151  0.4216
   76bbb     C2 1894   6.017   7.339   7.294  1.3445  0.4258 -0.3635
   76bbb     H3 1895   6.083   7.347   7.207  1.1191  1.8329 -0.4204
   76bbb     H4 1896   6.074   7.308   7.382 -0.8837 -2.0682  0.3417
   76bbb     N1 1897   6.059   7.580   7.374  0.5030 -0.1604 -0.3901
   76bbb     C3 1898   5.979   7.680   7.439 -0.7251 -0.1129 -1.1048
   76bbb     H5 1899   5.885   7.707   7.389 -0.6710 -0.6420 -1.4890
   76bbb     H6 1900   6.034   7.775   7.441 -1.9535  0.6228 -1.2391
   76bbb     C4 1901   6.170   7.629   7.294  0.2047 -0.2346 -0.6915
   76bbb     H7 1902   6.204   7.553   7.223  1.5371  0.1973 -0.5512
   76bbb     H8 1903   6.133   7.718   7.241 -1.1925  0.5921  1.5325
   76bbb     C5 1904   6.284   7.667   7.388 -0.2852 -0.7538  0.3327
   76bbb     H9 1905   6.251   7.751   7.451  0.2249  0.0831 -0.4930
   76bbb    H10 1906   6.312   7.573   7.437 -0.2660 -2.3643 -2.5634
   76bbb     C6 1907   5.961   7.636   7.588 -0.8893  0.1588 -0.3519
   76bbb    H11 1908   5.889   7.554   7.590 -0.8829  0.0993 -1.5649
   76bbb    H12 1909   6.059   7.597   7.619 -0.9201 -1.4082 -2.0541
   76bbb     C7 1910   6.402   7.718   7.317 -0.2583 -0.0753  0.8077
   76bbb     C8 1911   5.934   7.766   7.659 -0.2014  0.3415 -0.1666
   76bbb     O1 1912   6.382   7.790   7.218  0.1572 -0.7076 -0.0670
   76bbb     O2 1913   5.831   7.832   7.644  0.6812  0.0025  0.7047
   76bbb     N4 1914   5.908   7.244   7.268  0.1978  0.4200  0.2156
   76bbb    H21 1915   5.813   7.279   7.267  0.0583  0.0641 -1.1156
   77bbb     C1 1916   5.428   6.282   7.631  0.3887  0.5288  0.0160
   77bbb     H1 1917   5.418   6.383   7.671  0.8558  0.6326 -0.1259
   77bbb     H2 1918   5.425   6.207   7.711 -0.0059  0.6291  0.0944
   77bbb     C2 1919   5.560   6.266   7.556  0.8621 -0.1343  0.0437
   77bbb     H3 1920   5.633   6.265   7.638 -1.3063  0.0055  2.0828
   77bbb     H4 1921   5.548   6.167   7.510  1.2637 -0.9265  1.5761
   77bbb     N1 1922   5.320   6.255   7.533  0.7108  0.1050 -0.4549
   77bbb     C3 1923   5.228   6.376   7.538 -0.9672  0.2203 -0.8758
   77bbb     H5 1924   5.296   6.462   7.536 -2.5351  1.8667  3.6556
   77bbb     H6 1925   5.169   6.369   7.630 -0.0798 -2.8213 -0.4431
   77bbb     C4 1926   5.241   6.128   7.550 -0.5180  0.0667  0.5815
   77bbb     H7 1927   5.191   6.138   7.648 -2.2668  1.5018 -0.3786
   77bbb     H8 1928   5.158   6.122   7.479  0.6290  0.4946 -0.8440
   77bbb     C5 1929   5.327   5.996   7.539 -0.6098 -0.4431 -0.2549
   77bbb     H9 1930   5.372   5.989   7.439  0.7423  0.2167  0.2738
   77bbb    H10 1931   5.411   5.997   7.609  1.0302 -1.8497 -2.0617
   77bbb     C6 1932   5.130   6.382   7.425  0.7000  0.1648  0.2073
   77bbb    H11 1933   5.201   6.392   7.342  1.5824  2.6848  1.1892
   77bbb    H12 1934   5.068   6.293   7.404 -0.2045  0.5365  1.2107
   77bbb     C7 1935   5.240   5.881   7.567  0.4539 -0.1734  0.1431
   77bbb     C8 1936   5.041   6.508   7.419  0.5254  0.3562 -0.1670
   77bbb     O1 1937   5.117   5.885   7.550 -0.0903 -0.3256 -0.1582
   77bbb     O2 1938   5.084   6.615   7.454  0.3765 -0.0385  0.0857
   77bbb     N4 1939   5.580   6.370   7.440 -0.0116 -0.0407  0.0642
   77bbb    H21 1940   5.527   6.364   7.355 -1.2369 -0.6763  0.8528
   78bbb     C1 1941   5.736   9.528   8.452  0.1349  1.4786 -0.4950
   78bbb     H1 1942   5.700   9.619   8.401 -0.1323  0.5685 -2.0131
   78bbb     H2 1943   5.844   9.512   8.447 -0.0519  0.4415 -1.5990
   78bbb     C2 1944   5.682   9.423   8.349  0.1096 -0.7512  0.0137
   78bbb     H3 1945   5.729   9.470   8.262  0.1144 -0.9034 -0.0657
   78bbb     H4 1946   5.713   9.320   8.369  1.8501 -0.8902 -2.8125
   78bbb     N1 1947   5.687   9.504   8.590 -0.0146 -0.9751 -0.2656
   78bbb     C3 1948   5.704   9.618   8.679 -0.5028  0.3404  0.2128
   78bbb     H5 1949   5.813   9.632   8.679 -0.0325 -2.6960  0.4282
   78bbb     H6 1950   5.675   9.592   8.781  0.8933 -1.6923  0.1562
   78bbb     C4 1951   5.733   9.379   8.648  0.3748 -0.4024 -0.2353
   78bbb     H7 1952   5.765   9.312   8.567  0.0248  0.6837 -1.3091
   78bbb     H8 1953   5.823   9.403   8.706 -1.0751 -0.0909  2.0293
   78bbb     C5 1954   5.626   9.317   8.733 -0.1637  0.6002  0.4725
   78bbb     H9 1955   5.622   9.388   8.817 -2.7631  2.1553 -0.8389
   78bbb    H10 1956   5.532   9.312   8.678  0.7327  1.5046 -1.2255
   78bbb     C6 1957   5.637   9.746   8.635  0.7626 -0.2893  0.3219
   78bbb    H11 1958   5.652   9.826   8.708  1.4432  0.5447 -0.6957
   78bbb    H12 1959   5.686   9.767   8.539  1.8120 -1.8552  0.4863
   78bbb     C7 1960   5.674   9.171   8.761 -0.2825 -0.4533  0.4378
   78bbb     C8 1961   5.496   9.706   8.617 -0.0833 -0.1034  0.5280
   78bbb     O1 1962   5.717   9.094   8.680  0.3055  0.1432 -0.4833
   78bbb     O2 1963   5.451   9.666   8.513 -0.1911 -0.6374 -0.2692
   78bbb     N4 1964   5.540   9.431   8.335  0.1937  0.3577  0.5192
   78bbb    H21 1965   5.495   9.472   8.415 -0.2156  0.4243  0.2583
   79bbb     C1 1966   4.678   9.018   8.068  0.4294 -0.2865  0.0327
   79bbb     H1 1967   4.584   9.008   8.013  0.2758  1.8929 -0.1860
   79bbb     H2 1968   4.728   9.107   8.029 -0.4803  0.0888 -0.2952
   79bbb     C2 1969   4.779   8.901   8.037  0.3592 -0.2365 -0.0923
   79bbb     H3 1970   4.736   8.806   8.073 -0.9223 -0.7663 -2.7727
   79bbb     H4 1971   4.776   8.901   7.928  0.1443  0.4437 -0.0918
   79bbb     N1 1972   4.665   9.047   8.214  0.1680 -0.1253 -0.2061
   79bbb     C3 1973   4.628   8.929   8.295  0.4939 -0.3763 -0.3245
   79bbb     H5 1974   4.621   8.966   8.398  1.0331 -2.7035  0.6113
   79bbb     H6 1975   4.710   8.856   8.287  0.4506 -0.4121 -0.4614
   79bbb     C4 1976   4.594   9.167   8.243  0.1198 -0.2390 -0.6058
   79bbb     H7 1977   4.501   9.167   8.185 -1.1269  0.2942  1.3326
   79bbb     H8 1978   4.572   9.179   8.349  1.8810 -0.1481 -0.2165
   79bbb     C5 1979   4.676   9.283   8.208 -0.6268  0.2801 -0.1749
   79bbb     H9 1980   4.774   9.281   8.257  0.5574 -1.6984 -2.3516
   79bbb    H10 1981   4.693   9.285   8.099  1.9379 -3.1818  0.0046
   79bbb     C6 1982   4.496   8.862   8.257  0.8516  0.1287  0.1045
   79bbb    H11 1983   4.409   8.928   8.263 -0.1787 -1.2713  1.2717
   79bbb    H12 1984   4.500   8.820   8.156 -0.0544  0.9029 -0.2679
   79bbb     C7 1985   4.607   9.409   8.253 -0.2899 -1.2467  0.2546
   79bbb     C8 1986   4.466   8.751   8.347 -0.0456  0.3310  0.0338
   79bbb     O1 1987   4.489   9.408   8.295  0.0113 -0.5118 -0.2473
   79bbb     O2 1988   4.535   8.730   8.444 -0.0828  0.2716 -0.4140
   79bbb     N4 1989   4.917   8.926   8.081 -0.3006 -0.3712 -0.7765
   79bbb    H21 1990   4.962   8.864   8.147 -0.0132 -0.6656 -1.2335
   80bbb     C1 1991   5.401  10.299   7.210  0.7133 -0.4680 -0.4549
   80bbb     H1 1992   5.454  10.393   7.227 -2.3141  1.6968 -2.1238
   80bbb     H2 1993   5.295  10.321   7.193  1.1968  2.4551 -0.2543
   80bbb     C2 1994   5.409  10.214   7.338  0.1196  0.1431 -0.2553
   80bbb     H3 1995   5.357  10.278   7.411  0.9847  0.8794 -0.2646
   80bbb     H4 1996   5.351  10.122   7.333  2.9757 -1.8975  1.1022
   80bbb     N1 1997   5.468  10.231   7.092  0.2504  0.5065  0.1546
   80bbb     C3 1998   5.517  10.313   6.983  0.2462 -0.0424 -0.5188
   80bbb     H5 1999   5.430  10.374   6.955 -1.3872 -0.8916  2.2696
   80bbb     H6 2000   5.548  10.254   6.897 -0.4854  0.6157 -1.2525
   80bbb     C4 2001   5.380  10.126   7.036  0.0172 -0.7066  0.1461
   80bbb     H7 2002   5.292  10.116   7.101  0.8185  0.8577  1.5342
   80bbb     H8 2003   5.354  10.141   6.930  2.1540 -2.5960 -0.7309
   80bbb     C5 2004   5.444   9.993   7.029 -0.0610 -0.2899  0.2804
   80bbb     H9 2005   5.527  10.004   6.957  2.6286  3.1198  3.4698
   80bbb    H10 2006   5.490   9.960   7.123  1.1663 -1.8756 -0.8218
   80bbb     C6 2007   5.643  10.381   7.017  0.4470  0.1079  0.6261
   80bbb    H11 2008   5.626  10.449   7.101 -3.3209 -1.9527  1.7654
   80bbb    H12 2009   5.723  10.307   7.030  0.9282  0.5613  0.3153
   80bbb     C7 2010   5.345   9.893   6.964  0.4350  0.1557 -0.1614
   80bbb     C8 2011   5.680  10.473   6.904 -0.0846 -0.5575 -0.3957
   80bbb     O1 2012   5.304   9.906   6.849 -0.3165  0.1726  0.0450
   80bbb     O2 2013   5.612  10.487   6.801  0.2677  0.5693 -0.2054
   80bbb     N4 2014   5.545  10.185   7.388 -0.5917 -0.0836 -0.0243
   80bbb    H21 2015   5.621  10.230   7.338  1.4702  0.3173  3.1657
   81bbb     C1 2016   6.471  10.394   7.689  0.5728 -0.1650  0.1421
   81bbb     H1 2017   6.518  10.441   7.777  1.0797  1.3744 -0.9236
   81bbb     H2 2018   6.378  10.446   7.667  0.8437 -0.7428 -2.8338
   81bbb     C2 2019   6.450  10.248   7.747  0.2350 -0.8602  0.3637
   81bbb     H3 2020   6.544  10.194   7.731 -0.7218 -2.0327 -1.8939
   81bbb     H4 2021   6.432  10.260   7.854  1.9204 -1.6263  0.7570
   81bbb     N1 2022   6.554  10.392   7.567  0.2770  0.1842 -0.1994
   81bbb     C3 2023   6.609  10.518   7.531 -0.1716 -0.2900  0.1007
   81bbb     H5 2024   6.529  10.593   7.531 -1.7828 -1.7983 -3.3258
   81bbb     H6 2025   6.655  10.510   7.431  0.3354 -0.4944  0.3428
   81bbb     C4 2026   6.505  10.318   7.454  0.3961  0.2560 -0.5223
   81bbb     H7 2027   6.576  10.308   7.371  1.1315 -0.1101  0.1372
   81bbb     H8 2028   6.487  10.215   7.487  0.9640  0.2532 -0.2119
   81bbb     C5 2029   6.375  10.378   7.391  0.0412 -0.1098  0.8792
   81bbb     H9 2030   6.321  10.431   7.471  0.4255 -0.6031  1.4704
   81bbb    H10 2031   6.408  10.447   7.312  1.1867 -1.0381  0.5104
   81bbb     C6 2032   6.722  10.549   7.631  0.0571 -0.2970 -0.0334
   81bbb    H11 2033   6.683  10.555   7.733  0.9342 -1.7654  0.4200
   81bbb    H12 2034   6.800  10.472   7.621  0.9910  0.3215  1.9606
   81bbb     C7 2035   6.285  10.289   7.310  0.6216  0.2076 -0.2584
   81bbb     C8 2036   6.787  10.683   7.607  0.3991  1.5725  0.1055
   81bbb     O1 2037   6.324  10.211   7.227 -0.7718  0.2917  0.2045
   81bbb     O2 2038   6.783  10.733   7.499 -0.2366 -0.3474  0.0098
   81bbb     N4 2039   6.340  10.170   7.677  1.2007 -0.1007  0.0199
   81bbb    H21 2040   6.359  10.103   7.604 -2.3569  1.6903 -2.9143
   82bbb     C1 2041   4.390   7.667   7.890 -0.2751 -0.6576  0.7990
   82bbb     H1 2042   4.495   7.636   7.890  0.4762  1.6182 -0.5153
   82bbb     H2 2043   4.325   7.590   7.848 -0.9092 -0.3189  1.1389
   82bbb     C2 2044   4.368   7.801   7.806 -0.2769  0.3218 -0.2449
   82bbb     H3 2045   4.350   7.774   7.701 -2.0229  2.1611 -0.4838
   82bbb     H4 2046   4.280   7.862   7.828  0.3619  0.6728  1.4779
   82bbb     N1 2047   4.351   7.693   8.031 -0.1673 -0.6218  0.5629
   82bbb     C3 2048   4.418   7.598   8.118 -0.0647 -0.6857  0.1289
   82bbb     H5 2049   4.387   7.500   8.078 -1.3873  0.6195 -2.2581
   82bbb     H6 2050   4.374   7.609   8.218 -1.5055 -1.7572 -0.3494
   82bbb     C4 2051   4.207   7.687   8.052  0.0937 -0.3696 -0.2153
   82bbb     H7 2052   4.162   7.728   7.961 -1.1187 -0.0845  0.4912
   82bbb     H8 2053   4.174   7.583   8.065  0.5968 -0.5471 -0.3342
   82bbb     C5 2054   4.160   7.775   8.173  0.0151 -0.0264 -0.6185
   82bbb     H9 2055   4.173   7.731   8.273  0.0147 -0.8965 -0.9885
   82bbb    H10 2056   4.225   7.864   8.175  1.3716 -0.9872  0.4606
   82bbb     C6 2057   4.576   7.613   8.135  0.6810  0.2801 -0.4937
   82bbb    H11 2058   4.627   7.522   8.167  0.1623  0.3584  0.6361
   82bbb    H12 2059   4.615   7.652   8.040  0.2740 -1.1342 -1.2616
   82bbb     C7 2060   4.017   7.822   8.147  0.3423 -0.4871  0.4304
   82bbb     C8 2061   4.617   7.721   8.227  0.1104 -0.4490 -0.1416
   82bbb     O1 2062   3.938   7.751   8.090  0.3192  0.2544  0.4282
   82bbb     O2 2063   4.579   7.835   8.214  0.1403 -0.0206 -0.3737
   82bbb     N4 2064   4.489   7.888   7.827  0.2357  0.0649 -0.4763
   82bbb    H21 2065   4.504   7.943   7.911  0.6010  1.9760 -1.7166
   83bbb     C1 2066   4.865   7.290   8.181  0.3300  0.2335 -0.3686
   83bbb     H1 2067   4.929   7.212   8.223 -1.0145 -0.2895  0.7720
   83bbb     H2 2068   4.872   7.264   8.075  0.6744 -1.8700  0.1336
   83bbb     C2 2069   4.935   7.426   8.195  1.0260 -0.7906  0.8280
   83bbb     H3 2070   4.929   7.457   8.300  0.0883 -1.3295  0.9432
   83bbb     H4 2071   5.043   7.421   8.177  0.9330 -3.7267  0.7171
   83bbb     N1 2072   4.728   7.285   8.233  0.1002  0.0003  0.2067
   83bbb     C3 2073   4.720   7.285   8.382 -0.3936 -0.4791  0.4240
   83bbb     H5 2074   4.785   7.363   8.424 -0.8834  0.3787 -0.3872
   83bbb     H6 2075   4.745   7.185   8.420 -1.3576 -0.4193  1.2473
   83bbb     C4 2076   4.660   7.176   8.169 -0.3032  0.5527 -0.6655
   83bbb     H7 2077   4.730   7.093   8.155 -0.3994 -0.1715  2.3445
   83bbb     H8 2078   4.577   7.143   8.232  1.2563 -0.3490  1.0207
   83bbb     C5 2079   4.603   7.230   8.044  0.3859  0.4722  0.1072
   83bbb     H9 2080   4.547   7.322   8.067 -1.1831 -0.2363 -0.7168
   83bbb    H10 2081   4.675   7.249   7.964  1.0277  1.0441  0.8030
   83bbb     C6 2082   4.581   7.331   8.425 -0.3008  0.1531  0.2326
   83bbb    H11 2083   4.544   7.418   8.370  0.1204 -0.6788 -1.4434
   83bbb    H12 2084   4.505   7.255   8.405 -1.2260  0.7056  1.4691
   83bbb     C7 2085   4.502   7.133   7.981 -0.2299 -0.5080 -1.0117
   83bbb     C8 2086   4.557   7.356   8.570  0.0651  0.1280 -0.2131
   83bbb     O1 2087   4.387   7.133   8.008 -0.2420 -0.2191 -0.5616
   83bbb     O2 2088   4.636   7.334   8.658 -0.3282  0.1152  0.3352
   83bbb     N4 2089   4.893   7.543   8.103 -0.2531 -0.1367  0.0514
   83bbb    H21 2090   4.824   7.522   8.032 -0.0170  0.4073 -0.3456
   84bbb     C1 2091   5.999   9.444   7.213  0.6973 -0.1203  0.1817
   84bbb     H1 2092   6.011   9.493   7.310  0.0306 -1.6497  1.0656
   84bbb     H2 2093   5.912   9.498   7.174  0.8995 -1.2412 -2.0233
   84bbb     C2 2094   5.953   9.310   7.232 -0.7666 -0.1657 -0.1046
   84bbb     H3 2095   6.044   9.255   7.257 -0.8349  0.1063  0.7884
   84bbb     H4 2096   5.901   9.296   7.328 -0.1533  2.4303  0.6829
   84bbb     N1 2097   6.118   9.464   7.126  0.6347  0.2688  0.4644
   84bbb     C3 2098   6.234   9.373   7.158 -0.3745 -0.1675  0.7327
   84bbb     H5 2099   6.315   9.398   7.087 -2.1220  0.4624 -1.1322
   84bbb     H6 2100   6.207   9.267   7.153  1.2202 -0.5605 -1.3287
   84bbb     C4 2101   6.085   9.453   6.989  0.1014 -0.0813  0.7476
   84bbb     H7 2102   6.087   9.348   6.960 -1.2897  0.6664 -2.5689
   84bbb     H8 2103   5.989   9.500   6.963  0.1750 -1.1150 -1.6242
   84bbb     C5 2104   6.185   9.529   6.897 -0.0110 -0.4299  0.1685
   84bbb     H9 2105   6.219   9.629   6.930  0.2833  0.2257 -1.9624
   84bbb    H10 2106   6.282   9.479   6.896  0.1627 -0.1555 -2.5188
   84bbb     C6 2107   6.294   9.416   7.288  0.3910 -0.7571  0.3323
   84bbb    H11 2108   6.340   9.514   7.274 -0.0477 -0.7062 -0.8088
   84bbb    H12 2109   6.211   9.432   7.359  0.5948  0.4381  0.3236
   84bbb     C7 2110   6.132   9.534   6.756 -0.2986  0.5725 -0.1366
   84bbb     C8 2111   6.389   9.306   7.330 -0.1787  0.3071 -0.4429
   84bbb     O1 2112   6.049   9.452   6.719 -0.2458 -0.2096 -0.2719
   84bbb     O2 2113   6.420   9.210   7.266  0.0907 -0.0883 -0.0305
   84bbb     N4 2114   5.894   9.249   7.116 -0.7038 -0.2410  0.0106
   84bbb    H21 2115   5.948   9.217   7.037 -0.6678 -1.7092  0.5958
   85bbb     C1 2116   5.610   9.467   6.885 -0.2404 -0.3809 -0.2553
   85bbb     H1 2117   5.710   9.444   6.848 -0.3440  0.9927 -1.4969
   85bbb     H2 2118   5.594   9.403   6.972 -0.0605  1.6500  1.3684
   85bbb     C2 2119   5.524   9.419   6.769  0.2324 -0.2678 -0.0450
   85bbb     H3 2120   5.420   9.451   6.774  0.1652 -0.2621 -1.2328
   85bbb     H4 2121   5.556   9.439   6.666 -3.8593 -1.7030 -1.7859
   85bbb     N1 2122   5.591   9.610   6.932 -0.1364 -0.2084 -0.5826
   85bbb     C3 2123   5.611   9.715   6.829 -0.0827 -0.0010 -0.4887
   85bbb     H5 2124   5.598   9.817   6.868 -0.6492  0.0891 -0.9125
   85bbb     H6 2125   5.543   9.696   6.745  0.2965  1.6738 -1.2056
   85bbb     C4 2126   5.646   9.644   7.067 -0.2962 -0.5251 -0.0875
   85bbb     H7 2127   5.745   9.599   7.084  0.1336  0.4772  0.1126
   85bbb     H8 2128   5.670   9.750   7.082 -3.0380  0.5361 -2.2949
   85bbb     C5 2129   5.556   9.593   7.179  0.2159  0.0987 -0.6018
   85bbb     H9 2130   5.457   9.639   7.178  0.1678  0.0575  0.8913
   85bbb    H10 2131   5.542   9.484   7.175  2.1347 -0.1599 -2.7203
   85bbb     C6 2132   5.751   9.714   6.779 -0.2821  0.2194  0.1920
   85bbb    H11 2133   5.811   9.730   6.870 -0.4542  0.9057  0.1872
   85bbb    H12 2134   5.771   9.615   6.735  0.2272  0.0523  0.7780
   85bbb     C7 2135   5.627   9.629   7.304  0.4728 -0.7010 -0.1013
   85bbb     C8 2136   5.774   9.825   6.678  0.3549 -1.1167 -0.1188
   85bbb     O1 2137   5.640   9.747   7.331  0.0610  0.0933  0.1999
   85bbb     O2 2138   5.758   9.801   6.558  0.1561  0.2328 -0.0922
   85bbb     N4 2139   5.520   9.275   6.779  0.3899  0.2193  0.0799
   85bbb    H21 2140   5.594   9.214   6.745 -0.6583 -0.9333 -0.2145
   86bbb     C1 2141   5.625   7.626   5.764  0.0918  0.7958 -0.3469
   86bbb     H1 2142   5.720   7.680   5.760 -0.1740  1.2521 -0.5458
   86bbb     H2 2143   5.548   7.680   5.708 -2.4921 -0.5350  1.6388
   86bbb     C2 2144   5.580   7.647   5.907 -0.7807  0.0635 -0.2205
   86bbb     H3 2145   5.471   7.636   5.915 -0.7579  0.7781  1.7664
   86bbb     H4 2146   5.624   7.569   5.970  0.4077  1.7868  1.2088
   86bbb     N1 2147   5.643   7.482   5.719 -0.4570 -0.8121  0.5737
   86bbb     C3 2148   5.743   7.398   5.788  0.4453  0.7061  0.4364
   86bbb     H5 2149   5.759   7.306   5.731  1.6005  1.2594 -0.1836
   86bbb     H6 2150   5.703   7.370   5.886  1.1365  0.4940  0.6597
   86bbb     C4 2151   5.530   7.411   5.669  0.8349  0.1500  0.1577
   86bbb     H7 2152   5.501   7.320   5.724 -2.2952  0.1026 -1.3625
   86bbb     H8 2153   5.441   7.474   5.661  2.2255  1.9318 -2.6828
   86bbb     C5 2154   5.564   7.360   5.528  0.0791  0.2932 -0.0619
   86bbb     H9 2155   5.485   7.396   5.461 -0.0657 -0.7491 -0.4751
   86bbb    H10 2156   5.654   7.406   5.485  1.4300 -1.6039  0.5937
   86bbb     C6 2157   5.879   7.470   5.797  0.6922  0.9917 -0.4487
   86bbb    H11 2158   5.906   7.499   5.695 -0.4312  0.6893 -0.8476
   86bbb    H12 2159   5.870   7.562   5.856  1.1152 -0.4452  2.0248
   86bbb     C7 2160   5.575   7.208   5.520  0.2989 -1.0659  0.1653
   86bbb     C8 2161   5.976   7.380   5.862  0.4845  0.0318 -0.0152
   86bbb     O1 2162   5.475   7.138   5.525 -0.4468  0.0382 -0.2912
   86bbb     O2 2163   5.947   7.284   5.936 -0.4276 -0.0689 -0.7668
   86bbb     N4 2164   5.611   7.786   5.958 -0.6171 -0.0484  0.0803
   86bbb    H21 2165   5.663   7.850   5.899 -0.0465  3.0407  3.5774
   87bbb     C1 2166   5.101   8.732   6.055 -0.2497 -0.0590 -0.1071
   87bbb     H1 2167   5.098   8.651   5.981 -0.0467 -1.0732  0.9552
   87bbb     H2 2168   5.165   8.814   6.020 -1.3014  0.1074 -1.7267
   87bbb     C2 2169   5.160   8.660   6.179 -0.3896 -0.9602 -0.3062
   87bbb     H3 2170   5.184   8.735   6.255 -1.3846  1.5140 -2.2865
   87bbb     H4 2171   5.075   8.606   6.220 -0.4259  0.6209  1.8561
   87bbb     N1 2172   4.963   8.778   6.083 -0.1475  0.2523 -0.0554
   87bbb     C3 2173   4.864   8.737   5.979 -0.3125  0.4199 -0.2624
   87bbb     H5 2174   4.767   8.779   6.006 -1.4454 -1.9116 -0.4903
   87bbb     H6 2175   4.846   8.629   5.981 -1.4273  0.5414  3.2471
   87bbb     C4 2176   4.946   8.916   6.121 -0.2453  0.0698 -1.1438
   87bbb     H7 2177   4.978   8.982   6.039 -0.4943  1.7486  0.0583
   87bbb     H8 2178   4.845   8.948   6.148  1.0053  1.6086  2.2571
   87bbb     C5 2179   5.021   8.947   6.249  0.3001  0.2916  0.1635
   87bbb     H9 2180   4.990   8.874   6.325  1.3203 -2.4144 -1.8287
   87bbb    H10 2181   5.129   8.939   6.230  0.3856 -0.6542  0.9312
   87bbb     C6 2182   4.905   8.787   5.840  0.3414 -0.8288  0.5470
   87bbb    H11 2183   4.915   8.896   5.828  0.3088 -0.8079  0.7179
   87bbb    H12 2184   5.004   8.748   5.811 -0.4835 -1.4655 -1.6432
   87bbb     C7 2185   4.997   9.088   6.290  0.3825 -0.6788  0.3252
   87bbb     C8 2186   4.804   8.735   5.743 -0.1999 -0.3037  0.4133
   87bbb     O1 2187   5.051   9.186   6.239 -0.5790  0.0929  0.2745
   87bbb     O2 2188   4.709   8.665   5.774  0.0212  0.4649 -0.3769
   87bbb     N4 2189   5.275   8.572   6.147  0.3748 -0.5180 -0.3868
   87bbb    H21 2190   5.367   8.611   6.158 -0.4061  1.1477  0.4770
   88bbb     C1 2191   7.354   8.926   6.154 -0.0692 -0.6273 -0.4392
   88bbb     H1 2192   7.406   8.886   6.242 -0.2616 -0.2043 -0.1262
   88bbb     H2 2193   7.249   8.905   6.178  0.0617  0.5857  1.4684
   88bbb     C2 2194   7.393   8.857   6.027  0.4016  0.3524  0.8730
   88bbb     H3 2195   7.441   8.929   5.960 -1.6015  0.6005 -0.3777
   88bbb     H4 2196   7.467   8.779   6.048  0.4119  0.9456  3.2926
   88bbb     N1 2197   7.376   9.072   6.155 -0.5121  0.4195  0.0371
   88bbb     C3 2198   7.289   9.142   6.249 -0.0194  0.6200  0.0736
   88bbb     H5 2199   7.335   9.236   6.282 -0.4012  0.8449 -0.0188
   88bbb     H6 2200   7.272   9.077   6.336  0.9170  0.6785  0.3008
   88bbb     C4 2201   7.517   9.091   6.189 -0.0675  0.8390 -0.5217
   88bbb     H7 2202   7.537   9.071   6.295 -0.9108  1.4247 -0.2467
   88bbb     H8 2203   7.585   9.025   6.133  0.4238  1.5203 -0.7310
   88bbb     C5 2204   7.552   9.232   6.158 -0.2067  0.9464 -0.0078
   88bbb     H9 2205   7.518   9.258   6.057 -1.6962  1.1133  0.5231
   88bbb    H10 2206   7.499   9.300   6.225 -2.4116  0.4123 -1.1182
   88bbb     C6 2207   7.160   9.177   6.183  0.6315 -0.4427  0.5101
   88bbb    H11 2208   7.114   9.093   6.129  1.4151 -1.8018  1.8506
   88bbb    H12 2209   7.088   9.213   6.257  0.4657 -0.7497  0.5004
   88bbb     C7 2210   7.696   9.256   6.175  0.3558 -0.2251  0.6979
   88bbb     C8 2211   7.189   9.293   6.087 -0.3492  0.1637  0.0409
   88bbb     O1 2212   7.783   9.176   6.160  0.3801 -0.3098  0.3241
   88bbb     O2 2213   7.187   9.410   6.129 -0.0372  0.3454 -0.2662
   88bbb     N4 2214   7.269   8.810   5.957  0.0455  0.1674 -0.2856
   88bbb    H21 2215   7.234   8.718   5.979  3.1220 -1.6863 -2.2412
   89bbb     C1 2216   6.672   9.255   5.165  0.6865  0.0149  0.2795
   89bbb     H1 2217   6.623   9.318   5.240  0.1654 -0.8453  0.6758
   89bbb     H2 2218   6.608   9.247   5.076 -1.0674 -3.8910  1.6646
   89bbb     C2 2219   6.668   9.110   5.220  0.3404 -0.3704 -0.8131
   89bbb     H3 2220   6.568   9.066   5.217  0.6354 -1.0832 -0.3924
   89bbb     H4 2221   6.735   9.054   5.154  2.2724  1.3025 -0.3896
   89bbb     N1 2222   6.804   9.307   5.127  0.4161  0.1446  0.3779
   89bbb     C3 2223   6.789   9.438   5.058  0.0338 -0.6988 -1.2887
   89bbb     H5 2224   6.748   9.515   5.124  0.7578 -1.1744 -0.2562
   89bbb     H6 2225   6.708   9.436   4.984  0.4146 -1.2531 -1.6926
   89bbb     C4 2226   6.907   9.301   5.238 -0.3614  0.2926  0.9612
   89bbb     H7 2227   6.970   9.390   5.240 -3.2277  2.4695  1.3428
   89bbb     H8 2228   6.855   9.305   5.335 -3.1459  2.1815 -0.4662
   89bbb     C5 2229   6.990   9.179   5.225  0.1008  0.0217  0.5481
   89bbb     H9 2230   6.927   9.105   5.175 -1.6042  1.5472  0.3626
   89bbb    H10 2231   7.074   9.200   5.158  0.4186  3.0091  1.7018
   89bbb     C6 2232   6.915   9.461   4.977 -0.4596  0.0021 -0.4467
   89bbb    H11 2233   7.003   9.454   5.041  0.1777 -0.3327 -1.3426
   89bbb    H12 2234   6.920   9.385   4.898  0.4400 -1.2936  0.8284
   89bbb     C7 2235   7.047   9.124   5.353 -0.4433  0.0505 -0.0258
   89bbb     C8 2236   6.919   9.598   4.918 -0.5801  0.3767 -1.1587
   89bbb     O1 2237   7.020   9.160   5.467  0.0178  0.0122 -0.8830
   89bbb     O2 2238   6.877   9.694   4.975  0.4802  0.2135 -0.1508
   89bbb     N4 2239   6.708   9.087   5.358 -0.4674 -0.4415  0.0073
   89bbb    H21 2240   6.721   9.164   5.421 -3.9871  0.8688 -0.6677
   90bbb     C1 2241   6.845  10.357   7.949 -0.1766  0.2386  0.0825
   90bbb     H1 2242   6.832  10.419   7.859 -1.6633 -0.2234 -0.0470
   90bbb     H2 2243   6.949  10.370   7.979  0.1111 -0.5035 -0.5741
   90bbb     C2 2244   6.824  10.215   7.894  0.8395 -0.2583 -0.0418
   90bbb     H3 2245   6.852  10.150   7.979 -0.3316 -1.3885 -0.4722
   90bbb     H4 2246   6.714  10.212   7.884  0.5676  0.4923  2.0920
   90bbb     N1 2247   6.750  10.399   8.050  0.1066  0.0449  0.5790
   90bbb     C3 2248   6.767  10.326   8.177 -0.0022  0.2451  0.0326
   90bbb     H5 2249   6.788  10.390   8.263  2.8574  1.1810 -1.2600
   90bbb     H6 2250   6.850  10.256   8.186  1.4065  1.9072  0.4237
   90bbb     C4 2251   6.714  10.537   8.049 -0.2024 -0.5289  0.4685
   90bbb     H7 2252   6.664  10.560   7.953 -1.2780  0.2606  1.1928
   90bbb     H8 2253   6.633  10.563   8.119 -0.5611  3.3128 -1.1005
   90bbb     C5 2254   6.836  10.621   8.075  0.0789 -0.8035  0.0474
   90bbb     H9 2255   6.880  10.599   8.173  1.5313  1.1832 -0.1131
   90bbb    H10 2256   6.916  10.605   8.002 -0.5441 -2.1093 -0.3842
   90bbb     C6 2257   6.640  10.246   8.200  0.1787 -0.9536 -0.1593
   90bbb    H11 2258   6.559  10.319   8.193  2.7569  2.4189  1.9259
   90bbb    H12 2259   6.631  10.162   8.130 -1.0176 -1.7201  0.8693
   90bbb     C7 2260   6.797  10.766   8.074 -0.1350 -0.2618 -0.7238
   90bbb     C8 2261   6.648  10.196   8.339  0.5072  0.7763  0.3080
   90bbb     O1 2262   6.707  10.800   8.001 -0.3919 -0.1199  0.2415
   90bbb     O2 2263   6.743  10.138   8.391  0.2223 -0.2355  0.3352
   90bbb     N4 2264   6.885  10.173   7.768  1.3583  0.3194 -0.1024
   90bbb    H21 2265   6.947  10.234   7.717 -1.5484  1.1544 -3.0354
   91bbb     C1 2266   7.307  10.545   7.372 -0.3680  0.4888  0.7573
   91bbb     H1 2267   7.254  10.544   7.468 -1.6812 -0.6508  0.0530
   91bbb     H2 2268   7.379  10.627   7.376 -1.0529  1.3372 -2.0189
   91bbb     C2 2269   7.199  10.582   7.270 -0.0389 -0.0870 -0.7041
   91bbb     H3 2270   7.197  10.692   7.268 -2.1044 -0.0079  1.5547
   91bbb     H4 2271   7.216  10.544   7.168  0.4848 -0.3510 -0.5243
   91bbb     N1 2272   7.370  10.419   7.338  0.1355  0.0289 -0.4747
   91bbb     C3 2273   7.507  10.420   7.378  0.1147  0.4852  0.1137
   91bbb     H5 2274   7.553  10.321   7.381 -2.9286 -1.0387 -0.1908
   91bbb     H6 2275   7.516  10.456   7.482  0.7917  1.5864 -0.2994
   91bbb     C4 2276   7.303  10.297   7.397 -0.6037  0.5027  0.0999
   91bbb     H7 2277   7.331  10.289   7.503 -0.6985  0.5707  0.1305
   91bbb     H8 2278   7.195  10.306   7.387 -0.7626  1.1258  1.8926
   91bbb     C5 2279   7.330  10.167   7.322 -0.1788 -0.5463  0.4438
   91bbb     H9 2280   7.436  10.140   7.331  0.2637  1.0667  0.3582
   91bbb    H10 2281   7.276  10.093   7.383 -0.6918 -0.2925  0.2936
   91bbb     C6 2282   7.588  10.502   7.280  0.2417  1.1389 -0.2545
   91bbb    H11 2283   7.576  10.460   7.180  2.1213 -2.1479  0.7116
   91bbb    H12 2284   7.570  10.610   7.288  1.6392  1.4200 -0.6302
   91bbb     C7 2285   7.291  10.163   7.179 -0.0022 -0.6227  0.0392
   91bbb     C8 2286   7.731  10.478   7.320 -0.7197  0.1611 -0.4469
   91bbb     O1 2287   7.204  10.104   7.126 -0.0544  0.0791  0.4699
   91bbb     O2 2288   7.766  10.496   7.435  0.1240 -0.0195  0.4621
   91bbb     N4 2289   7.061  10.534   7.320  0.0202 -0.1946  0.6827
   91bbb    H21 2290   7.062  10.505   7.417  0.9764  1.5106  1.2154
   92bbb     C1 2291   7.150   9.720   7.081  0.4645  1.2382  0.1861
   92bbb     H1 2292   7.127   9.692   6.977  1.5541  0.5441  0.1226
   92bbb     H2 2293   7.098   9.802   7.132  0.9258  1.6374  0.0157
   92bbb     C2 2294   7.299   9.757   7.073  0.4028 -0.4730 -0.3025
   92bbb     H3 2295   7.314   9.866   7.080  1.8319 -0.7553  3.1670
   92bbb     H4 2296   7.347   9.727   7.167 -1.1591  0.3356  0.8154
   92bbb     N1 2297   7.147   9.597   7.156  1.1066  0.6463 -0.3423
   92bbb     C3 2298   7.092   9.482   7.079  0.8141  0.4355 -0.1956
   92bbb     H5 2299   7.125   9.488   6.975 -1.4322  0.7727 -0.9543
   92bbb     H6 2300   6.983   9.470   7.090  0.6868  1.3487 -0.3899
   92bbb     C4 2301   7.090   9.601   7.296 -0.0956 -0.6429  0.5098
   92bbb     H7 2302   6.991   9.648   7.293 -0.1547 -0.8322 -1.0615
   92bbb     H8 2303   7.081   9.503   7.344  0.4436 -0.9843 -0.0731
   92bbb     C5 2304   7.188   9.672   7.375 -0.5426  0.2207 -0.0055
   92bbb     H9 2305   7.282   9.616   7.378 -0.6908 -0.0307 -0.0349
   92bbb    H10 2306   7.211   9.769   7.328  1.2122  0.2359  0.8026
   92bbb     C6 2307   7.171   9.364   7.131  0.2572 -0.1689  0.4125
   92bbb    H11 2308   7.277   9.376   7.108  0.3145 -0.0207  0.7432
   92bbb    H12 2309   7.153   9.344   7.238 -1.3211  0.1206  0.2313
   92bbb     C7 2310   7.143   9.690   7.517 -0.0200  0.2181  0.1939
   92bbb     C8 2311   7.126   9.241   7.056  0.3268 -0.0619  0.2324
   92bbb     O1 2312   7.047   9.753   7.548 -0.6037 -0.3467 -0.0776
   92bbb     O2 2313   7.132   9.236   6.937 -0.2047 -0.5039 -0.7265
   92bbb     N4 2314   7.360   9.703   6.948 -0.2027 -0.0981  0.6352
   92bbb    H21 2315   7.323   9.732   6.859  0.1354 -1.7291 -0.0805
   93bbb     C1 2316   7.916   8.859   6.543 -0.0596 -0.3325  0.0459
   93bbb     H1 2317   8.014   8.812   6.553  0.2271  0.1795 -0.2551
   93bbb     H2 2318   7.930   8.928   6.459 -1.4393 -0.7967 -0.6029
   93bbb     C2 2319   7.876   8.943   6.662  0.3794 -0.4847 -0.9794
   93bbb     H3 2320   7.864   8.889   6.757  0.7059 -2.2888 -1.9141
   93bbb     H4 2321   7.952   9.018   6.686 -1.9730  2.3455 -1.8335
   93bbb     N1 2322   7.812   8.758   6.502  0.3631 -0.3089 -0.2040
   93bbb     C3 2323   7.804   8.649   6.590  0.3400 -0.5931 -0.6387
   93bbb     H5 2324   7.796   8.681   6.695 -0.0668  0.2179 -0.9088
   93bbb     H6 2325   7.904   8.604   6.587 -0.1219 -1.8039 -4.9186
   93bbb     C4 2326   7.830   8.721   6.365 -0.2977  0.0240 -0.0267
   93bbb     H7 2327   7.934   8.724   6.331 -1.0915  0.5633 -2.6578
   93bbb     H8 2328   7.793   8.622   6.337 -0.1871 -0.0247 -0.0060
   93bbb     C5 2329   7.764   8.818   6.270 -0.6384  0.3789 -0.2861
   93bbb     H9 2330   7.658   8.830   6.297 -0.9115  0.0755 -1.1838
   93bbb    H10 2331   7.818   8.914   6.269 -0.8986  0.5359 -1.4093
   93bbb     C6 2332   7.694   8.546   6.551  0.4256 -0.0721  0.1755
   93bbb    H11 2333   7.605   8.606   6.531  0.7728  0.4677  0.2140
   93bbb    H12 2334   7.719   8.484   6.464  0.2652  0.2876 -0.1286
   93bbb     C7 2335   7.785   8.762   6.128 -0.0311  0.3615 -0.0456
   93bbb     C8 2336   7.672   8.442   6.665 -0.0116 -0.3309  0.4276
   93bbb     O1 2337   7.712   8.686   6.066  0.1428  0.2776  0.1194
   93bbb     O2 2338   7.569   8.419   6.719  0.5945  0.3348  0.3444
   93bbb     N4 2339   7.748   9.018   6.629  0.7877  0.0777  0.6140
   93bbb    H21 2340   7.656   8.979   6.647 -1.1665  3.0855 -1.8561
   94bbb     C1 2341   5.914   6.523   4.800 -0.4189 -0.9589  0.2777
   94bbb     H1 2342   5.959   6.506   4.898 -1.2449  1.7810  1.2165
   94bbb     H2 2343   5.956   6.615   4.757  0.5734 -1.1751  0.7727
   94bbb     C2 2344   5.770   6.540   4.848 -0.1482 -0.3025  0.0330
   94bbb     H3 2345   5.703   6.510   4.766  0.7305 -0.7631 -0.5322
   94bbb     H4 2346   5.757   6.475   4.935 -4.6198 -1.6958 -1.4023
   94bbb     N1 2347   5.929   6.412   4.713  0.0029  0.2421  1.2575
   94bbb     C3 2348   6.066   6.366   4.695  0.1063 -1.0682 -0.4560
   94bbb     H5 2349   6.133   6.452   4.684 -0.6491 -0.5185 -0.8217
   94bbb     H6 2350   6.083   6.312   4.601  1.0196  1.5374 -1.8927
   94bbb     C4 2351   5.876   6.437   4.577 -0.3835 -0.0754  0.2146
   94bbb     H7 2352   5.787   6.500   4.588  0.6249  1.4915 -0.2548
   94bbb     H8 2353   5.958   6.488   4.523  0.7373  0.1540  2.0667
   94bbb     C5 2354   5.838   6.302   4.515 -0.4876 -0.1531  0.3299
   94bbb     H9 2355   5.925   6.235   4.513  0.2256  0.7341  0.8888
   94bbb    H10 2356   5.759   6.261   4.579 -0.2870 -0.4272  0.4020
   94bbb     C6 2357   6.109   6.296   4.824  0.3049 -0.1913 -0.2855
   94bbb    H11 2358   6.119   6.359   4.913 -0.4199 -1.1537  0.4932
   94bbb    H12 2359   6.030   6.220   4.835 -0.3234  0.1801 -1.8982
   94bbb     C7 2360   5.764   6.325   4.378  0.7715 -0.4122 -0.3409
   94bbb     C8 2361   6.233   6.216   4.814 -0.5760  0.0983  0.5496
   94bbb     O1 2362   5.759   6.435   4.329 -0.2769  0.1610  0.9875
   94bbb     O2 2363   6.333   6.245   4.876 -0.3372 -0.0387 -0.1933
   94bbb     N4 2364   5.723   6.683   4.883  0.0401  0.0095 -0.0069
   94bbb    H21 2365   5.730   6.754   4.811  1.8690 -0.5883 -0.4526
   95bbb     C1 2366   5.225   6.517   5.052  0.8236 -0.5199 -0.6328
   95bbb     H1 2367   5.162   6.545   4.966 -0.0470 -0.3048  0.0636
   95bbb     H2 2368   5.193   6.415   5.073  1.4835 -0.2335  2.2099
   95bbb     C2 2369   5.201   6.626   5.154  0.0433  0.1446 -0.1659
   95bbb     H3 2370   5.095   6.614   5.177  0.2269 -0.6054  0.3462
   95bbb     H4 2371   5.245   6.601   5.252  1.1772  1.1878 -0.3851
   95bbb     N1 2372   5.364   6.514   5.007 -0.7736 -0.0564  0.3485
   95bbb     C3 2373   5.382   6.515   4.857 -0.0174 -0.3474  0.0701
   95bbb     H5 2374   5.322   6.436   4.810 -0.0836 -0.9508  1.1436
   95bbb     H6 2375   5.487   6.518   4.828 -0.3841 -1.2198 -1.4498
   95bbb     C4 2376   5.448   6.414   5.073  0.7848  0.0287  0.3853
   95bbb     H7 2377   5.396   6.318   5.083 -1.1142  1.2422  3.2156
   95bbb     H8 2378   5.542   6.411   5.017  0.6173  1.1869  0.0064
   95bbb     C5 2379   5.482   6.462   5.218 -0.1604 -0.1385 -0.0118
   95bbb     H9 2380   5.497   6.571   5.222  0.8629 -0.3038  3.2162
   95bbb    H10 2381   5.397   6.447   5.286 -0.2771  0.4834 -0.0143
   95bbb     C6 2382   5.338   6.654   4.813 -0.3844 -0.5325  0.0859
   95bbb    H11 2383   5.229   6.667   4.802 -0.2499 -0.3508 -1.1503
   95bbb    H12 2384   5.386   6.729   4.877  1.1366  0.5456 -2.2094
   95bbb     C7 2385   5.598   6.378   5.263  0.4925 -0.6491 -0.9996
   95bbb     C8 2386   5.393   6.684   4.673  1.0651 -0.6010  0.1372
   95bbb     O1 2387   5.582   6.267   5.306 -0.6476 -0.5518 -0.5244
   95bbb     O2 2388   5.491   6.751   4.653 -0.3692 -0.5075  0.2201
   95bbb     N4 2389   5.219   6.761   5.110  0.2859  0.2919  0.4875
   95bbb    H21 2390   5.201   6.789   5.014  0.6547 -0.3329  0.2353
   96bbb     C1 2391   4.443   7.009   5.408  0.3692  0.0293 -0.0277
   96bbb     H1 2392   4.548   7.024   5.437 -0.2218  1.1502  1.6915
   96bbb     H2 2393   4.442   6.979   5.302  1.0090  0.3957 -0.1397
   96bbb     C2 2394   4.384   7.151   5.404  0.6616  0.6736 -0.2446
   96bbb     H3 2395   4.276   7.149   5.382 -0.1200  1.8606  2.8789
   96bbb     H4 2396   4.397   7.193   5.505 -0.0171 -0.5478  0.3814
   96bbb     N1 2397   4.374   6.905   5.487 -0.1313 -0.1388 -0.0289
   96bbb     C3 2398   4.468   6.796   5.506 -0.4881 -0.0203  0.4471
   96bbb     H5 2399   4.519   6.770   5.413 -2.1034  0.4893 -0.6118
   96bbb     H6 2400   4.418   6.707   5.547 -0.4888 -0.6979 -0.9644
   96bbb     C4 2401   4.243   6.872   5.426  0.2195 -0.1397 -0.1875
   96bbb     H7 2402   4.197   6.968   5.401  0.5900 -0.5562 -2.7163
   96bbb     H8 2403   4.252   6.811   5.336  0.0067  1.5179 -1.3618
   96bbb     C5 2404   4.148   6.797   5.520 -0.0949 -0.3810  0.3150
   96bbb     H9 2405   4.156   6.688   5.523 -0.5855 -0.5454 -2.1428
   96bbb    H10 2406   4.163   6.821   5.626  0.0742  1.0301 -0.0063
   96bbb     C6 2407   4.578   6.829   5.602 -0.0399  0.3148 -0.3146
   96bbb    H11 2408   4.641   6.911   5.563 -0.1609  0.5446 -0.0279
   96bbb    H12 2409   4.536   6.856   5.699 -0.1337  1.2101 -0.5881
   96bbb     C7 2410   4.001   6.848   5.493 -0.4697 -0.4226  0.1406
   96bbb     C8 2411   4.660   6.710   5.632  0.8037 -0.4940  0.3586
   96bbb     O1 2412   3.966   6.966   5.521  0.2079 -0.7601  0.4684
   96bbb     O2 2413   4.689   6.622   5.551  0.4945  0.2081 -0.5642
   96bbb     N4 2414   4.449   7.239   5.303  0.2610 -0.2618 -0.4275
   96bbb    H21 2415   4.429   7.222   5.205  1.6589  0.6271 -0.8849
   97bbb     C1 2416   4.820   7.371   4.873 -0.4141 -0.4339 -0.1618
   97bbb     H1 2417   4.755   7.307   4.934 -0.2858  0.1789  0.6382
   97bbb     H2 2418   4.846   7.457   4.936 -0.7535 -0.3711 -0.1088
   97bbb     C2 2419   4.719   7.428   4.768 -0.6160 -0.2705  0.7325
   97bbb     H3 2420   4.772   7.495   4.700 -1.0080  0.0281  0.7169
   97bbb     H4 2421   4.686   7.341   4.711  0.5951 -0.6570  0.6013
   97bbb     N1 2422   4.935   7.296   4.817 -0.0628  0.3343  0.0160
   97bbb     C3 2423   5.023   7.386   4.740  0.0687  0.2674  0.3205
   97bbb     H5 2424   5.113   7.408   4.798 -0.4213  2.4643  0.3251
   97bbb     H6 2425   4.971   7.480   4.717 -1.1033 -0.5750 -0.5685
   97bbb     C4 2426   5.000   7.223   4.924 -0.7416 -0.2719 -0.5879
   97bbb     H7 2427   5.108   7.226   4.908 -0.4690  1.9521  1.1943
   97bbb     H8 2428   4.990   7.270   5.022 -0.7877 -3.0773  0.8626
   97bbb     C5 2429   4.950   7.080   4.935  0.2506 -0.6419  0.1309
   97bbb     H9 2430   4.979   7.042   5.033  1.3565  1.3378  0.6225
   97bbb    H10 2431   4.844   7.069   4.907 -0.3839  0.7980  1.7604
   97bbb     C6 2432   5.073   7.316   4.621 -0.2381 -0.4731 -0.4658
   97bbb    H11 2433   5.141   7.237   4.655  1.7819  1.3847  0.0033
   97bbb    H12 2434   4.992   7.268   4.565  1.0077 -1.1730 -1.7257
   97bbb     C7 2435   5.025   6.989   4.846  0.4155  0.7373 -0.4718
   97bbb     C8 2436   5.132   7.413   4.533 -0.3840  0.0215 -0.4885
   97bbb     O1 2437   5.108   6.907   4.890  0.3171 -0.2670 -0.5058
   97bbb     O2 2438   5.075   7.518   4.515  0.3971  0.2159  0.0370
   97bbb     N4 2439   4.605   7.498   4.822 -0.0070 -0.1568 -0.1743
   97bbb    H21 2440   4.511   7.461   4.830 -0.8799  1.9413  0.1331
   98bbb     C1 2441   7.066   7.819   6.349 -0.2378  0.0579 -0.5184
   98bbb     H1 2442   7.127   7.728   6.341 -0.4760 -0.4680  2.3800
   98bbb     H2 2443   7.012   7.800   6.442 -1.0908  3.9221 -0.0505
   98bbb     C2 2444   6.977   7.810   6.230 -0.5551  0.4058 -0.1106
   98bbb     H3 2445   7.041   7.800   6.142  0.0301 -0.7817  0.4186
   98bbb     H4 2446   6.924   7.714   6.237 -0.8374  0.4770 -1.1183
   98bbb     N1 2447   7.150   7.944   6.357 -0.4512  0.2494 -0.1587
   98bbb     C3 2448   7.282   7.916   6.412 -0.1827 -0.0735 -0.6362
   98bbb     H5 2449   7.279   7.868   6.511  0.8107 -0.7431 -0.9117
   98bbb     H6 2450   7.336   8.007   6.439  0.5012 -0.0260 -2.0786
   98bbb     C4 2451   7.081   8.046   6.435  0.2292 -0.2717  0.5837
   98bbb     H7 2452   6.973   8.051   6.412  0.2043 -2.0511  0.1251
   98bbb     H8 2453   7.090   8.030   6.543 -1.2901 -1.7059  0.5524
   98bbb     C5 2454   7.144   8.175   6.384 -0.1426 -0.2865 -0.3604
   98bbb     H9 2455   7.253   8.181   6.394  0.1373 -0.1965 -2.8790
   98bbb    H10 2456   7.122   8.188   6.277 -2.6717 -1.6183 -0.0679
   98bbb     C6 2457   7.367   7.823   6.327 -0.4548 -1.0628  0.0092
   98bbb    H11 2458   7.329   7.720   6.332  2.3817 -2.1642  1.1777
   98bbb    H12 2459   7.363   7.854   6.222 -0.8510 -3.6253 -0.8184
   98bbb     C7 2460   7.078   8.284   6.460  0.5213 -0.0430  0.4805
   98bbb     C8 2461   7.507   7.806   6.379  0.4011 -0.5922  0.2311
   98bbb     O1 2462   6.971   8.337   6.422  0.1210  0.0104  0.0442
   98bbb     O2 2463   7.553   7.851   6.483 -0.0598 -0.0932 -0.1802
   98bbb     N4 2464   6.886   7.926   6.213 -0.1935  0.0085  0.3528
   98bbb    H21 2465   6.932   8.008   6.250  0.8440 -1.3023  2.1281
   99bbb     C1 2466   7.113   8.679   6.388 -0.6419  0.2474 -0.0949
   99bbb     H1 2467   7.069   8.608   6.459 -0.9181 -0.7023 -1.1976
   99bbb     H2 2468   7.100   8.783   6.422  0.2044  0.4418 -0.3271
   99bbb     C2 2469   7.058   8.656   6.245 -0.3376 -0.0228 -0.2028
   99bbb     H3 2470   6.960   8.704   6.254  0.8084  2.5120 -0.3860
   99bbb     H4 2471   7.116   8.712   6.171 -0.1549 -2.1856 -1.7867
   99bbb     N1 2472   7.259   8.669   6.394 -0.1190 -0.1158  0.1830
   99bbb     C3 2473   7.312   8.539   6.355 -1.0190  0.7389 -0.3148
   99bbb     H5 2474   7.248   8.466   6.303  0.2040 -1.1196  0.6648
   99bbb     H6 2475   7.327   8.481   6.446 -0.9164 -0.6301 -1.1762
   99bbb     C4 2476   7.303   8.700   6.527  0.7713  0.1812  0.2645
   99bbb     H7 2477   7.243   8.661   6.610  0.3185 -0.7591 -0.4811
   99bbb     H8 2478   7.401   8.659   6.550  0.9942 -0.0628 -1.0366
   99bbb     C5 2479   7.332   8.845   6.537  0.7044 -0.1724 -0.7577
   99bbb     H9 2480   7.405   8.881   6.464  0.8485  0.1379 -0.4676
   99bbb    H10 2481   7.234   8.894   6.531  0.0708 -1.2619  0.1376
   99bbb     C6 2482   7.446   8.556   6.280 -0.4106  1.0103  0.0632
   99bbb    H11 2483   7.434   8.600   6.180  1.8724  1.3429 -0.1133
   99bbb    H12 2484   7.511   8.625   6.335 -0.6828  0.7337  0.7482
   99bbb     C7 2485   7.396   8.866   6.671 -0.4895 -0.8205  0.3679
   99bbb     C8 2486   7.511   8.419   6.264 -0.2478 -0.6891  0.6906
   99bbb     O1 2487   7.512   8.852   6.690 -0.4801  0.1207 -0.2029
   99bbb     O2 2488   7.461   8.314   6.295  0.1304  0.1895  0.1854
   99bbb     N4 2489   7.024   8.520   6.188  0.0123 -0.0489 -0.2846
   99bbb    H21 2490   6.965   8.461   6.245  1.0390 -1.9395 -1.0601
  100bbb     C1 2491   6.454   8.602   4.736  0.5951  0.3607 -0.4804
  100bbb     H1 2492   6.518   8.539   4.673  1.4779 -1.0490  1.7178
  100bbb     H2 2493   6.459   8.707   4.703  0.7967  0.4600 -0.1500
  100bbb     C2 2494   6.518   8.607   4.876  0.0588 -0.6505 -0.9118
  100bbb     H3 2495   6.613   8.658   4.855 -0.1845 -1.3175 -4.1302
  100bbb     H4 2496   6.464   8.678   4.940 -0.1579 -0.6832 -1.0574
  100bbb     N1 2497   6.313   8.555   4.733  0.2395 -0.0056 -0.3425
  100bbb     C3 2498   6.262   8.532   4.597 -0.0960 -0.1131 -0.7664
  100bbb     H5 2499   6.155   8.507   4.603 -0.4648  1.6831  1.4178
  100bbb     H6 2500   6.323   8.460   4.541 -1.0551  0.3120 -2.4216
  100bbb     C4 2501   6.216   8.643   4.805  0.4244  0.4479 -0.2843
  100bbb     H7 2502   6.265   8.736   4.838 -3.2318  1.5475  2.8184
  100bbb     H8 2503   6.126   8.666   4.747  1.1841  0.3947 -1.5169
  100bbb     C5 2504   6.180   8.570   4.935 -0.7716 -0.8696  0.4222
  100bbb     H9 2505   6.093   8.510   4.906 -1.2670 -0.3415  0.7890
  100bbb    H10 2506   6.261   8.503   4.965 -1.5764 -2.4249 -0.7541
  100bbb     C6 2507   6.257   8.661   4.511 -0.0845 -0.1021 -0.4470
  100bbb    H11 2508   6.210   8.751   4.552  2.1950  0.7793  0.4470
  100bbb    H12 2509   6.359   8.700   4.494  0.1805 -1.2161 -1.5195
  100bbb     C7 2510   6.139   8.682   5.032  0.5749  0.5635  0.2976
  100bbb     C8 2511   6.195   8.627   4.376 -0.9286 -0.1096 -0.9184
  100bbb     O1 2512   6.218   8.762   5.071 -0.4438 -0.5747 -0.0521
  100bbb     O2 2513   6.215   8.521   4.318  0.3018  0.0382  0.2205
  100bbb     N4 2514   6.544   8.474   4.944 -0.3692 -0.2176  0.2173
  100bbb    H21 2515   6.536   8.394   4.882 -0.3384  2.3844 -3.5113
  101bbb     C1 2516   6.827   7.743   5.602  0.4514  0.1943 -0.1335
  101bbb     H1 2517   6.849   7.830   5.540 -1.3341 -0.4149 -1.7508
  101bbb     H2 2518   6.823   7.660   5.530 -1.0006 -1.1810  1.4163
  101bbb     C2 2519   6.695   7.765   5.669  0.5019  0.4479  0.2100
  101bbb     H3 2520   6.658   7.678   5.725 -1.3431  1.5055  0.7056
  101bbb     H4 2521   6.717   7.824   5.759 -1.0882  2.5467 -0.7169
  101bbb     N1 2522   6.942   7.726   5.690 -0.3983  0.3754  0.4065
  101bbb     C3 2523   6.935   7.600   5.774 -0.5909  0.3997 -0.0193
  101bbb     H5 2524   6.895   7.518   5.713 -1.0001 -0.0072  0.7816
  101bbb     H6 2525   6.875   7.610   5.865 -2.2602 -0.9973 -0.9115
  101bbb     C4 2526   6.989   7.850   5.754  0.2739 -0.1949  0.1751
  101bbb     H7 2527   6.911   7.927   5.760 -1.8110 -2.2582  0.6446
  101bbb     H8 2528   7.034   7.828   5.851 -0.8057  0.7031  0.9142
  101bbb     C5 2529   7.097   7.915   5.664 -0.0252  0.1967  0.2377
  101bbb     H9 2530   7.179   7.843   5.649 -0.2220  0.3461 -1.9202
  101bbb    H10 2531   7.057   7.948   5.567  3.7519  0.2820 -1.4761
  101bbb     C6 2532   7.079   7.569   5.802  0.0522 -0.1741  0.0615
  101bbb    H11 2533   7.134   7.608   5.716 -1.2942  0.4882 -0.5288
  101bbb    H12 2534   7.116   7.622   5.891  1.3182 -2.0553  0.7338
  101bbb     C7 2535   7.142   8.048   5.727 -0.2681  0.5926 -0.1998
  101bbb     C8 2536   7.111   7.421   5.830 -0.1090 -0.2961 -0.4419
  101bbb     O1 2537   7.084   8.149   5.701  0.7873  0.4327 -0.7090
  101bbb     O2 2538   7.028   7.333   5.819 -0.5363 -0.1354 -0.3205
  101bbb     N4 2539   6.580   7.825   5.593  0.3257  0.5467  0.6334
  101bbb    H21 2540   6.529   7.765   5.530  0.5089  1.3003 -0.2520
  102bbb     C1 2541   3.730   9.080   6.711  0.0889 -0.4007 -0.3216
  102bbb     H1 2542   3.790   9.059   6.622  1.2837  0.6865  0.2035
  102bbb     H2 2543   3.760   9.017   6.795  0.3340  0.0738 -0.0506
  102bbb     C2 2544   3.586   9.036   6.674  0.4725 -0.9138 -0.2296
  102bbb     H3 2545   3.520   9.046   6.760 -2.3446 -0.6227 -2.2931
  102bbb     H4 2546   3.545   9.109   6.604  0.1110  0.2437  1.1458
  102bbb     N1 2547   3.725   9.221   6.758 -0.3365  0.4930 -0.4858
  102bbb     C3 2548   3.866   9.253   6.774 -0.5387 -0.4202  0.0951
  102bbb     H5 2549   3.936   9.176   6.809  1.0961  1.4730  1.2169
  102bbb     H6 2550   3.878   9.339   6.841 -0.7810  0.4287 -0.9361
  102bbb     C4 2551   3.660   9.239   6.891 -0.2189  0.2562  0.1217
  102bbb     H7 2552   3.565   9.185   6.897  1.5566 -2.9336  2.7136
  102bbb     H8 2553   3.710   9.197   6.979 -0.5748  4.1350  2.4539
  102bbb     C5 2554   3.631   9.389   6.917  0.5629  0.4339 -0.0930
  102bbb     H9 2555   3.724   9.437   6.949  0.7910  0.4650 -0.7706
  102bbb    H10 2556   3.589   9.443   6.831  0.1723  0.7750  0.3094
  102bbb     C6 2557   3.931   9.299   6.641 -0.0575  0.4045 -0.4970
  102bbb    H11 2558   3.977   9.209   6.598 -0.0848  0.0844  0.1386
  102bbb    H12 2559   3.856   9.326   6.566  0.3347 -0.2877 -1.1575
  102bbb     C7 2560   3.536   9.388   7.033  0.2274  0.0430 -0.4183
  102bbb     C8 2561   4.041   9.395   6.666  0.7732 -0.2270 -0.6680
  102bbb     O1 2562   3.579   9.393   7.148 -0.3053 -0.2781 -0.0538
  102bbb     O2 2563   4.122   9.367   6.753  0.8109  0.0204  0.1025
  102bbb     N4 2564   3.582   8.907   6.616  0.2068  0.2088  0.7400
  102bbb    H21 2565   3.662   8.846   6.623 -0.9377 -1.4553  0.0691
  103bbb     C1 2566   3.014   8.014   6.553 -0.2325  0.1888 -0.1822
  103bbb     H1 2567   2.923   7.965   6.590 -0.0353 -0.0325  0.0117
  103bbb     H2 2568   3.085   7.941   6.511  0.1413 -1.2406  2.7142
  103bbb     C2 2569   3.092   8.073   6.673  0.0671  1.1313 -0.4379
  103bbb     H3 2570   3.015   8.121   6.735 -0.5071  1.7594 -1.6195
  103bbb     H4 2571   3.139   7.995   6.734 -0.8728 -1.3883 -2.7566
  103bbb     N1 2572   2.980   8.122   6.454  0.0723 -0.1363 -0.3867
  103bbb     C3 2573   2.996   8.071   6.318 -0.0058  0.0976 -0.2679
  103bbb     H5 2574   2.930   8.131   6.255  1.1517  0.5091 -1.1196
  103bbb     H6 2575   2.959   7.971   6.291 -1.5594  1.4689 -3.8158
  103bbb     C4 2576   2.849   8.173   6.471  0.2464 -0.3814 -0.0391
  103bbb     H7 2577   2.769   8.108   6.433 -0.9768  0.1951  1.4466
  103bbb     H8 2578   2.833   8.174   6.580  0.8226 -0.7235  0.0521
  103bbb     C5 2579   2.836   8.311   6.423 -0.8304  0.5075 -0.8770
  103bbb     H9 2580   2.905   8.371   6.484  0.6907 -1.9152 -0.0966
  103bbb    H10 2581   2.875   8.314   6.321  1.1934 -0.6733 -0.1846
  103bbb     C6 2582   3.138   8.093   6.283  0.5529  0.1458 -0.1202
  103bbb    H11 2583   3.156   8.201   6.284  1.0090  0.0722 -0.2907
  103bbb    H12 2584   3.204   8.036   6.349 -1.0057 -0.6482  0.8079
  103bbb     C7 2585   2.697   8.346   6.428 -0.2158 -0.4483 -0.1733
  103bbb     C8 2586   3.157   8.051   6.141 -0.3746 -0.2045 -0.2431
  103bbb     O1 2587   2.627   8.334   6.330  0.1762 -0.9633 -0.0093
  103bbb     O2 2588   3.106   8.120   6.056  0.1239 -0.4907 -0.5195
  103bbb     N4 2589   3.195   8.175   6.651 -0.0095  0.2680  0.9566
  103bbb    H21 2590   3.281   8.147   6.606 -0.7063 -0.0002 -0.2653
  104bbb     C1 2591   4.839   7.716   7.312  0.3331  0.2489  0.4026
  104bbb     H1 2592   4.844   7.710   7.203  0.8777  1.9747  0.3030
  104bbb     H2 2593   4.769   7.637   7.339  0.0320 -0.6351 -2.6671
  104bbb     C2 2594   4.774   7.852   7.347 -0.2320  0.0581 -0.0856
  104bbb     H3 2595   4.790   7.886   7.450  1.3556  2.0363 -0.9247
  104bbb     H4 2596   4.836   7.928   7.298  0.6045  0.4701  1.5229
  104bbb     N1 2597   4.970   7.687   7.374 -0.0575  0.3021 -0.4346
  104bbb     C3 2598   5.068   7.640   7.280  0.0716  0.7182  0.0743
  104bbb     H5 2599   5.026   7.559   7.219 -0.0554  0.2751  0.7330
  104bbb     H6 2600   5.152   7.594   7.335  0.8600  0.8863 -0.9570
  104bbb     C4 2601   4.958   7.617   7.506  1.1133 -0.6660  0.3010
  104bbb     H7 2602   4.861   7.648   7.546  1.2975  1.9067 -1.0141
  104bbb     H8 2603   4.940   7.509   7.493 -2.6533 -0.5496  3.0179
  104bbb     C5 2604   5.080   7.642   7.588 -0.2442  0.3170  0.1958
  104bbb     H9 2605   5.169   7.617   7.528 -1.9653 -0.1262 -2.3416
  104bbb    H10 2606   5.092   7.745   7.623  1.9829  0.5008 -0.9457
  104bbb     C6 2607   5.122   7.746   7.192 -0.5988 -0.1201  0.0319
  104bbb    H11 2608   5.046   7.786   7.124  0.5139  0.0136 -1.1641
  104bbb    H12 2609   5.160   7.828   7.255  2.5291 -0.7440 -0.8736
  104bbb     C7 2610   5.095   7.555   7.708  1.1811 -0.1402  0.1171
  104bbb     C8 2611   5.239   7.692   7.116 -0.3159 -0.3914  0.3186
  104bbb     O1 2612   5.015   7.471   7.742  0.0509 -0.0105  0.6483
  104bbb     O2 2613   5.272   7.579   7.112  0.0753 -0.4634 -0.9604
  104bbb     N4 2614   4.641   7.864   7.297  0.1006 -0.3867 -0.7015
  104bbb    H21 2615   4.601   7.784   7.249 -0.7585 -0.9841  0.9362
  105bbb     C1 2616   4.867   8.627   7.413 -0.0622 -0.2044  0.7250
  105bbb     H1 2617   4.844   8.565   7.500 -1.5894  1.3613  1.4805
  105bbb     H2 2618   4.867   8.735   7.431  0.4551 -0.1529  0.4553
  105bbb     C2 2619   4.744   8.617   7.318 -0.1492  0.4797  0.1817
  105bbb     H3 2620   4.661   8.667   7.369 -1.3960  0.2478 -1.5222
  105bbb     H4 2621   4.756   8.669   7.222 -2.7260 -0.2463 -0.6094
  105bbb     N1 2622   4.997   8.599   7.333  0.1286 -0.0579 -0.7641
  105bbb     C3 2623   5.000   8.459   7.287  0.5604  0.6905 -0.3198
  105bbb     H5 2624   4.985   8.440   7.180 -0.5138  1.1763 -0.2703
  105bbb     H6 2625   4.929   8.395   7.341  1.9767  0.6247  1.5832
  105bbb     C4 2626   5.025   8.684   7.212 -0.2885  0.5298  0.9869
  105bbb     H7 2627   5.129   8.673   7.182 -0.1129  3.6469  0.1203
  105bbb     H8 2628   4.958   8.658   7.129 -0.1561  0.9422  0.7492
  105bbb     C5 2629   5.012   8.830   7.251 -0.5747  0.7106  0.4833
  105bbb     H9 2630   4.907   8.859   7.236 -0.4042  1.0345 -0.1251
  105bbb    H10 2631   5.035   8.847   7.357 -0.6872 -2.5465  1.1276
  105bbb     C6 2632   5.136   8.406   7.321  0.2534 -0.2830 -0.0266
  105bbb    H11 2633   5.213   8.442   7.252  2.1683 -2.3969  0.8877
  105bbb    H12 2634   5.166   8.445   7.419 -0.0523 -0.4729  0.1443
  105bbb     C7 2635   5.080   8.918   7.158  0.0311 -0.1621 -0.1285
  105bbb     C8 2636   5.135   8.255   7.316  0.0927  0.5246  0.6297
  105bbb     O1 2637   5.092   8.894   7.039  0.5539  0.0902  0.5771
  105bbb     O2 2638   5.111   8.193   7.213 -0.0903 -0.0487  0.3215
  105bbb     N4 2639   4.696   8.484   7.284 -0.6390  0.0417  0.2728
  105bbb    H21 2640   4.728   8.408   7.342  0.5977  0.2388 -0.1281
  106bbb     C1 2641   4.726   6.832   5.010  0.1443  0.1773  0.0657
  106bbb     H1 2642   4.835   6.822   5.021  0.0741 -3.0530 -0.9947
  106bbb     H2 2643   4.705   6.911   4.937  0.5081  1.4003  1.2537
  106bbb     C2 2644   4.676   6.875   5.151 -0.1004 -0.5377 -0.1349
  106bbb     H3 2645   4.570   6.902   5.146 -0.1459 -0.8656 -1.0382
  106bbb     H4 2646   4.692   6.793   5.224 -0.5747 -0.6080 -0.1064
  106bbb     N1 2647   4.663   6.708   4.966  0.1542  0.2163  0.0561
  106bbb     C3 2648   4.755   6.631   4.879  0.4698  0.1238 -0.2245
  106bbb     H5 2649   4.795   6.694   4.798  1.0770 -1.8865 -1.5672
  106bbb     H6 2650   4.702   6.542   4.845  0.1556  0.3004 -0.1993
  106bbb     C4 2651   4.540   6.743   4.904  0.0928  0.8415  0.0194
  106bbb     H7 2652   4.492   6.828   4.956 -0.6426  0.2650  0.3031
  106bbb     H8 2653   4.546   6.760   4.796 -0.7640 -4.4800 -1.1393
  106bbb     C5 2654   4.435   6.635   4.926 -0.4402  0.0844  0.2670
  106bbb     H9 2655   4.349   6.677   4.871 -1.0944 -1.6506 -0.1102
  106bbb    H10 2656   4.459   6.539   4.878  1.9722  0.7176  0.0878
  106bbb     C6 2657   4.861   6.567   4.968  0.0752 -0.0152 -0.1837
  106bbb    H11 2658   4.939   6.643   4.981 -0.7587  1.0546 -1.1835
  106bbb    H12 2659   4.826   6.549   5.070  0.8507 -2.3869 -0.2878
  106bbb     C7 2660   4.400   6.620   5.069 -0.6064 -0.2283 -0.0427
  106bbb     C8 2661   4.916   6.431   4.928  0.0275 -0.2964 -0.1323
  106bbb     O1 2662   4.344   6.704   5.137 -0.1434  0.4715 -0.1964
  106bbb     O2 2663   4.955   6.398   4.814  0.2582 -0.0976  0.2201
  106bbb     N4 2664   4.725   7.002   5.210  0.6551 -0.4934  0.2387
  106bbb    H21 2665   4.713   7.084   5.151  0.5168 -3.2071 -3.9961
  107bbb     C1 2666   5.554   7.609   5.286  0.9166 -0.8524  0.4675
  107bbb     H1 2667   5.537   7.509   5.246  0.7596 -0.5201 -0.3093
  107bbb     H2 2668   5.568   7.598   5.394 -0.2391 -2.1453  0.5212
  107bbb     C2 2669   5.426   7.676   5.255  0.1625 -0.0206  0.2582
  107bbb     H3 2670   5.427   7.783   5.281  0.7697  0.2978 -0.9901
  107bbb     H4 2671   5.431   7.681   5.145  2.0984  0.3298  0.3192
  107bbb     N1 2672   5.670   7.669   5.220 -0.2709  0.4797 -0.3645
  107bbb     C3 2673   5.674   7.643   5.077  0.1868 -0.1752  0.0471
  107bbb     H5 2674   5.597   7.700   5.024  1.1722 -0.1907 -1.4559
  107bbb     H6 2675   5.662   7.537   5.052 -0.9433 -0.4469  1.5719
  107bbb     C4 2676   5.788   7.606   5.278 -0.4786 -0.1023 -0.3569
  107bbb     H7 2677   5.773   7.497   5.270 -1.1513 -0.0273 -0.1138
  107bbb     H8 2678   5.880   7.635   5.226  0.3548 -0.5850  0.8067
  107bbb     C5 2679   5.812   7.651   5.423 -0.2040 -0.4253 -0.1581
  107bbb     H9 2680   5.794   7.758   5.441 -1.3173 -0.2766 -1.9120
  107bbb    H10 2681   5.744   7.596   5.489 -1.8082  0.8611 -0.6862
  107bbb     C6 2682   5.801   7.702   5.003 -0.5784 -0.2315  0.3528
  107bbb    H11 2683   5.833   7.800   5.042 -0.9957  0.4534 -0.9542
  107bbb    H12 2684   5.880   7.628   5.018 -0.4673  0.1000  1.5051
  107bbb     C7 2685   5.955   7.623   5.460 -0.6985 -0.0852  0.2275
  107bbb     C8 2686   5.775   7.714   4.854 -0.0796 -0.1644 -0.1074
  107bbb     O1 2687   6.016   7.538   5.395 -0.4126  0.3162 -0.2732
  107bbb     O2 2688   5.686   7.778   4.808  0.6670 -0.0903  0.3135
  107bbb     N4 2689   5.302   7.608   5.308 -0.0707  0.4034  0.3477
  107bbb    H21 2690   5.242   7.656   5.374  0.2463  1.6317 -0.2326
  108bbb     C1 2691   4.214   6.088   5.527 -0.1082 -0.3589  0.1735
  108bbb     H1 2692   4.280   6.047   5.605 -0.1405  0.1162  0.4621
  108bbb     H2 2693   4.278   6.163   5.478  0.0203 -0.8155 -0.3544
  108bbb     C2 2694   4.099   6.153   5.593  0.1125  0.0153 -0.3639
  108bbb     H3 2695   4.032   6.198   5.519 -0.1561  0.7369  0.3113
  108bbb     H4 2696   4.046   6.081   5.658 -0.3144 -0.5674 -1.3357
  108bbb     N1 2697   4.181   5.981   5.435  0.1263  0.2245  0.1496
  108bbb     C3 2698   4.304   5.916   5.387 -1.1557  0.0250  0.1455
  108bbb     H5 2699   4.395   5.938   5.444 -0.9566  0.3614 -0.2944
  108bbb     H6 2700   4.332   5.944   5.284 -1.3641 -0.3759 -0.0228
  108bbb     C4 2701   4.085   6.019   5.320  0.4084 -0.1706 -0.3718
  108bbb     H7 2702   4.069   6.128   5.319  1.0727 -0.0671 -0.7119
  108bbb     H8 2703   4.114   5.986   5.220 -4.0820 -0.6155 -1.7132
  108bbb     C5 2704   3.954   5.948   5.361  0.0843 -0.7812 -0.7014
  108bbb     H9 2705   3.988   5.847   5.387  2.3745  0.9058  4.0213
  108bbb    H10 2706   3.903   5.995   5.446 -0.4572  1.0504 -1.9797
  108bbb     C6 2707   4.277   5.765   5.367 -0.1141  0.6204 -0.0161
  108bbb    H11 2708   4.254   5.721   5.465  3.0273 -0.3374  0.3997
  108bbb    H12 2709   4.209   5.732   5.288  0.1487 -1.0428  0.4171
  108bbb     C7 2710   3.857   5.962   5.246  0.4549  0.6848  0.0737
  108bbb     C8 2711   4.413   5.706   5.348  0.0146 -0.5213 -0.2350
  108bbb     O1 2712   3.847   6.052   5.165  0.1117 -0.3310 -0.2983
  108bbb     O2 2713   4.476   5.664   5.443 -0.0474 -0.5491  0.2624
  108bbb     N4 2714   4.137   6.266   5.680  0.6229  0.1701 -0.0915
  108bbb    H21 2715   4.144   6.248   5.780  0.3336 -1.8469 -0.3985
  109bbb     C1 2716   3.846   7.105   6.244  0.2132  0.4685 -0.0553
  109bbb     H1 2717   3.772   7.176   6.282  2.1864  1.7717  1.5260
  109bbb     H2 2718   3.938   7.161   6.223  0.4294  0.5779  1.0820
  109bbb     C2 2719   3.771   7.037   6.122 -0.1901  1.0620 -0.0672
  109bbb     H3 2720   3.700   6.963   6.160  1.3292 -0.8955 -0.8338
  109bbb     H4 2721   3.713   7.110   6.063 -0.1236  0.8515 -0.3991
  109bbb     N1 2722   3.875   7.014   6.351  0.1658 -0.1464 -0.5069
  109bbb     C3 2723   3.870   7.070   6.488  0.4187 -0.0785  0.1170
  109bbb     H5 2724   3.898   7.176   6.489  1.0119 -0.2060 -1.0325
  109bbb     H6 2725   3.933   7.019   6.562 -1.2101 -0.6397  1.1688
  109bbb     C4 2726   4.002   6.944   6.327 -0.3449  0.0981 -0.0568
  109bbb     H7 2727   4.029   6.960   6.222 -2.4317 -0.8682 -0.8067
  109bbb     H8 2728   4.081   6.967   6.399 -1.5758 -1.8785  2.0589
  109bbb     C5 2729   3.971   6.805   6.336  0.5392  0.2131  0.3706
  109bbb     H9 2730   3.900   6.778   6.415  0.4764 -0.5992  0.0504
  109bbb    H10 2731   3.913   6.774   6.249  1.0671  1.1349 -0.3220
  109bbb     C6 2732   3.728   7.058   6.538  0.3226  0.3608 -0.4871
  109bbb    H11 2733   3.667   7.142   6.505 -1.9645 -0.9736  0.0944
  109bbb    H12 2734   3.677   6.969   6.499  0.5889  0.5007 -1.1506
  109bbb     C7 2735   4.095   6.724   6.352  0.0780  0.0632  0.0143
  109bbb     C8 2736   3.723   7.066   6.684 -0.0285 -0.3968  0.0795
  109bbb     O1 2737   4.201   6.767   6.386  0.4917 -0.3438  0.6646
  109bbb     O2 2738   3.716   7.168   6.745 -0.1837 -0.3291  0.2492
  109bbb     N4 2739   3.866   6.960   6.034 -1.2386  0.2679  0.1737
  109bbb    H21 2740   3.965   6.980   6.030 -1.2151  0.1828  0.3339
  110bbb     C1 2741   4.923   8.136   5.183 -0.4281 -0.1590  0.4640
  110bbb     H1 2742   4.824   8.110   5.144  0.6188  0.7510 -3.1615
  110bbb     H2 2743   4.977   8.043   5.206  0.0632  0.3199  1.3032
  110bbb     C2 2744   4.900   8.218   5.308 -0.1439  0.7991  0.6668
  110bbb     H3 2745   4.910   8.156   5.397 -2.2037  1.5349  1.4634
  110bbb     H4 2746   4.975   8.298   5.319  0.6691  0.1558 -0.0441
  110bbb     N1 2747   4.999   8.200   5.074  0.3513 -0.0525 -0.5710
  110bbb     C3 2748   5.000   8.122   4.948 -0.2301  0.0250  0.0863
  110bbb     H5 2749   5.048   8.025   4.966 -0.7753 -0.3592 -0.5168
  110bbb     H6 2750   5.054   8.186   4.877 -0.8564 -1.0186 -1.3739
  110bbb     C4 2751   5.144   8.233   5.107  1.1063  0.2720  0.4535
  110bbb     H7 2752   5.164   8.260   5.212  0.4685 -0.0941  0.6822
  110bbb     H8 2753   5.200   8.142   5.084  0.6102 -0.0922  0.6722
  110bbb     C5 2754   5.185   8.352   5.022  0.1588 -0.6873  0.4249
  110bbb     H9 2755   5.181   8.345   4.913  3.2194  3.1841 -0.1437
  110bbb    H10 2756   5.119   8.433   5.055 -0.2712 -1.8238  2.5665
  110bbb     C6 2757   4.864   8.104   4.879  0.1766 -0.2407 -0.2991
  110bbb    H11 2758   4.796   8.039   4.935  0.4926  0.4081  0.8763
  110bbb    H12 2759   4.800   8.192   4.862 -1.1572 -1.6259 -3.1431
  110bbb     C7 2760   5.313   8.402   5.079 -0.4827 -0.5917  0.6254
  110bbb     C8 2761   4.878   8.046   4.740  0.1403  0.2281  0.1479
  110bbb     O1 2762   5.335   8.421   5.196 -0.5337 -0.7010  0.3153
  110bbb     O2 2763   4.987   8.050   4.685 -0.0132  0.2008 -0.3448
  110bbb     N4 2764   4.773   8.284   5.299  0.1921 -0.4904 -0.6214
  110bbb    H21 2765   4.693   8.226   5.281  1.8973 -2.3402 -2.8957
  111bbb     C1 2766   4.498   8.883   5.034 -0.3619 -0.1905  0.5282
  111bbb     H1 2767   4.520   8.939   4.942  0.9034 -1.1536  0.2294
  111bbb     H2 2768   4.575   8.884   5.111 -0.0375 -0.1508  0.2053
  111bbb     C2 2769   4.454   8.737   4.999  0.4290  0.3874 -0.6637
  111bbb     H3 2770   4.406   8.741   4.901  0.2246  1.7673 -0.5175
  111bbb     H4 2771   4.536   8.664   4.989  0.4550  0.0345  1.5429
  111bbb     N1 2772   4.385   8.970   5.088  0.3896  0.3511 -0.7791
  111bbb     C3 2773   4.437   9.108   5.109  0.0708  0.2585  0.4540
  111bbb     H5 2774   4.359   9.184   5.122  1.7615  2.4019 -1.0931
  111bbb     H6 2775   4.503   9.140   5.028 -0.4364  2.1446  0.7255
  111bbb     C4 2776   4.271   8.968   4.996 -0.4444  0.1012 -0.2324
  111bbb     H7 2777   4.280   9.040   4.914 -0.9387  0.9007  0.4002
  111bbb     H8 2778   4.251   8.869   4.953 -2.5632 -0.0407  0.9782
  111bbb     C5 2779   4.144   9.012   5.068  0.1559 -0.1395 -0.3666
  111bbb     H9 2780   4.122   8.939   5.147 -2.7105  2.9918  1.9918
  111bbb    H10 2781   4.143   9.111   5.115 -1.0398 -0.4210  0.2516
  111bbb     C6 2782   4.518   9.116   5.240 -0.3239 -0.3943 -0.1670
  111bbb    H11 2783   4.449   9.108   5.324  0.9278  1.6282  1.1358
  111bbb    H12 2784   4.594   9.037   5.250  0.0771 -0.0202 -0.2174
  111bbb     C7 2785   4.032   9.011   4.969  0.4330 -0.0207 -0.8190
  111bbb     C8 2786   4.585   9.248   5.247  0.6651 -0.2495 -0.4415
  111bbb     O1 2787   4.048   9.039   4.853  0.1495 -0.7181  0.1985
  111bbb     O2 2788   4.530   9.346   5.299  0.0420 -0.0477 -0.2253
  111bbb     N4 2789   4.360   8.672   5.094 -0.5678  0.3559  0.3568
  111bbb    H21 2790   4.336   8.711   5.185 -0.9664  1.2490 -0.1162
  112bbb     C1 2791   4.225   9.444   5.395 -0.1789 -0.0150  0.1178
  112bbb     H1 2792   4.331   9.458   5.369  0.2294  0.0932  1.7868
  112bbb     H2 2793   4.220   9.416   5.501 -2.7879 -0.8052 -0.1339
  112bbb     C2 2794   4.179   9.312   5.318  0.4101  0.3066 -0.8803
  112bbb     H3 2795   4.184   9.333   5.210  1.3916 -0.3809 -0.9877
  112bbb     H4 2796   4.246   9.228   5.341 -0.3963 -0.3048 -0.7323
  112bbb     N1 2797   4.145   9.564   5.376  0.0878  0.3729  0.4277
  112bbb     C3 2798   4.170   9.672   5.469  0.0859  0.1199 -0.9992
  112bbb     H5 2799   4.140   9.768   5.426  1.1521  0.7948 -0.2957
  112bbb     H6 2800   4.276   9.669   5.499  0.1380 -2.0957 -1.2581
  112bbb     C4 2801   4.150   9.613   5.240 -0.6102 -0.1858  0.4156
  112bbb     H7 2802   4.240   9.673   5.228 -0.6130 -0.5039 -1.5768
  112bbb     H8 2803   4.148   9.528   5.170 -2.5424  0.3917 -0.2965
  112bbb     C5 2804   4.027   9.697   5.200 -0.7880  0.0800  0.4447
  112bbb     H9 2805   3.936   9.645   5.232 -0.0800  0.7704  3.8887
  112bbb    H10 2806   4.033   9.804   5.226  1.0903  0.4713 -1.2622
  112bbb     C6 2807   4.084   9.652   5.601  0.2204  0.4558  0.5932
  112bbb    H11 2808   3.982   9.624   5.572 -0.1465  1.3828  0.9505
  112bbb    H12 2809   4.118   9.560   5.649 -1.1282  0.3337  1.3471
  112bbb     C7 2810   4.032   9.692   5.051 -0.3547  0.6890 -0.1393
  112bbb     C8 2811   4.090   9.760   5.706  0.3951  0.3569  0.0707
  112bbb     O1 2812   4.099   9.765   4.981 -0.2362  0.6097 -1.0083
  112bbb     O2 2813   4.149   9.859   5.686  0.1547 -0.0698 -0.0307
  112bbb     N4 2814   4.041   9.272   5.353  0.3971  0.3864 -0.5883
  112bbb    H21 2815   4.027   9.252   5.451 -0.6831  0.6559 -0.6772
  113bbb     C1 2816   3.033   9.650   5.549  0.0751 -0.8609  0.2937
  113bbb     H1 2817   3.018   9.645   5.658  1.1224  0.5313  0.5336
  113bbb     H2 2818   2.936   9.674   5.505  0.8427 -2.1357 -2.2857
  113bbb     C2 2819   3.077   9.509   5.512 -0.0207  0.3501 -0.0665
  113bbb     H3 2820   3.000   9.436   5.538  0.6472  0.1440  1.4392
  113bbb     H4 2821   3.076   9.504   5.403 -2.3132 -0.5773 -0.0459
  113bbb     N1 2822   3.142   9.752   5.512 -0.3736  0.7967  0.3647
  113bbb     C3 2823   3.105   9.870   5.579  0.4240 -0.0997  0.0316
  113bbb     H5 2824   3.062   9.846   5.677  2.0919 -0.9603  0.5881
  113bbb     H6 2825   3.033   9.927   5.518  0.7494 -0.2939 -0.5359
  113bbb     C4 2826   3.142   9.769   5.365  0.3355  0.3047 -0.2270
  113bbb     H7 2827   3.091   9.687   5.313 -1.3270  2.6542 -2.5682
  113bbb     H8 2828   3.087   9.860   5.340  0.0110  0.8298  2.1879
  113bbb     C5 2829   3.283   9.776   5.310 -0.2221  0.6547 -0.4208
  113bbb     H9 2830   3.329   9.874   5.329 -0.3291  1.1564 -2.5122
  113bbb    H10 2831   3.356   9.709   5.358 -0.7276  0.7097  0.4500
  113bbb     C6 2832   3.226   9.963   5.591 -1.0019 -0.7730  0.2778
  113bbb    H11 2833   3.306   9.899   5.632  0.2320  0.1623 -0.5856
  113bbb    H12 2834   3.268   9.997   5.496 -0.6102  2.8526  1.5878
  113bbb     C7 2835   3.268   9.746   5.165  1.3108  0.2360  0.5801
  113bbb     C8 2836   3.203  10.073   5.686  0.1113  0.1174 -0.0470
  113bbb     O1 2837   3.264   9.832   5.077  0.2812 -0.2300  0.0622
  113bbb     O2 2838   3.246  10.073   5.799  0.1913  0.8108  0.6472
  113bbb     N4 2839   3.212   9.471   5.559  0.4740 -0.0900  0.7019
  113bbb    H21 2840   3.230   9.465   5.659 -0.3174  1.7194  1.0100
  114bbb     C1 2841   6.260   9.032   5.550 -0.4277  0.0733  0.0950
  114bbb     H1 2842   6.184   9.093   5.501 -2.2219 -2.9183 -1.0901
  114bbb     H2 2843   6.225   9.037   5.654 -3.6519  0.4791 -0.8943
  114bbb     C2 2844   6.404   9.098   5.532  0.1748 -0.2685  0.4109
  114bbb     H3 2845   6.471   9.038   5.595 -0.3262 -0.8943  0.3512
  114bbb     H4 2846   6.426   9.091   5.425 -0.0994  1.1867  0.2307
  114bbb     N1 2847   6.263   8.903   5.490  0.0179 -0.1786  0.1353
  114bbb     C3 2848   6.347   8.802   5.550 -0.0659 -0.0560  0.4409
  114bbb     H5 2849   6.314   8.748   5.639  0.4146 -2.2182 -0.6315
  114bbb     H6 2850   6.440   8.852   5.580  0.5300 -0.2178 -1.0265
  114bbb     C4 2851   6.126   8.856   5.445 -0.3921  0.0041  0.6975
  114bbb     H7 2852   6.073   8.945   5.409  0.0125  0.5689  1.4611
  114bbb     H8 2853   6.135   8.784   5.363  0.6173 -0.4189  1.1656
  114bbb     C5 2854   6.050   8.795   5.552 -0.0016 -0.1305  0.1404
  114bbb     H9 2855   6.098   8.702   5.585 -0.0876  0.1173  0.9877
  114bbb    H10 2856   6.041   8.862   5.638  0.8820  2.0636 -1.3906
  114bbb     C6 2857   6.390   8.695   5.442 -0.3662  0.2279 -0.1291
  114bbb    H11 2858   6.305   8.625   5.440 -0.9970  0.9880 -0.4373
  114bbb    H12 2859   6.423   8.748   5.353  0.9987 -0.3138  0.0359
  114bbb     C7 2860   5.912   8.754   5.501  0.0266 -0.6519 -0.0479
  114bbb     C8 2861   6.508   8.620   5.503  0.2156 -0.1186  0.5168
  114bbb     O1 2862   5.891   8.700   5.394  0.5259 -0.5768  0.4567
  114bbb     O2 2863   6.501   8.567   5.611 -0.1218  0.2278  0.4490
  114bbb     N4 2864   6.410   9.237   5.569  0.3245  0.1102 -0.2239
  114bbb    H21 2865   6.325   9.289   5.587 -1.1097 -1.3783 -2.2861
  115bbb     C1 2866   6.415   9.046   4.896 -0.1759  0.1134 -0.1593
  115bbb     H1 2867   6.363   8.952   4.918  0.4602 -0.5803 -1.5195
  115bbb     H2 2868   6.492   9.065   4.971 -0.2244  0.7347 -0.2591
  115bbb     C2 2869   6.317   9.162   4.895  0.6710  0.2157  0.3598
  115bbb     H3 2870   6.344   9.248   4.832 -2.0947  0.3768 -0.6962
  115bbb     H4 2871   6.225   9.126   4.849  0.0062  1.2369  0.8362
  115bbb     N1 2872   6.472   9.038   4.763  0.2281 -0.6586 -0.5192
  115bbb     C3 2873   6.389   8.988   4.659  1.1168 -0.2104  0.5476
  115bbb     H5 2874   6.283   8.989   4.690  0.0571  2.4454 -2.5803
  115bbb     H6 2875   6.427   8.888   4.633  0.5153 -0.7671  1.7239
  115bbb     C4 2876   6.601   8.990   4.753  0.2946 -0.1506  0.5158
  115bbb     H7 2877   6.604   8.892   4.800 -0.0479 -0.9375 -1.0183
  115bbb     H8 2878   6.627   8.980   4.647  2.6699  0.7975  0.9605
  115bbb     C5 2879   6.699   9.084   4.819  0.9674 -0.3416 -0.6713
  115bbb     H9 2880   6.689   9.182   4.771 -0.7667 -0.8799 -1.4910
  115bbb    H10 2881   6.700   9.097   4.928 -1.5884 -0.0005 -0.6198
  115bbb     C6 2882   6.388   9.086   4.544 -0.6553 -0.1091 -0.6568
  115bbb    H11 2883   6.356   9.187   4.570  2.3504  1.2077 -1.5870
  115bbb    H12 2884   6.489   9.091   4.502 -1.4748 -1.8259 -3.0955
  115bbb     C7 2885   6.832   9.035   4.783 -0.5005 -0.6463  0.6591
  115bbb     C8 2886   6.311   9.037   4.427  0.8476  0.2044  0.8143
  115bbb     O1 2887   6.900   9.077   4.692  0.5293 -0.5813 -0.0750
  115bbb     O2 2888   6.204   8.984   4.442 -0.2325  0.0697 -0.2033
  115bbb     N4 2889   6.298   9.214   5.033 -0.5258  0.2342 -0.3363
  115bbb    H21 2890   6.259   9.143   5.094 -0.3307 -0.1252 -0.6300
  116bbb     C1 2891   5.919   9.622   4.818  0.4863 -0.7435 -0.0415
  116bbb     H1 2892   5.816   9.592   4.840 -1.1140  4.4715  0.7746
  116bbb     H2 2893   5.943   9.678   4.909 -1.1140  0.5089 -0.3410
  116bbb     C2 2894   5.898   9.723   4.694 -0.4083  0.1499  0.1409
  116bbb     H3 2895   5.992   9.751   4.646  1.4633 -2.1475  2.2116
  116bbb     H4 2896   5.837   9.669   4.620  0.6166  1.9032 -2.0988
  116bbb     N1 2897   6.005   9.511   4.800 -0.0257  0.2450 -0.1706
  116bbb     C3 2898   5.995   9.422   4.915 -0.4941  0.3804 -0.3033
  116bbb     H5 2899   5.994   9.480   5.008 -0.9778  1.4335 -0.9466
  116bbb     H6 2900   6.080   9.354   4.910 -0.1530  0.6803  1.0886
  116bbb     C4 2901   6.145   9.558   4.788  0.1565  0.9351  0.1432
  116bbb     H7 2902   6.139   9.662   4.753 -2.2892  0.3763 -1.2937
  116bbb     H8 2903   6.202   9.561   4.883 -0.8825 -0.8241  0.8678
  116bbb     C5 2904   6.201   9.467   4.687 -0.4063 -0.4170  0.0922
  116bbb     H9 2905   6.207   9.367   4.733 -0.5099 -0.8992 -0.9035
  116bbb    H10 2906   6.140   9.464   4.596 -3.0763  0.1075  1.7281
  116bbb     C6 2907   5.864   9.333   4.909  0.0317  0.2174  0.3416
  116bbb    H11 2908   5.778   9.401   4.914 -0.5401 -0.4801  0.3139
  116bbb    H12 2909   5.868   9.279   4.814  0.2551  0.5937  0.1345
  116bbb     C7 2910   6.339   9.514   4.642 -0.1747 -0.6652  0.4919
  116bbb     C8 2911   5.853   9.228   5.014  0.3524  0.0654  0.2950
  116bbb     O1 2912   6.369   9.568   4.534 -0.0881 -0.3464  0.6644
  116bbb     O2 2913   5.859   9.109   4.981  0.5266 -0.5692 -0.0706
  116bbb     N4 2914   5.834   9.845   4.751  0.0656  0.3717 -0.4039
  116bbb    H21 2915   5.752   9.833   4.809  0.0940 -1.0628 -0.6244
  117bbb     C1 2916   6.122   9.943   5.309  0.3556 -0.2958 -0.5942
  117bbb     H1 2917   6.035   9.938   5.376 -0.0827 -0.9719 -1.2023
  117bbb     H2 2918   6.208   9.898   5.359 -0.9427 -2.0181  0.2028
  117bbb     C2 2919   6.146  10.093   5.311 -0.3317 -0.3132 -0.4609
  117bbb     H3 2920   6.142  10.133   5.413  0.8136  0.1554 -0.5823
  117bbb     H4 2921   6.247  10.120   5.277 -0.4810 -0.4027 -0.9869
  117bbb     N1 2922   6.093   9.889   5.177 -0.0437  0.1080 -0.6448
  117bbb     C3 2923   6.021   9.765   5.202 -0.0613  0.0078  0.1223
  117bbb     H5 2924   6.064   9.709   5.286  0.1013 -3.5875 -2.1383
  117bbb     H6 2925   6.047   9.700   5.118 -0.9430 -2.5058  1.6737
  117bbb     C4 2926   6.214   9.884   5.092  0.6005 -0.3644  0.2676
  117bbb     H7 2927   6.280   9.965   5.124 -0.3834  0.4949  0.1783
  117bbb     H8 2928   6.263   9.786   5.102 -0.1409 -0.8676 -0.7603
  117bbb     C5 2929   6.178   9.919   4.952 -0.5198 -0.5548  0.5629
  117bbb     H9 2930   6.090   9.861   4.921 -0.2223  0.0421 -1.6205
  117bbb    H10 2931   6.162  10.027   4.939 -0.4955 -0.7186 -1.1377
  117bbb     C6 2932   5.868   9.786   5.201  0.0103  0.3657  0.3180
  117bbb    H11 2933   5.847   9.860   5.279  3.0899  0.2104  1.4466
  117bbb    H12 2934   5.836   9.824   5.103  0.1151 -0.4959 -0.0584
  117bbb     C7 2935   6.288   9.881   4.853 -0.1888 -0.0129 -0.9611
  117bbb     C8 2936   5.797   9.651   5.221 -0.1212 -0.9046  0.3091
  117bbb     O1 2937   6.376   9.805   4.880  0.0932  0.0718  0.0194
  117bbb     O2 2938   5.852   9.545   5.247 -0.1204  0.1536 -0.3714
  117bbb     N4 2939   6.052  10.165   5.221 -0.5150 -0.4010  0.2336
  117bbb    H21 2940   6.054  10.140   5.123  2.2401 -1.1626  0.4027
  118bbb     C1 2941   4.375   7.538   6.305 -0.1845  0.4926 -0.0766
  118bbb     H1 2942   4.398   7.591   6.211 -0.7569  0.5873 -0.1725
  118bbb     H2 2943   4.304   7.612   6.345 -1.0971  0.4184 -1.4836
  118bbb     C2 2944   4.500   7.539   6.397  0.4954  0.1058  0.7614
  118bbb     H3 2945   4.480   7.476   6.485  0.8237  0.6623  1.2394
  118bbb     H4 2946   4.585   7.495   6.343 -0.1288 -0.6562  0.3704
  118bbb     N1 2947   4.318   7.402   6.285  0.6878 -0.0583  0.0581
  118bbb     C3 2948   4.414   7.293   6.255  0.1680  0.3519  0.6961
  118bbb     H5 2949   4.496   7.290   6.328  1.5865 -2.4653 -0.8586
  118bbb     H6 2950   4.462   7.320   6.159 -1.9543 -0.4469 -0.6657
  118bbb     C4 2951   4.203   7.407   6.198 -0.0055  0.1549 -0.4091
  118bbb     H7 2952   4.231   7.461   6.106  0.0703  0.6280 -0.1098
  118bbb     H8 2953   4.172   7.304   6.181  2.0754 -0.6907  0.5806
  118bbb     C5 2954   4.086   7.482   6.267 -0.2513  0.5706 -0.1723
  118bbb     H9 2955   4.084   7.434   6.366  3.0461  0.6906  0.0532
  118bbb    H10 2956   4.103   7.589   6.277  2.0608  0.3771 -1.3920
  118bbb     C6 2957   4.362   7.154   6.257 -0.6108  0.7280  0.1322
  118bbb    H11 2958   4.311   7.128   6.351 -0.5500 -1.1551 -0.3048
  118bbb    H12 2959   4.295   7.138   6.171  0.6700  2.6209 -1.2961
  118bbb     C7 2960   3.963   7.464   6.192  0.1418 -0.0732  0.0246
  118bbb     C8 2961   4.477   7.059   6.244  0.3985  0.3288 -0.2192
  118bbb     O1 2962   3.958   7.423   6.076  0.5581 -0.2401  0.0715
  118bbb     O2 2963   4.550   7.056   6.148  0.1763  0.1558  0.5986
  118bbb     N4 2964   4.539   7.676   6.427 -0.0523  0.0566 -0.3922
  118bbb    H21 2965   4.610   7.724   6.373  1.7738 -1.7123  0.3161
  119bbb     C1 2966   5.037   8.502   6.837 -0.2158  0.5054 -0.1802
  119bbb     H1 2967   4.987   8.562   6.914  0.8825 -0.2199  1.1473
  119bbb     H2 2968   4.986   8.517   6.741 -1.2422  1.1192  0.4428
  119bbb     C2 2969   5.007   8.354   6.866 -0.0837 -0.6867 -0.0994
  119bbb     H3 2970   5.078   8.310   6.796 -0.9084 -1.3764 -0.5087
  119bbb     H4 2971   5.029   8.329   6.971  1.4766  4.5314  1.1742
  119bbb     N1 2972   5.182   8.530   6.842  0.3900  0.4820  0.5357
  119bbb     C3 2973   5.239   8.514   6.972 -0.3047 -0.1656 -0.7152
  119bbb     H5 2974   5.171   8.490   7.055  1.3750 -1.3366  0.4233
  119bbb     H6 2975   5.302   8.600   6.996  0.0233 -0.4483 -0.5428
  119bbb     C4 2976   5.232   8.656   6.779  0.2887  0.1990 -0.0522
  119bbb     H7 2977   5.205   8.735   6.851 -1.9553 -1.1755  0.7279
  119bbb     H8 2978   5.340   8.639   6.771  0.6128  1.7721  0.4865
  119bbb     C5 2979   5.170   8.670   6.639 -0.0324  0.3053 -0.9107
  119bbb     H9 2980   5.192   8.582   6.578  0.3531 -0.7352  0.6850
  119bbb    H10 2981   5.061   8.671   6.645 -0.0132  0.6912 -0.5375
  119bbb     C6 2982   5.333   8.394   6.947  0.3343  0.1774 -0.6101
  119bbb    H11 2983   5.277   8.304   6.918 -0.9346  0.3386  1.1725
  119bbb    H12 2984   5.415   8.417   6.878  1.1819 -0.5685  0.1303
  119bbb     C7 2985   5.216   8.795   6.575 -0.7696 -0.8997 -0.0358
  119bbb     C8 2986   5.400   8.362   7.070 -0.0379 -0.1859  0.7644
  119bbb     O1 2987   5.178   8.908   6.607  0.3104  0.2068  0.3969
  119bbb     O2 2988   5.418   8.434   7.163 -0.1279  0.1650 -0.8639
  119bbb     N4 2989   4.870   8.311   6.831 -0.1677  0.1034  0.3643
  119bbb    H21 2990   4.795   8.378   6.823  0.4239  0.6756 -0.6196
  120bbb     C1 2991   5.231   9.318   7.805 -0.0674  0.1173 -0.0229
  120bbb     H1 2992   5.327   9.368   7.788  0.8236 -1.6448 -0.4616
  120bbb     H2 2993   5.246   9.252   7.891 -1.7216  0.9462  0.9369
  120bbb     C2 2994   5.195   9.232   7.672  0.5830  0.3474  0.2157
  120bbb     H3 2995   5.194   9.299   7.585 -0.2780 -0.8473 -0.7257
  120bbb     H4 2996   5.278   9.170   7.635  0.1780 -0.1078  0.0583
  120bbb     N1 2997   5.131   9.421   7.821 -0.1336  0.2726 -0.1970
  120bbb     C3 2998   5.124   9.534   7.734  0.3098 -0.6376  0.0025
  120bbb     H5 2999   5.204   9.516   7.662  0.0325 -0.3644 -0.3829
  120bbb     H6 3000   5.146   9.628   7.786 -0.6657  0.3973 -1.3800
  120bbb     C4 3001   5.137   9.449   7.968 -0.8796 -0.0349  0.5735
  120bbb     H7 3002   5.120   9.354   8.022  0.8097  0.1929  1.5994
  120bbb     H8 3003   5.240   9.484   7.984 -0.4701 -1.5119  1.4211
  120bbb     C5 3004   5.034   9.548   8.018  0.3725  0.4002  0.2112
  120bbb     H9 3005   5.040   9.644   7.966  1.2742 -0.6742 -1.8286
  120bbb    H10 3006   4.934   9.509   7.994 -0.5479  3.3565 -1.1129
  120bbb     C6 3007   4.982   9.534   7.681  0.2096 -0.8117  0.1922
  120bbb    H11 3008   4.972   9.431   7.646 -0.0020 -1.1131  1.0927
  120bbb    H12 3009   4.899   9.570   7.744 -0.7797 -0.9842 -0.9840
  120bbb     C7 3010   5.054   9.576   8.167  0.0083  0.8559  0.1184
  120bbb     C8 3011   4.989   9.624   7.563 -0.0441  0.5018  0.5334
  120bbb     O1 3012   4.977   9.540   8.251  0.4839 -0.2535  0.3182
  120bbb     O2 3013   5.053   9.728   7.565  0.4298 -0.6259  0.5878
  120bbb     N4 3014   5.066   9.156   7.682  0.2782  0.4146  0.3860
  120bbb    H21 3015   5.034   9.114   7.769  0.8898 -1.2722 -0.1487
  121bbb     C1 3016   4.759   8.496   8.096  0.3964  0.4223  0.2021
  121bbb     H1 3017   4.754   8.588   8.155 -1.1992 -0.5302  1.6847
  121bbb     H2 3018   4.856   8.481   8.047  0.3216 -0.3837  0.2812
  121bbb     C2 3019   4.651   8.504   7.990  0.5269  0.2777  0.4400
  121bbb     H3 3020   4.654   8.408   7.936 -0.0370  0.2741  0.4020
  121bbb     H4 3021   4.555   8.518   8.041  0.7879  0.0264  1.0114
  121bbb     N1 3022   4.730   8.374   8.181  0.6987  0.1275 -0.0889
  121bbb     C3 3023   4.845   8.325   8.260  0.1581  0.3584  0.2613
  121bbb     H5 3024   4.816   8.258   8.342 -1.2756  0.6116 -0.0166
  121bbb     H6 3025   4.903   8.408   8.302  0.8526  0.3331 -0.6093
  121bbb     C4 3026   4.614   8.389   8.271 -0.2089  0.2315  0.1904
  121bbb     H7 3027   4.649   8.441   8.361  1.5038 -1.5493  0.6175
  121bbb     H8 3028   4.541   8.456   8.224 -0.6670 -2.0812 -2.6494
  121bbb     C5 3029   4.556   8.255   8.318 -0.0591 -0.1678 -0.6990
  121bbb     H9 3030   4.574   8.182   8.237  2.4065 -0.4476  0.0263
  121bbb    H10 3031   4.619   8.229   8.404 -3.4027 -1.7180  1.4998
  121bbb     C6 3032   4.934   8.233   8.173 -0.1676 -0.5246  0.1096
  121bbb    H11 3033   4.933   8.136   8.225 -0.3138  0.1278  1.3636
  121bbb    H12 3034   4.886   8.220   8.076 -0.5941  0.4940  0.1688
  121bbb     C7 3035   4.410   8.263   8.358 -0.1919 -0.4291  0.0514
  121bbb     C8 3036   5.076   8.282   8.161  0.3709 -0.5895 -0.7262
  121bbb     O1 3037   4.321   8.309   8.290  0.6413 -0.1191  0.0947
  121bbb     O2 3038   5.105   8.401   8.154 -1.1713  0.1375  0.3231
  121bbb     N4 3039   4.681   8.609   7.889  0.3958  0.8722  0.5573
  121bbb    H21 3040   4.776   8.606   7.853 -0.2724  2.8305 -1.5692
  122bbb     C1 3041   3.733   9.926   5.000 -0.5224 -0.0936 -0.3687
  122bbb     H1 3042   3.681   9.888   4.911  0.1895 -2.0899  0.0081
  122bbb     H2 3043   3.808   9.855   5.037 -1.5666 -0.5179  1.0687
  122bbb     C2 3044   3.624   9.922   5.111 -0.7038 -0.0673  0.6667
  122bbb     H3 3045   3.547   9.992   5.076 -1.3920 -1.2372 -0.2669
  122bbb     H4 3046   3.573   9.824   5.112 -1.3851  0.2672 -0.0504
  122bbb     N1 3047   3.795  10.060   4.998 -0.4953  0.8380  0.4544
  122bbb     C3 3048   3.704  10.160   4.951  0.2527 -0.9029 -0.0165
  122bbb     H5 3049   3.604  10.119   4.929  0.3918 -1.0556 -0.3832
  122bbb     H6 3050   3.740  10.192   4.852 -0.0947 -0.1054  0.1149
  122bbb     C4 3051   3.916  10.044   4.915  0.1374 -0.2026 -0.2333
  122bbb     H7 3052   3.972   9.958   4.951  1.5670  0.8786  0.2296
  122bbb     H8 3053   3.893  10.020   4.810 -1.5422 -0.3061  0.1203
  122bbb     C5 3054   4.003  10.168   4.910 -0.4067 -0.6113  0.0039
  122bbb     H9 3055   3.948  10.246   4.856  1.3343 -1.0886 -2.6630
  122bbb    H10 3056   4.023  10.203   5.012 -0.6908 -1.0516  0.2145
  122bbb     C6 3057   3.700  10.288   5.037 -0.6270 -1.3617 -0.2395
  122bbb    H11 3058   3.644  10.265   5.128 -0.9218 -0.2135 -0.1161
  122bbb    H12 3059   3.802  10.320   5.059 -0.7426 -0.3723 -1.0392
  122bbb     C7 3060   4.123  10.132   4.833 -0.6802  0.2191  0.3596
  122bbb     C8 3061   3.616  10.391   4.951  0.1101  1.1721 -0.7432
  122bbb     O1 3062   4.125  10.064   4.724 -0.1111  0.1348 -0.2431
  122bbb     O2 3063   3.676  10.462   4.874  0.5794 -0.2404 -0.1913
  122bbb     N4 3064   3.679   9.955   5.243 -0.9029 -0.1926 -0.3714
  122bbb    H21 3065   3.717  10.047   5.263  0.5691 -1.2272  2.0759
  123bbb     C1 3066   4.153  10.472   5.461  0.1250 -0.1930  0.2282
  123bbb     H1 3067   4.250  10.523   5.462  0.3392 -0.5979  0.4717
  123bbb     H2 3068   4.067  10.530   5.426 -0.8231 -1.6740  0.0337
  123bbb     C2 3069   4.112  10.459   5.609 -0.3108  0.1287  0.0400
  123bbb     H3 3070   4.201  10.439   5.671  0.0546  1.2756 -0.0889
  123bbb     H4 3071   4.074  10.555   5.647  1.6381  1.2848 -0.7297
  123bbb     N1 3072   4.154  10.344   5.386  0.1893 -0.0003 -0.1443
  123bbb     C3 3073   4.176  10.371   5.245  0.0939  0.7516 -0.3058
  123bbb     H5 3074   4.196  10.275   5.195  0.6131  0.6555  0.0791
  123bbb     H6 3075   4.266  10.431   5.229  0.1862  1.1082  1.3849
  123bbb     C4 3076   4.267  10.264   5.431  0.1640 -0.2687 -0.2698
  123bbb     H7 3077   4.351  10.276   5.362  0.8403 -0.5296  0.4861
  123bbb     H8 3078   4.312  10.288   5.528 -0.8945 -0.4489  0.2877
  123bbb     C5 3079   4.223  10.121   5.427 -0.7189 -0.1864 -0.4751
  123bbb     H9 3080   4.166  10.088   5.515  3.4844  0.1862  2.6736
  123bbb    H10 3081   4.183  10.084   5.332  0.8094 -1.9570 -0.4905
  123bbb     C6 3082   4.058  10.441   5.176  0.6895  0.4988 -0.4614
  123bbb    H11 3083   3.967  10.386   5.201  0.0955  2.0846  1.0151
  123bbb    H12 3084   4.040  10.538   5.222 -2.7904 -0.3638  0.2968
  123bbb     C7 3085   4.346  10.047   5.461  0.4627  0.1403  0.0601
  123bbb     C8 3086   4.086  10.468   5.033  0.1435 -0.0569  0.5526
  123bbb     O1 3087   4.406  10.073   5.564 -0.5317  0.0981  0.4708
  123bbb     O2 3088   4.183  10.427   4.976  0.0816  0.0875 -0.3982
  123bbb     N4 3089   4.001  10.359   5.638  0.3233 -0.8754 -0.0064
  123bbb    H21 3090   3.989  10.288   5.567  2.2620 -1.6521  0.3698
  124bbb     C1 3091   3.336   9.640   6.628 -0.0833  0.0617 -0.3228
  124bbb     H1 3092   3.352   9.538   6.664  0.1460  0.3489  0.4123
  124bbb     H2 3093   3.381   9.703   6.706  1.1665 -0.6115 -0.4715
  124bbb     C2 3094   3.192   9.668   6.619  0.3089  0.7767  0.2055
  124bbb     H3 3095   3.147   9.657   6.719  2.3574 -1.0358  0.9922
  124bbb     H4 3096   3.180   9.776   6.603 -1.3574  0.4593 -0.8628
  124bbb     N1 3097   3.407   9.644   6.497 -0.3331  0.3970  0.7010
  124bbb     C3 3098   3.543   9.590   6.498  0.3001  0.1740  0.1533
  124bbb     H5 3099   3.607   9.643   6.570  1.8368  0.5763 -1.4290
  124bbb     H6 3100   3.597   9.615   6.406  2.5007  2.4099  1.9140
  124bbb     C4 3101   3.397   9.783   6.441 -0.2975  0.0610  0.1589
  124bbb     H7 3102   3.302   9.832   6.463  0.0958  1.0440 -0.2714
  124bbb     H8 3103   3.481   9.846   6.475 -0.4885  0.1805  0.4117
  124bbb     C5 3104   3.400   9.768   6.283 -0.3869 -0.2879 -1.4161
  124bbb     H9 3105   3.461   9.681   6.254  3.0052  0.9450  1.3114
  124bbb    H10 3106   3.296   9.759   6.249 -1.8752 -2.1660  2.8137
  124bbb     C6 3107   3.535   9.435   6.510 -0.8757 -0.8474  0.0039
  124bbb    H11 3108   3.635   9.393   6.492 -0.9410 -0.4442 -1.3933
  124bbb    H12 3109   3.508   9.411   6.614 -1.3745  0.3913  0.1717
  124bbb     C7 3110   3.460   9.890   6.222  0.5713  0.2396  0.1947
  124bbb     C8 3111   3.451   9.375   6.404 -0.0894  0.0496  1.0232
  124bbb     O1 3112   3.574   9.924   6.235 -0.0893 -0.5370 -0.1126
  124bbb     O2 3113   3.479   9.370   6.285 -0.3516 -0.6426  0.0080
  124bbb     N4 3114   3.114   9.612   6.512 -0.0297  0.3951  0.3100
  124bbb    H21 3115   3.090   9.679   6.440  3.0090 -0.6990 -1.9256
  125bbb     C1 3116   2.766   8.674   6.286 -0.0244 -0.4265  0.1515
  125bbb     H1 3117   2.745   8.576   6.240 -0.3510 -0.2446 -0.0862
  125bbb     H2 3118   2.688   8.691   6.361  0.5955 -0.3240  0.7834
  125bbb     C2 3119   2.747   8.778   6.171 -0.1274  0.5638  0.3984
  125bbb     H3 3120   2.805   8.741   6.086 -0.0381 -0.0188  0.7056
  125bbb     H4 3121   2.645   8.784   6.132 -0.3271  0.4011  0.8822
  125bbb     N1 3122   2.895   8.668   6.357  0.1457  0.1553 -0.0031
  125bbb     C3 3123   2.904   8.775   6.455 -0.1166 -0.3482 -0.0806
  125bbb     H5 3124   2.805   8.817   6.475  0.0424 -0.5107  1.1484
  125bbb     H6 3125   2.968   8.855   6.416  0.4035 -1.3192 -1.2772
  125bbb     C4 3126   3.007   8.667   6.267  0.0587  0.3978  0.4395
  125bbb     H7 3127   2.996   8.745   6.190 -0.5056 -0.6541 -0.5872
  125bbb     H8 3128   3.091   8.696   6.330  1.1632 -1.5186 -0.0911
  125bbb     C5 3129   3.022   8.528   6.200 -1.0257  0.1081 -0.2273
  125bbb     H9 3130   3.055   8.456   6.276 -0.7988  0.0836 -0.3480
  125bbb    H10 3131   2.934   8.493   6.146 -0.2881  0.1957 -1.5284
  125bbb     C6 3132   2.957   8.708   6.580  0.6403 -0.4872 -0.6432
  125bbb    H11 3133   2.897   8.618   6.595 -2.2428  1.3868  0.0603
  125bbb    H12 3134   3.063   8.683   6.565  0.1228 -3.6521  0.2715
  125bbb     C7 3135   3.139   8.544   6.099  0.1692 -0.6619 -0.6367
  125bbb     C8 3136   2.952   8.796   6.695  0.9263 -0.9472 -0.2984
  125bbb     O1 3137   3.188   8.647   6.061  0.5718  0.0963 -0.0122
  125bbb     O2 3138   2.998   8.908   6.694  0.5001  0.0225 -0.0278
  125bbb     N4 3139   2.780   8.921   6.208 -0.4557  0.4426 -0.4318
  125bbb    H21 3140   2.877   8.952   6.201 -0.6795  1.4722  0.6919
  126ccc     C1 3141   2.404   6.994   7.752  0.2311 -0.8951  0.0358
  126ccc     H1 3142   2.463   6.947   7.832  0.5443 -0.7176 -0.0924
  126ccc     H2 3143   2.315   7.036   7.799  1.1415  2.8580 -1.2509
  126ccc     C2 3144   2.359   6.886   7.659  0.3018 -0.3735  1.0002
  126ccc     H3 3145   2.447   6.830   7.624  0.8155  0.4440  0.9627
  126ccc     H4 3146   2.306   6.814   7.723 -0.2723  0.3715  1.3869
  126ccc     N1 3147   2.283   6.937   7.548 -0.5154 -0.0874  0.4703
  126ccc     H5 3148   2.226   7.008   7.594  1.8605  2.1280  0.2437
  126ccc     H6 3149   2.345   6.990   7.487 -1.3863  0.5756  0.1470
  126ccc     N2 3150   2.471   7.113   7.694 -0.2544 -0.0888 -0.2453
  126ccc     H7 3151   2.522   7.103   7.607  0.0185  0.6736 -0.1815
  127ccc     C1 3152   2.433   8.025   7.501 -0.1313 -0.0598 -0.1376
  127ccc     H1 3153   2.508   8.083   7.556 -0.3767  0.1587 -0.0295
  127ccc     H2 3154   2.449   8.047   7.395 -0.6642  0.3034 -0.1451
  127ccc     C2 3155   2.298   8.079   7.551 -0.8240 -0.4405 -0.5337
  127ccc     H3 3156   2.281   8.041   7.652  0.2153 -2.8491 -1.1982
  127ccc     H4 3157   2.292   8.189   7.553 -0.7271 -0.4448  1.0656
  127ccc     N1 3158   2.195   8.010   7.473  0.1048 -0.1458 -0.3442
  127ccc     H5 3159   2.224   7.917   7.502  1.9935  1.0849  2.0689
  127ccc     H6 3160   2.106   8.014   7.524 -0.5686 -4.1378 -0.9080
  127ccc     N2 3161   2.464   7.884   7.533  0.0138 -0.6575  0.3894
  127ccc     H7 3162   2.435   7.846   7.622 -1.2413 -1.1022 -0.1829
  128ccc     C1 3163   2.792   6.388   7.264  0.3370 -0.4697 -0.0409
  128ccc     H1 3164   2.741   6.376   7.361 -0.1305  1.0955 -0.0650
  128ccc     H2 3165   2.724   6.416   7.183  0.2580 -0.7813 -0.0845
  128ccc     C2 3166   2.824   6.242   7.218  0.3132  0.2676 -0.6384
  128ccc     H3 3167   2.737   6.174   7.220  0.7119 -0.4645 -3.6411
  128ccc     H4 3168   2.854   6.241   7.112  0.2146 -1.5707 -0.6903
  128ccc     N1 3169   2.928   6.186   7.307 -0.3917 -0.0615 -0.2612
  128ccc     H5 3170   2.996   6.262   7.303 -1.3524  0.8701  0.4518
  128ccc     H6 3171   2.886   6.193   7.400 -0.2603 -1.5313 -0.0699
  128ccc     N2 3172   2.904   6.482   7.267 -0.3379 -0.2970 -0.2970
  128ccc     H7 3173   2.993   6.467   7.221  0.0777  2.2364 -0.4401
  129ccc     C1 3174   3.379   6.864   8.023 -0.1315  0.5086  0.0024
  129ccc     H1 3175   3.455   6.785   8.018  0.0935  0.6285  1.2222
  129ccc     H2 3176   3.440   6.951   7.995  0.5712 -0.4459 -1.5639
  129ccc     C2 3177   3.321   6.881   8.162 -0.4952  0.9839 -0.0455
  129ccc     H3 3178   3.406   6.900   8.229  0.0558 -1.0622 -0.1161
  129ccc     H4 3179   3.258   6.971   8.160 -0.5912  0.9441 -3.3005
  129ccc     N1 3180   3.248   6.755   8.199 -0.1928 -0.7495  1.1764
  129ccc     H5 3181   3.166   6.754   8.139 -0.2415  2.1727  1.0327
  129ccc     H6 3182   3.310   6.684   8.161  0.3122 -1.0189  2.4703
  129ccc     N2 3183   3.286   6.845   7.911  0.3794 -0.0377  0.1738
  129ccc     H7 3184   3.200   6.790   7.910 -1.5418  2.7136 -2.2096
  130ccc     C1 3185   6.021   6.505   7.686  0.0718  0.1195  0.7248
  130ccc     H1 3186   6.043   6.530   7.582 -3.6952 -0.8678 -0.4587
  130ccc     H2 3187   6.109   6.507   7.752  0.0770 -0.7897  0.7553
  130ccc     C2 3188   5.978   6.362   7.700  0.4911  0.0117 -0.3914
  130ccc     H3 3189   5.904   6.334   7.624  0.0723 -0.0575  0.0361
  130ccc     H4 3190   6.066   6.297   7.693 -1.5362 -3.0987  0.7825
  130ccc     N1 3191   5.924   6.342   7.837  0.1747  0.1283 -0.5256
  130ccc     H5 3192   5.828   6.375   7.827  0.7020  1.5796 -0.9912
  130ccc     H6 3193   5.898   6.244   7.849 -1.5485  0.7724  1.4383
  130ccc     N2 3194   5.914   6.603   7.741 -0.2753 -0.7517  0.4667
  130ccc     H7 3195   5.829   6.568   7.784 -0.0407 -2.0082 -0.0483
  131ccc     C1 3196   5.796   7.567   7.944 -0.0137  0.1130  0.0525
  131ccc     H1 3197   5.853   7.547   8.036 -1.5494  0.1402  1.0489
  131ccc     H2 3198   5.867   7.597   7.866  0.3674  1.5795  0.9286
  131ccc     C2 3199   5.715   7.696   7.979 -0.3998 -0.0665  0.3256
  131ccc     H3 3200   5.643   7.665   8.056 -0.6253  3.0114  1.4940
  131ccc     H4 3201   5.776   7.778   8.016 -0.3015  0.4841 -0.9843
  131ccc     N1 3202   5.651   7.746   7.859  0.3283 -0.3558 -0.4374
  131ccc     H5 3203   5.724   7.769   7.791 -0.7771  1.1874 -1.1723
  131ccc     H6 3204   5.606   7.667   7.815 -3.8955  0.8870  1.1919
  131ccc     N2 3205   5.715   7.442   7.917 -0.0755 -0.4553  0.0904
  131ccc     H7 3206   5.731   7.360   7.975  0.7638 -0.7940 -0.6004
  132ccc     C1 3207   5.323   5.844   6.907  0.0422  0.1990 -0.1040
  132ccc     H1 3208   5.431   5.824   6.915 -0.1924 -1.0225  0.3516
  132ccc     H2 3209   5.282   5.831   7.008 -0.9379  0.6015 -0.4408
  132ccc     C2 3210   5.266   5.741   6.819  0.2096 -0.0699  0.0816
  132ccc     H3 3211   5.320   5.748   6.724 -1.0797  0.9342 -0.6260
  132ccc     H4 3212   5.276   5.638   6.854  0.1296 -0.3154 -0.5985
  132ccc     N1 3213   5.120   5.748   6.810  0.1275 -0.3229 -0.6041
  132ccc     H5 3214   5.099   5.844   6.784  1.1934  0.0024 -0.3319
  132ccc     H6 3215   5.113   5.708   6.717 -0.4848 -0.7359 -0.3851
  132ccc     N2 3216   5.286   5.981   6.864  0.3133 -0.0348  0.0523
  132ccc     H7 3217   5.275   6.009   6.767 -0.3285  0.4381  0.2527
  133ccc     C1 3218   4.748   6.354   6.507 -0.2911 -0.0827  0.0247
  133ccc     H1 3219   4.712   6.256   6.541 -0.2470  0.3900  1.5354
  133ccc     H2 3220   4.669   6.430   6.514  0.9401  1.2697 -0.2695
  133ccc     C2 3221   4.781   6.340   6.354 -0.0598 -0.1855  0.4792
  133ccc     H3 3222   4.860   6.266   6.332  0.2775  0.2874  0.0696
  133ccc     H4 3223   4.693   6.314   6.293 -1.0314 -0.0974  1.8156
  133ccc     N1 3224   4.806   6.483   6.307 -0.4733  0.1930 -0.2831
  133ccc     H5 3225   4.883   6.505   6.369 -0.4549 -1.4772  0.3357
  133ccc     H6 3226   4.863   6.476   6.223 -0.8029  0.0480 -0.4964
  133ccc     N2 3227   4.858   6.399   6.597 -0.8356 -0.5457  0.3655
  133ccc     H7 3228   4.947   6.352   6.602  0.8687  2.4233  0.0322
  134ccc     C1 3229   3.655   9.090   7.341 -0.3411 -0.0351 -0.8456
  134ccc     H1 3230   3.669   8.986   7.309 -0.4084 -0.1756 -0.4238
  134ccc     H2 3231   3.693   9.104   7.443  1.3641  0.7034 -1.5505
  134ccc     C2 3232   3.507   9.111   7.355  0.7456 -0.4237 -0.2160
  134ccc     H3 3233   3.448   9.034   7.406  1.0602 -0.9339 -0.6108
  134ccc     H4 3234   3.496   9.206   7.408 -5.3816 -0.4807 -0.7144
  134ccc     N1 3235   3.450   9.128   7.215  0.2120 -0.3079 -0.4394
  134ccc     H5 3236   3.507   9.202   7.174  1.0340 -0.1333  0.9374
  134ccc     H6 3237   3.499   9.050   7.172 -1.4494 -1.3041 -0.6204
  134ccc     N2 3238   3.723   9.189   7.256 -0.6558  0.3498  0.6865
  134ccc     H7 3239   3.673   9.277   7.245 -2.1643 -0.3863  1.3076
  135ccc     C1 3240   4.566   9.310   7.091  0.1063 -0.0903 -0.7866
  135ccc     H1 3241   4.534   9.375   7.009 -1.2223 -0.3809 -0.5317
  135ccc     H2 3242   4.628   9.370   7.158  0.8286 -2.1044  0.4255
  135ccc     C2 3243   4.650   9.191   7.026  0.4935 -0.0681 -0.3805
  135ccc     H3 3244   4.667   9.116   7.104 -1.1492  1.1690  1.2678
  135ccc     H4 3245   4.583   9.148   6.950 -1.4978  1.0684  0.6391
  135ccc     N1 3246   4.780   9.238   6.973  0.0287  0.2768  0.0870
  135ccc     H5 3247   4.757   9.325   6.925  1.0726  0.1281 -0.7173
  135ccc     H6 3248   4.817   9.266   7.064  1.9818 -2.9794  0.4295
  135ccc     N2 3249   4.441   9.273   7.166 -0.0012 -0.5122 -0.1765
  135ccc     H7 3250   4.356   9.261   7.111  0.4840 -0.2579 -1.0042
  136ccc     C1 3251   3.957   8.441   6.351 -0.0554  0.4700 -0.0519
  136ccc     H1 3252   3.858   8.406   6.320  1.2417 -2.3317 -1.4212
  136ccc     H2 3253   3.964   8.522   6.278 -4.3308  1.1123  0.0114
  136ccc     C2 3254   4.059   8.334   6.320 -0.0078  0.8373  0.4673
  136ccc     H3 3255   4.042   8.238   6.371  1.7932 -0.1800 -0.7541
  136ccc     H4 3256   4.047   8.316   6.212  0.9877 -1.5647  0.6887
  136ccc     N1 3257   4.190   8.383   6.346 -0.2660 -0.1620  0.3854
  136ccc     H5 3258   4.196   8.387   6.447 -1.2898 -0.7999  0.4762
  136ccc     H6 3259   4.258   8.310   6.325  0.6514  0.4584  1.1059
  136ccc     N2 3260   3.966   8.492   6.483  0.2973  0.0810 -0.6102
  136ccc     H7 3261   4.051   8.545   6.500  1.1266 -1.6667  1.0042
  137ccc     C1 3262   3.351   8.903   6.899  0.5356  0.4943 -0.4826
  137ccc     H1 3263   3.383   9.007   6.916 -0.0283  0.6494 -0.3489
  137ccc     H2 3264   3.334   8.897   6.791  0.3892 -1.3416 -0.3902
  137ccc     C2 3265   3.215   8.884   6.972 -0.5710  0.4134  0.0166
  137ccc     H3 3266   3.140   8.952   6.929  1.2583  2.8579  0.4667
  137ccc     H4 3267   3.175   8.782   6.968 -0.7841  0.5095 -0.3399
  137ccc     N1 3268   3.238   8.897   7.115 -0.0453 -0.5092  0.0216
  137ccc     H5 3269   3.143   8.870   7.140  0.1563  0.8395  2.6449
  137ccc     H6 3270   3.296   8.817   7.142  1.1662  0.0421 -0.8787
  137ccc     N2 3271   3.456   8.808   6.935  0.2437  0.0310  0.2141
  137ccc     H7 3272   3.445   8.713   6.902 -0.1764  0.2170 -0.1795
  138ccc     C1 3273   2.795   6.897   8.025 -0.2420  0.1483 -0.2199
  138ccc     H1 3274   2.861   6.977   8.061  1.1061 -1.4492  1.0018
  138ccc     H2 3275   2.708   6.906   8.091  1.1155 -0.3088  1.7296
  138ccc     C2 3276   2.863   6.769   8.075 -0.3950 -0.0687 -0.1680
  138ccc     H3 3277   2.867   6.767   8.185  1.0898  0.7545 -0.1726
  138ccc     H4 3278   2.814   6.675   8.050  0.8051 -1.2437  1.6516
  138ccc     N1 3279   3.005   6.775   8.023  0.5599 -0.4661  0.2297
  138ccc     H5 3280   2.997   6.737   7.929  0.6542 -0.0417  0.0448
  138ccc     H6 3281   3.013   6.874   7.999 -0.5581 -1.0719 -3.3163
  138ccc     N2 3282   2.778   6.922   7.879 -0.2460  0.0336  0.1008
  138ccc     H7 3283   2.699   6.885   7.827  0.5650  2.0285 -2.7959
  139ccc     C1 3284   2.350   6.956   7.189 -0.3004 -0.0352  0.8530
  139ccc     H1 3285   2.294   7.003   7.271  0.3222 -1.0378  1.8939
  139ccc     H2 3286   2.334   7.017   7.100  0.4668 -1.7292 -0.4955
  139ccc     C2 3287   2.285   6.828   7.159  0.3700  0.7392  0.0015
  139ccc     H3 3288   2.187   6.845   7.113  1.6083  0.5430 -2.9324
  139ccc     H4 3289   2.338   6.775   7.079 -1.3576  0.0660 -0.7289
  139ccc     N1 3290   2.274   6.750   7.279  0.0751  0.4410  0.1310
  139ccc     H5 3291   2.239   6.666   7.231 -0.0644  1.2457 -1.2311
  139ccc     H6 3292   2.372   6.731   7.296  0.4207  2.4692  0.5286
  139ccc     N2 3293   2.499   6.940   7.219 -0.9146 -0.0680  0.2034
  139ccc     H7 3294   2.563   6.878   7.171 -0.2254  2.3451 -2.2215
  140ccc     C1 3295   2.840   7.698   7.166  0.1166 -0.0399 -0.2194
  140ccc     H1 3296   2.911   7.718   7.085  0.1943 -0.4279 -0.2515
  140ccc     H2 3297   2.874   7.611   7.223  1.8957  0.4848 -0.4135
  140ccc     C2 3298   2.706   7.673   7.094  0.8148  0.3028 -0.5629
  140ccc     H3 3299   2.730   7.599   7.017 -1.1414 -1.3073  0.2692
  140ccc     H4 3300   2.631   7.644   7.169 -1.2945  0.5494 -2.4546
  140ccc     N1 3301   2.644   7.793   7.032  0.7783  0.0130 -0.4924
  140ccc     H5 3302   2.731   7.834   6.996  0.2072  1.1770 -0.6004
  140ccc     H6 3303   2.600   7.756   6.948  1.1048 -3.4939  0.7354
  140ccc     N2 3304   2.852   7.822   7.246  0.2682  0.2997  0.0205
  140ccc     H7 3305   2.765   7.849   7.290  0.6594 -0.4233  1.2809
  141ccc     C1 3306   2.387   8.338   7.148 -0.0529  0.2240 -0.5189
  141ccc     H1 3307   2.363   8.353   7.042 -1.4098 -0.3338 -0.3160
  141ccc     H2 3308   2.323   8.256   7.183  2.3454 -1.0686  1.1299
  141ccc     C2 3309   2.332   8.461   7.215 -0.5483 -0.1072  0.2075
  141ccc     H3 3310   2.224   8.468   7.194 -0.0028 -0.6099 -3.2942
  141ccc     H4 3311   2.336   8.453   7.325  0.8759  2.1209  0.3791
  141ccc     N1 3312   2.419   8.575   7.165 -0.0334  0.0590 -0.2134
  141ccc     H5 3313   2.385   8.644   7.233  0.1225 -0.9976  0.9795
  141ccc     H6 3314   2.511   8.559   7.206  0.8330 -0.6934 -2.3440
  141ccc     N2 3315   2.528   8.296   7.178  0.5512  0.5864  0.2840
  141ccc     H7 3316   2.594   8.360   7.221  1.0444  0.2158  0.0823
  142ccc     C1 3317   5.590   7.574   7.403 -0.5549  0.2734  0.0706
  142ccc     H1 3318   5.560   7.472   7.428  0.3634 -0.6124 -2.2381
  142ccc     H2 3319   5.687   7.608   7.441  0.5190  0.7763 -2.8447
  142ccc     C2 3320   5.481   7.683   7.445  0.5205  0.8276 -0.0857
  142ccc     H3 3321   5.528   7.782   7.436  2.0146  0.2706  1.1817
  142ccc     H4 3322   5.398   7.693   7.374  1.9828 -1.0027 -2.2017
  142ccc     N1 3323   5.437   7.661   7.586  0.1458  0.0023 -0.4354
  142ccc     H5 3324   5.369   7.585   7.574  1.7809 -1.3743 -1.2990
  142ccc     H6 3325   5.517   7.619   7.632 -0.4060 -0.0524  0.5065
  142ccc     N2 3326   5.619   7.580   7.257  0.4363  0.0474 -0.1209
  142ccc     H7 3327   5.634   7.671   7.215  0.6259  0.6433  1.1809
  143ccc     C1 3328   6.128   7.856   6.548  0.8098 -0.6692  0.0680
  143ccc     H1 3329   6.088   7.830   6.449  1.5162 -0.0748 -0.3846
  143ccc     H2 3330   6.074   7.948   6.574 -0.7007 -0.8941 -1.9304
  143ccc     C2 3331   6.277   7.880   6.515 -0.5103 -0.1888 -0.4654
  143ccc     H3 3332   6.329   7.797   6.465  0.3984  1.1462 -1.8473
  143ccc     H4 3333   6.288   7.954   6.435 -1.4654  0.8270  0.3019
  143ccc     N1 3334   6.342   7.923   6.637 -0.2973 -0.5015 -0.3147
  143ccc     H5 3335   6.329   7.836   6.690  0.0089 -1.6907 -2.1156
  143ccc     H6 3336   6.442   7.926   6.622  0.0043  0.4121  1.5942
  143ccc     N2 3337   6.098   7.753   6.649 -0.5359 -0.1746  0.0065
  143ccc     H7 3338   6.160   7.673   6.650 -2.8829 -2.2016 -2.2107
  144ccc     C1 3339   6.210   6.624   7.305  0.5587 -0.9167 -0.2697
  144ccc     H1 3340   6.219   6.514   7.312 -0.4806 -0.9620  0.5572
  144ccc     H2 3341   6.135   6.665   7.373  0.6015  0.4580 -1.0159
  144ccc     C2 3342   6.157   6.675   7.163  0.0298 -0.5416 -0.3202
  144ccc     H3 3343   6.226   6.642   7.084  1.1935 -0.0318  0.4466
  144ccc     H4 3344   6.052   6.659   7.138 -0.1932  1.8867 -1.1600
  144ccc     N1 3345   6.187   6.823   7.164 -0.2949 -0.6295 -0.3564
  144ccc     H5 3346   6.145   6.854   7.252  1.4766  0.7950  0.0556
  144ccc     H6 3347   6.283   6.825   7.199  0.7123 -0.5788 -2.9068
  144ccc     N2 3348   6.328   6.686   7.361 -0.1917  0.3640  0.4977
  144ccc     H7 3349   6.326   6.770   7.418  1.4177  0.5437  0.3403
  145ccc     C1 3350   6.404   7.374   7.666  0.2477  0.9482 -0.1590
  145ccc     H1 3351   6.337   7.458   7.645 -4.2101 -2.0650  0.6784
  145ccc     H2 3352   6.357   7.311   7.742 -2.1876  0.6949 -1.7644
  145ccc     C2 3353   6.540   7.438   7.720 -0.6507 -0.3826  0.5287
  145ccc     H3 3354   6.519   7.499   7.809  0.9208  1.0838 -0.0464
  145ccc     H4 3355   6.607   7.355   7.747 -1.2010 -1.4440 -1.1903
  145ccc     N1 3356   6.611   7.540   7.631  0.4053  0.1361  0.2929
  145ccc     H5 3357   6.705   7.538   7.670  0.5403  1.8253  0.1244
  145ccc     H6 3358   6.630   7.484   7.548 -0.8889 -0.9359  0.6799
  145ccc     N2 3359   6.421   7.290   7.542  0.1898 -0.0605  0.5419
  145ccc     H7 3360   6.506   7.303   7.489  0.1909  2.1381  1.0052
  146ccc     C1 3361   4.543   8.221   5.752 -0.0863  0.4632  0.0970
  146ccc     H1 3362   4.514   8.194   5.649  0.5032  1.1700 -0.2633
  146ccc     H2 3363   4.578   8.126   5.793 -0.3862  0.3947  0.1910
  146ccc     C2 3364   4.424   8.261   5.845 -0.1733 -0.1144 -0.2661
  146ccc     H3 3365   4.387   8.357   5.809  0.6884  0.7512  1.0352
  146ccc     H4 3366   4.342   8.189   5.851 -0.2316  0.0007  0.5818
  146ccc     N1 3367   4.468   8.285   5.981 -0.0656  0.4712  0.2379
  146ccc     H5 3368   4.555   8.232   5.976  1.0685  2.3388 -0.7886
  146ccc     H6 3369   4.508   8.378   5.983  1.3734 -0.1254  0.6812
  146ccc     N2 3370   4.660   8.315   5.746 -0.3926 -0.0068  0.3780
  146ccc     H7 3371   4.650   8.413   5.773 -0.6877  0.5482 -1.5893
  147ccc     C1 3372   5.180   8.870   5.236  0.2116 -0.2364  0.1854
  147ccc     H1 3373   5.076   8.860   5.202  0.1459 -1.4147  0.6849
  147ccc     H2 3374   5.191   8.968   5.284  0.2916  0.2641 -0.8130
  147ccc     C2 3375   5.273   8.859   5.111  0.0900  0.0313 -0.2683
  147ccc     H3 3376   5.249   8.762   5.065  0.6513 -0.2105 -0.0644
  147ccc     H4 3377   5.255   8.942   5.041 -1.7516  0.9483  1.2212
  147ccc     N1 3378   5.413   8.865   5.146 -0.6938 -0.7007  0.2461
  147ccc     H5 3379   5.460   8.880   5.057  0.0359 -1.1632  0.5418
  147ccc     H6 3380   5.415   8.954   5.196  1.3657 -0.0942 -0.8036
  147ccc     N2 3381   5.210   8.770   5.344 -0.2412  0.0397 -0.3968
  147ccc     H7 3382   5.283   8.700   5.334  1.6558  1.9954 -0.9314
  148ccc     C1 3383   6.883   9.205   5.898 -0.4178  0.2641  0.3024
  148ccc     H1 3384   6.915   9.205   6.003 -0.4537  1.4999  0.3255
  148ccc     H2 3385   6.964   9.153   5.845  1.1687  1.3506  1.5538
  148ccc     C2 3386   6.885   9.350   5.848  0.5724 -0.5419  0.4556
  148ccc     H3 3387   6.797   9.405   5.883  1.1551  1.5946 -1.2132
  148ccc     H4 3388   6.976   9.395   5.889  0.0984  2.2205 -1.2328
  148ccc     N1 3389   6.898   9.361   5.704  1.1291 -0.1459  1.0208
  148ccc     H5 3390   6.810   9.324   5.669  1.4600  0.4001 -0.4584
  148ccc     H6 3391   6.895   9.460   5.681 -0.0838 -0.4246 -0.0942
  148ccc     N2 3392   6.751   9.140   5.874  0.6360 -0.0482 -0.1526
  148ccc     H7 3393   6.711   9.152   5.781  3.9027 -1.9816 -2.0094
  149ccc     C1 3394   6.204   9.697   5.973  0.2223 -0.3565 -0.1397
  149ccc     H1 3395   6.285   9.687   5.899  1.8662  2.6241  1.0630
  149ccc     H2 3396   6.111   9.724   5.921  0.8672  1.4697 -0.4102
  149ccc     C2 3397   6.260   9.819   6.058  0.7666  0.4040  0.0007
  149ccc     H3 3398   6.272   9.904   5.989  1.8384 -0.6242 -1.1057
  149ccc     H4 3399   6.173   9.848   6.120 -1.7314 -0.5248 -2.8407
  149ccc     N1 3400   6.380   9.785   6.128 -0.0408  0.3900 -0.1239
  149ccc     H5 3401   6.444   9.788   6.048  0.9432 -0.3119  0.6011
  149ccc     H6 3402   6.370   9.689   6.162  0.1952  0.0079 -1.0881
  149ccc     N2 3403   6.189   9.571   6.048 -0.6153  0.0991  0.1615
  149ccc     H7 3404   6.262   9.558   6.118 -0.8108  4.2015  1.4434
  150ccc     C1 3405   4.957   5.990   7.196  0.3319 -0.5534  0.2693
  150ccc     H1 3406   5.053   6.036   7.221  0.5752 -0.3770 -0.9389
  150ccc     H2 3407   4.907   5.954   7.287 -0.1018  2.8662  1.5325
  150ccc     C2 3408   5.008   5.879   7.109 -0.4014 -0.5194  0.1050
  150ccc     H3 3409   5.027   5.922   7.010 -1.7848 -0.9666 -0.3660
  150ccc     H4 3410   5.100   5.842   7.158 -0.4719 -0.0808  0.5810
  150ccc     N1 3411   4.913   5.769   7.101 -0.1237 -0.1037  0.1572
  150ccc     H5 3412   4.905   5.736   7.197 -0.7393  0.5910  0.3462
  150ccc     H6 3413   4.826   5.821   7.102  0.2899  0.5957  0.1395
  150ccc     N2 3414   4.865   6.077   7.119  0.1882 -0.0861 -0.1749
  150ccc     H7 3415   4.831   6.045   7.029 -0.8724 -0.9530  0.5054
  151ccc     C1 3416   4.244   6.058   6.633  0.4212 -0.0329  0.5684
  151ccc     H1 3417   4.289   6.092   6.539 -2.9835 -0.0811 -1.2400
  151ccc     H2 3418   4.224   5.950   6.621 -0.6218  0.3098 -1.1428
  151ccc     C2 3419   4.111   6.131   6.624 -0.5032 -0.1377  0.3174
  151ccc     H3 3420   4.069   6.114   6.524 -0.9820 -0.5832  0.5917
  151ccc     H4 3421   4.021   6.100   6.678 -1.1611  2.4255  0.8439
  151ccc     N1 3422   4.122   6.274   6.648  0.4047  0.5844  1.1248
  151ccc     H5 3423   4.120   6.288   6.749 -0.8372  0.8510  1.0823
  151ccc     H6 3424   4.215   6.307   6.620 -0.0831  0.3519 -0.9199
  151ccc     N2 3425   4.335   6.092   6.750  0.6377 -0.4172  0.1358
  151ccc     H7 3426   4.329   6.049   6.841  1.6253  0.1229  0.4735
  152ccc     C1 3427   3.657   7.796   6.679 -0.3549  0.0018 -0.2245
  152ccc     H1 3428   3.669   7.874   6.604  0.4397 -0.0392 -0.1475
  152ccc     H2 3429   3.584   7.721   6.647 -0.9026  0.8319 -0.9415
  152ccc     C2 3430   3.603   7.853   6.810  0.5364 -0.1061  0.5910
  152ccc     H3 3431   3.496   7.876   6.804  0.6026  0.2362  0.7151
  152ccc     H4 3432   3.615   7.781   6.892  0.7451  0.8609  1.4150
  152ccc     N1 3433   3.669   7.980   6.842  0.3213  0.4715 -0.7835
  152ccc     H5 3434   3.629   8.012   6.930  0.5405  0.7198 -0.7736
  152ccc     H6 3435   3.762   7.952   6.872  0.2585  0.0842 -0.9447
  152ccc     N2 3436   3.788   7.721   6.704 -0.4781  0.0410  0.1017
  152ccc     H7 3437   3.839   7.738   6.790  0.6121  0.6097 -0.6419
  153ccc     C1 3438   4.216   6.863   7.055 -0.5229  0.6116 -0.2630
  153ccc     H1 3439   4.318   6.845   7.019 -0.6926 -0.3072 -0.3121
  153ccc     H2 3440   4.237   6.863   7.162 -3.5901  1.3728  0.4459
  153ccc     C2 3441   4.133   6.737   7.032 -0.7355  0.5025 -0.2658
  153ccc     H3 3442   4.167   6.651   7.091  0.3955  1.5033  0.5920
  153ccc     H4 3443   4.039   6.759   7.085 -1.2718  3.4873 -2.1818
  153ccc     N1 3444   4.121   6.702   6.891 -0.0430  0.3288  0.1972
  153ccc     H5 3445   4.101   6.792   6.847 -0.7821  0.3454  0.5559
  153ccc     H6 3446   4.213   6.688   6.850 -1.3291 -4.1351 -1.8218
  153ccc     N2 3447   4.151   6.990   7.021  0.1324 -0.5232  0.5356
  153ccc     H7 3448   4.128   7.056   7.095  0.6600  0.3232 -0.0285
  154ccc     C1 3449   6.655   7.732   7.312 -0.4879  0.1583 -0.9322
  154ccc     H1 3450   6.697   7.663   7.238 -0.3705 -2.4320  1.3874
  154ccc     H2 3451   6.639   7.829   7.265  1.1343  0.7098 -0.4283
  154ccc     C2 3452   6.761   7.772   7.423 -0.3714 -0.7129 -0.6123
  154ccc     H3 3453   6.799   7.684   7.476 -0.5491 -0.3052  0.2211
  154ccc     H4 3454   6.846   7.818   7.372 -0.7021 -0.7427 -1.1934
  154ccc     N1 3455   6.706   7.858   7.531  0.4065  0.2780 -0.3119
  154ccc     H5 3456   6.785   7.871   7.593  1.5500 -2.0472 -1.1761
  154ccc     H6 3457   6.699   7.945   7.477 -0.5519  0.0719 -0.5355
  154ccc     N2 3458   6.525   7.685   7.368  0.4913  0.1101 -0.4676
  154ccc     H7 3459   6.518   7.624   7.449 -0.5157  1.7815  0.7594
  155ccc     C1 3460   6.039   7.946   7.787 -0.6634 -0.7625  1.0002
  155ccc     H1 3461   6.013   8.011   7.702 -1.1899 -1.0036  0.9680
  155ccc     H2 3462   5.958   7.959   7.860 -0.2548  0.6308  1.2315
  155ccc     C2 3463   6.173   7.995   7.837  0.6917  0.2909  0.1789
  155ccc     H3 3464   6.153   8.091   7.885 -0.1480  1.9761 -3.2538
  155ccc     H4 3465   6.230   7.924   7.898  0.5305 -2.1138 -2.2378
  155ccc     N1 3466   6.250   8.025   7.704  0.1927 -0.2370  0.4369
  155ccc     H5 3467   6.182   8.078   7.650  0.0156 -0.4634  0.4336
  155ccc     H6 3468   6.322   8.092   7.732 -1.1995  2.0193 -1.0769
  155ccc     N2 3469   6.040   7.811   7.731  0.1133  0.6039 -0.2358
  155ccc     H7 3470   6.121   7.750   7.741  1.7682  2.0371 -3.4836
  156ccc     C1 3471   5.220   5.657   7.669 -0.2942  0.4140 -0.1461
  156ccc     H1 3472   5.218   5.659   7.779  0.9666 -0.6085 -0.0864
  156ccc     H2 3473   5.116   5.657   7.635 -0.7903 -0.5102  1.2645
  156ccc     C2 3474   5.280   5.516   7.652  0.3679  0.4517  0.2350
  156ccc     H3 3475   5.219   5.434   7.691 -0.4763 -0.9116 -3.4946
  156ccc     H4 3476   5.297   5.485   7.548  1.4791 -3.8900  1.5182
  156ccc     N1 3477   5.413   5.512   7.719  0.4056 -0.3360  0.5588
  156ccc     H5 3478   5.439   5.418   7.692 -2.4171 -0.9107 -0.4809
  156ccc     H6 3479   5.470   5.576   7.663 -0.6543  0.0602 -0.1069
  156ccc     N2 3480   5.295   5.768   7.604  0.1991 -0.0280  0.7440
  156ccc     H7 3481   5.396   5.773   7.599  0.1351  2.9416  1.1388
  157ccc     C1 3482   4.802   6.587   7.375  0.0264  0.3082 -0.1478
  157ccc     H1 3483   4.836   6.666   7.306  1.7999  2.8960  3.3599
  157ccc     H2 3484   4.712   6.541   7.333 -0.7627  0.6886  1.0950
  157ccc     C2 3485   4.759   6.653   7.506  0.6467 -0.6728 -0.1113
  157ccc     H3 3486   4.845   6.709   7.546 -0.5919  2.0003 -0.9270
  157ccc     H4 3487   4.678   6.726   7.493  0.3009 -1.1476 -0.6514
  157ccc     N1 3488   4.724   6.547   7.598 -0.0037  0.4325  0.1090
  157ccc     H5 3489   4.656   6.484   7.555  0.3707 -0.7861  1.2125
  157ccc     H6 3490   4.798   6.477   7.598 -0.9841 -0.7298 -2.4923
  157ccc     N2 3491   4.910   6.485   7.390  0.3085 -0.4335  0.2997
  157ccc     H7 3492   4.889   6.389   7.369  1.2448 -0.5399 -0.1853
  158ccc     C1 3493   5.703   9.006   8.950 -0.3760  0.3395 -0.3779
  158ccc     H1 3494   5.646   8.975   9.038 -0.3028 -0.3015 -0.5537
  158ccc     H2 3495   5.668   8.937   8.873 -0.4157  0.0417 -0.0960
  158ccc     C2 3496   5.857   8.979   8.965  0.6573  0.4671  0.1365
  158ccc     H3 3497   5.881   8.878   9.000  1.3491  0.7182  0.4092
  158ccc     H4 3498   5.909   9.007   8.873 -1.9371  2.3676 -0.8862
  158ccc     N1 3499   5.908   9.067   9.070  0.5034  0.0889 -0.1728
  158ccc     H5 3500   5.857   9.151   9.043 -0.6796 -0.8807 -1.0575
  158ccc     H6 3501   5.852   9.042   9.151  1.2704 -0.9452  0.0657
  158ccc     N2 3502   5.665   9.139   8.896 -0.0463 -0.2996  0.1949
  158ccc     H7 3503   5.614   9.209   8.949  1.6004  0.0534  1.3948
  159ccc     C1 3504   5.274   9.672   8.736 -0.3671 -0.7030 -0.3305
  159ccc     H1 3505   5.205   9.757   8.731  0.0582 -0.4125 -2.3381
  159ccc     H2 3506   5.255   9.604   8.652  1.7287 -0.4721 -1.0733
  159ccc     C2 3507   5.242   9.600   8.870 -0.1441 -0.2886  0.3999
  159ccc     H3 3508   5.136   9.571   8.860 -0.4246  0.6475  0.5632
  159ccc     H4 3509   5.298   9.506   8.874  2.7600  1.0684 -2.7828
  159ccc     N1 3510   5.269   9.695   8.973  0.0464 -0.2073 -0.3013
  159ccc     H5 3511   5.192   9.759   8.953 -0.3959 -0.4859  0.4728
  159ccc     H6 3512   5.222   9.654   9.054 -2.0544  1.4538 -0.5753
  159ccc     N2 3513   5.410   9.725   8.719  0.2879 -0.3158 -0.0929
  159ccc     H7 3514   5.454   9.761   8.803 -1.5269  0.8317  0.4509
  160ccc     C1 3515   4.595   9.650   8.223  0.1407 -0.8562 -0.2539
  160ccc     H1 3516   4.509   9.637   8.156 -3.0908  2.0921  2.8780
  160ccc     H2 3517   4.544   9.663   8.319 -4.0120  0.5876 -2.4224
  160ccc     C2 3518   4.685   9.774   8.187 -0.2062  0.2879  0.3939
  160ccc     H3 3519   4.711   9.776   8.080 -2.0002 -0.2619 -0.0965
  160ccc     H4 3520   4.623   9.863   8.202 -0.9291 -0.0648 -0.4290
  160ccc     N1 3521   4.805   9.782   8.271  0.3047 -0.0481 -0.2204
  160ccc     H5 3522   4.775   9.813   8.363  0.1724  4.4259 -1.5549
  160ccc     H6 3523   4.835   9.685   8.281 -0.1962 -0.0162  2.0721
  160ccc     N2 3524   4.673   9.531   8.241 -0.0675  0.1366  0.0679
  160ccc     H7 3525   4.774   9.535   8.238 -0.1013  0.3019 -2.7204
  161ccc     C1 3526   4.278   8.601   8.422 -0.3331 -0.5522 -0.4948
  161ccc     H1 3527   4.341   8.518   8.454 -1.0842 -0.6567  0.7625
  161ccc     H2 3528   4.270   8.666   8.511 -2.6893 -0.0465 -1.0177
  161ccc     C2 3529   4.135   8.561   8.382 -0.1212  0.2025  0.9553
  161ccc     H3 3530   4.089   8.484   8.445 -0.5072 -1.0288 -0.7635
  161ccc     H4 3531   4.077   8.654   8.387  0.3259  0.6904 -1.4695
  161ccc     N1 3532   4.120   8.510   8.239  0.3779  0.3731 -0.1438
  161ccc     H5 3533   4.154   8.586   8.181  0.0862  1.2485  0.7942
  161ccc     H6 3534   4.181   8.429   8.234  1.2665  1.0460 -0.5354
  161ccc     N2 3535   4.354   8.683   8.321  0.2400 -0.3684 -0.1739
  161ccc     H7 3536   4.307   8.720   8.239 -1.9791  0.3920  1.3508
  162ccc     C1 3537   5.169   9.735   7.016  0.1258 -0.2974 -0.2870
  162ccc     H1 3538   5.104   9.721   7.103 -1.8645 -3.0615 -2.0384
  162ccc     H2 3539   5.105   9.791   6.947  0.7649  0.9609  0.1168
  162ccc     C2 3540   5.198   9.594   6.948 -0.6448 -0.4824 -0.5069
  162ccc     H3 3541   5.104   9.539   6.938 -0.5803 -0.8016  0.4793
  162ccc     H4 3542   5.242   9.605   6.848 -0.4378 -0.8749 -0.4617
  162ccc     N1 3543   5.281   9.515   7.043 -0.5131 -0.3393  0.2048
  162ccc     H5 3544   5.366   9.570   7.043 -0.8734  0.4206 -3.3712
  162ccc     H6 3545   5.323   9.439   6.989  0.1405 -0.9187  1.4810
  162ccc     N2 3546   5.292   9.807   7.049  0.6311 -0.3268  0.1539
  162ccc     H7 3547   5.314   9.822   7.146 -2.3074 -1.3042  1.0995
  163ccc     C1 3548   5.861  10.633   6.812 -0.1645 -0.5451  0.8600
  163ccc     H1 3549   5.788  10.696   6.760 -0.0242 -0.3779  0.8642
  163ccc     H2 3550   5.925  10.697   6.874 -1.5153 -0.0437  1.7644
  163ccc     C2 3551   5.950  10.575   6.710  0.0230 -0.0438 -0.4451
  163ccc     H3 3552   5.902  10.506   6.638  1.5628 -2.3243  0.5927
  163ccc     H4 3553   5.994  10.655   6.650 -1.0524  1.8549  1.1943
  163ccc     N1 3554   6.065  10.506   6.767  0.4553 -0.0520  0.2794
  163ccc     H5 3555   6.108  10.480   6.678  0.0620  1.7943 -0.5035
  163ccc     H6 3556   6.129  10.577   6.802 -0.8639  1.4214 -0.2201
  163ccc     N2 3557   5.804  10.535   6.914  0.2724  0.3025 -0.1812
  163ccc     H7 3558   5.865  10.479   6.974  0.1313  1.4888  1.1099
  164ccc     C1 3559   6.040  10.205   7.294 -0.3119  0.1362 -0.4750
  164ccc     H1 3560   6.061  10.103   7.327  1.5293  0.3837 -0.7874
  164ccc     H2 3561   5.950  10.231   7.352  1.5325  0.9232  2.2534
  164ccc     C2 3562   5.999  10.221   7.143 -0.0133 -0.1734 -0.4007
  164ccc     H3 3563   6.065  10.169   7.073  0.7935 -0.3118  0.4502
  164ccc     H4 3564   5.895  10.186   7.131  0.1103 -0.1646 -1.5607
  164ccc     N1 3565   5.993  10.362   7.110  0.0509 -0.4979  0.1195
  164ccc     H5 3566   5.920  10.397   7.171  0.5736 -0.2769  0.6302
  164ccc     H6 3567   6.071  10.406   7.158 -1.0558  0.6001  0.9611
  164ccc     N2 3568   6.147  10.296   7.338 -0.3529 -0.2227 -0.0091
  164ccc     H7 3569   6.116  10.365   7.405 -1.6860 -1.3764  0.6143
  165ccc     C1 3570   6.907  10.877   7.729 -0.9338  1.0344  0.1161
  165ccc     H1 3571   6.847  10.938   7.661 -1.1458  0.0693 -0.5840
  165ccc     H2 3572   6.895  10.916   7.831 -0.8609  1.3434  0.0066
  165ccc     C2 3573   7.058  10.891   7.691 -0.3239 -0.3734 -0.1560
  165ccc     H3 3574   7.093  10.804   7.633  0.7026 -1.3829  1.8485
  165ccc     H4 3575   7.055  10.981   7.628 -4.0183 -1.0026 -1.0790
  165ccc     N1 3576   7.140  10.902   7.815  0.5391  0.2090  0.1106
  165ccc     H5 3577   7.170  10.812   7.852  1.2143  0.3304 -0.1298
  165ccc     H6 3578   7.231  10.925   7.774  1.0583 -0.8443  0.6324
  165ccc     N2 3579   6.854  10.731   7.722  1.2488 -0.0855 -0.2019
  165ccc     H7 3580   6.835  10.685   7.810 -3.9275 -1.1176 -1.5504
  166ccc     C1 3581   3.862   8.015   8.189  0.0034 -0.2198 -0.1700
  166ccc     H1 3582   3.817   8.013   8.090 -1.2623 -0.3676  0.3960
  166ccc     H2 3583   3.805   7.943   8.249  0.1406 -0.3968 -0.2511
  166ccc     C2 3584   3.842   8.154   8.244 -0.0162  0.1936  0.1494
  166ccc     H3 3585   3.736   8.181   8.245 -0.1161 -0.1280 -1.0928
  166ccc     H4 3586   3.886   8.152   8.345 -2.8577  0.5648  1.4851
  166ccc     N1 3587   3.925   8.247   8.162  0.0790  0.0638  0.0503
  166ccc     H5 3588   4.010   8.193   8.144  0.3926  0.6187 -0.1988
  166ccc     H6 3589   3.885   8.231   8.070  1.8434  0.7458 -0.8790
  166ccc     N2 3590   3.996   7.953   8.195  0.0651  0.1987  0.7317
  166ccc     H7 3591   4.074   8.011   8.225  0.5052  1.0789 -1.8846
  167ccc     C1 3592   4.772   7.781   8.421 -0.3552 -0.5321 -0.3858
  167ccc     H1 3593   4.851   7.726   8.473 -1.1241 -0.8287  0.4711
  167ccc     H2 3594   4.815   7.867   8.368 -1.7999  0.3509 -0.1675
  167ccc     C2 3595   4.675   7.816   8.540  0.2650  0.0108 -0.4762
  167ccc     H3 3596   4.669   7.732   8.610 -0.2163  0.2222 -0.2584
  167ccc     H4 3597   4.712   7.886   8.616  0.7829 -0.8102  0.0481
  167ccc     N1 3598   4.542   7.853   8.487 -0.1030  0.3836 -0.2429
  167ccc     H5 3599   4.559   7.931   8.423  0.7031  0.1208 -0.3614
  167ccc     H6 3600   4.531   7.787   8.411  0.9300  0.9808 -0.9411
  167ccc     N2 3601   4.713   7.692   8.316  0.8259  0.4404 -0.2729
  167ccc     H7 3602   4.740   7.595   8.305 -0.9938 -0.1765  0.4407
  168ccc     C1 3603   4.478   6.917   7.858 -0.6419 -0.2354  0.0724
  168ccc     H1 3604   4.439   6.877   7.952  1.1864 -0.6094  0.7232
  168ccc     H2 3605   4.394   6.938   7.790 -0.3553 -0.1601 -0.2638
  168ccc     C2 3606   4.561   6.805   7.792  0.0962  0.1800  0.3139
  168ccc     H3 3607   4.493   6.721   7.770  0.2168  0.5150 -1.5428
  168ccc     H4 3608   4.601   6.831   7.693  0.9353  1.0216  0.8686
  168ccc     N1 3609   4.675   6.761   7.882 -0.0971 -0.2609 -0.3838
  168ccc     H5 3610   4.744   6.831   7.854 -0.4588  0.3556  0.2257
  168ccc     H6 3611   4.648   6.801   7.972  0.0753 -0.3778 -0.2802
  168ccc     N2 3612   4.555   7.037   7.896 -0.3334 -0.2599 -0.7233
  168ccc     H7 3613   4.650   7.058   7.867  0.0480 -0.1116  0.5420
  169ccc     C1 3614   4.399   7.509   8.707 -0.5684  0.4321 -0.5306
  169ccc     H1 3615   4.401   7.450   8.800  2.1331  0.5736 -0.4328
  169ccc     H2 3616   4.476   7.586   8.709  0.0602 -0.1901  1.9586
  169ccc     C2 3617   4.263   7.579   8.689 -0.6076  0.2021  0.0292
  169ccc     H3 3618   4.188   7.499   8.686 -0.8658  0.4206  0.6410
  169ccc     H4 3619   4.244   7.640   8.778  1.1392  0.9008 -0.0454
  169ccc     N1 3620   4.267   7.661   8.564  0.2455 -0.3184 -0.3641
  169ccc     H5 3621   4.294   7.594   8.492  0.5890  0.8213 -1.3343
  169ccc     H6 3622   4.172   7.690   8.543  0.1198  0.7946  1.5382
  169ccc     N2 3623   4.435   7.411   8.601 -0.2781  0.6106  0.1800
  169ccc     H7 3624   4.374   7.399   8.521 -0.9709 -1.6003  0.9762
  170ccc     C1 3625   6.119   9.684   6.557 -0.3273 -0.0065 -0.4062
  170ccc     H1 3626   6.051   9.601   6.532  0.9916 -1.6808  1.2023
  170ccc     H2 3627   6.060   9.772   6.583  2.2010  2.1073 -1.4037
  170ccc     C2 3628   6.198   9.725   6.433 -0.7427 -0.5240  0.5357
  170ccc     H3 3629   6.214   9.627   6.387  0.4008 -1.0868  2.0456
  170ccc     H4 3630   6.131   9.789   6.374  1.7282  2.3358  0.5845
  170ccc     N1 3631   6.323   9.801   6.462 -0.2996 -0.5430  0.5882
  170ccc     H5 3632   6.288   9.867   6.531  1.4485 -1.3577  2.3715
  170ccc     H6 3633   6.372   9.739   6.526 -1.3645 -0.7073  1.2658
  170ccc     N2 3634   6.188   9.633   6.678  0.2903  0.3392  0.0452
  170ccc     H7 3635   6.268   9.687   6.708  1.2520 -0.1849 -1.4664
  171ccc     C1 3636   6.474   9.218   7.547  1.1342 -0.2877  0.3463
  171ccc     H1 3637   6.444   9.250   7.647 -1.2433 -2.0073  0.2641
  171ccc     H2 3638   6.410   9.134   7.517 -1.7019  0.9743  2.4461
  171ccc     C2 3639   6.621   9.174   7.546 -0.2164 -0.1809  0.6638
  171ccc     H3 3640   6.677   9.265   7.571  1.1116 -0.1419 -2.0394
  171ccc     H4 3641   6.634   9.093   7.619  1.6239  0.0665  0.6647
  171ccc     N1 3642   6.666   9.144   7.411 -0.0702 -0.2138 -0.0099
  171ccc     H5 3643   6.607   9.067   7.380  1.0450 -0.6893 -1.0111
  171ccc     H6 3644   6.608   9.218   7.369  0.8552  1.3934  1.4148
  171ccc     N2 3645   6.444   9.329   7.448  0.6829  0.3733 -0.2130
  171ccc     H7 3646   6.423   9.421   7.484 -0.3295 -0.0693  0.3700
  172ccc     C1 3647   5.765   9.536   7.492 -0.1329 -0.4077  0.4567
  172ccc     H1 3648   5.828   9.449   7.509 -1.4119 -1.3211  0.6870
  172ccc     H2 3649   5.835   9.614   7.461 -1.1914  0.4801  0.2121
  172ccc     C2 3650   5.697   9.586   7.631  0.6361 -0.1860 -0.0002
  172ccc     H3 3651   5.759   9.560   7.718 -3.1577  0.5552  3.2187
  172ccc     H4 3652   5.680   9.694   7.633  1.8819  0.0109  1.4262
  172ccc     N1 3653   5.562   9.529   7.650 -0.0893 -0.4823  0.0780
  172ccc     H5 3654   5.527   9.565   7.738 -1.9357  0.7832 -1.0769
  172ccc     H6 3655   5.495   9.584   7.596 -1.3036 -1.6703  0.3079
  172ccc     N2 3656   5.673   9.525   7.377  0.1721  0.0764 -0.6268
  172ccc     H7 3657   5.650   9.431   7.347 -0.2186  0.2823 -0.9873
  173ccc     C1 3658   5.807  10.080   6.652  0.1767  0.3805  0.1725
  173ccc     H1 3659   5.870  10.062   6.565 -1.6811 -1.1372 -0.9253
  173ccc     H2 3660   5.715  10.112   6.601 -0.0049  0.2503  0.4140
  173ccc     C2 3661   5.848  10.202   6.739 -0.6140  0.4395  0.2068
  173ccc     H3 3662   5.850  10.296   6.684  3.4441 -0.4216 -1.4405
  173ccc     H4 3663   5.768  10.211   6.814 -1.7719  1.3987 -1.0994
  173ccc     N1 3664   5.974  10.177   6.811  0.2106  0.2487  0.4209
  173ccc     H5 3665   5.953  10.094   6.866  1.6057 -1.5680 -1.6729
  173ccc     H6 3666   6.033  10.138   6.738  1.4795  0.8267  1.1069
  173ccc     N2 3667   5.779   9.954   6.726  0.2617 -0.5667  0.6292
  173ccc     H7 3668   5.771   9.947   6.827 -2.2433 -3.5458  0.3534
  174ccc     C1 3669   5.738   7.033   5.591  0.1413 -0.2533  0.0255
  174ccc     H1 3670   5.727   7.049   5.699 -0.7744  0.1365 -0.1121
  174ccc     H2 3671   5.664   6.956   5.563  0.7297 -0.9184  0.2584
  174ccc     C2 3672   5.885   6.986   5.575 -0.4692  0.1996  0.6504
  174ccc     H3 3673   5.898   6.880   5.599  0.2957  0.2818  0.6330
  174ccc     H4 3674   5.934   6.992   5.476  0.5244 -1.8632  0.9583
  174ccc     N1 3675   5.968   7.067   5.671 -0.0460 -0.4008  0.6361
  174ccc     H5 3676   5.953   7.167   5.660  1.3102  0.1003  2.7287
  174ccc     H6 3677   5.934   7.058   5.766 -0.1952  0.3435  0.6523
  174ccc     N2 3678   5.702   7.158   5.514 -0.3765 -0.2137  0.4677
  174ccc     H7 3679   5.773   7.229   5.509 -1.6809  1.3543  2.5225
  175ccc     C1 3680   6.229   7.358   5.909 -0.0302  0.3619  1.1081
  175ccc     H1 3681   6.196   7.301   5.997  2.6187 -1.8682  0.7945
  175ccc     H2 3682   6.269   7.278   5.846 -1.4191 -0.2266  0.9411
  175ccc     C2 3683   6.345   7.458   5.946 -0.2980  0.1669  0.3770
  175ccc     H3 3684   6.307   7.530   6.020 -0.0303 -0.9681  1.6588
  175ccc     H4 3685   6.424   7.397   5.990  0.5045  0.4221 -0.6600
  175ccc     N1 3686   6.400   7.530   5.832 -0.5444 -0.4377 -0.2342
  175ccc     H5 3687   6.460   7.603   5.870 -1.9533  1.6250 -1.7186
  175ccc     H6 3688   6.327   7.595   5.802  2.0576  1.6343 -2.6090
  175ccc     N2 3689   6.107   7.422   5.842 -0.1355 -0.1888  0.2943
  175ccc     H7 3690   6.118   7.503   5.782 -0.5700  0.4446  1.0442
  176ccc     C1 3691   4.884   9.213   6.477  0.5592 -0.1983 -0.4571
  176ccc     H1 3692   4.969   9.226   6.545  1.7826  0.1401 -2.0078
  176ccc     H2 3693   4.883   9.303   6.415 -0.8790 -0.4377 -0.8343
  176ccc     C2 3694   4.753   9.213   6.558 -0.2184 -0.6674 -0.2251
  176ccc     H3 3695   4.759   9.308   6.613 -0.3240 -0.5163 -0.4716
  176ccc     H4 3696   4.670   9.211   6.486  0.6427  0.9551 -1.3313
  176ccc     N1 3697   4.751   9.112   6.660  0.0023  0.0586  0.0032
  176ccc     H5 3698   4.657   9.110   6.700  0.6661  0.9646  1.7159
  176ccc     H6 3699   4.764   9.017   6.625  2.9475 -0.0397  1.0664
  176ccc     N2 3700   4.910   9.094   6.399 -0.2545  0.3496 -0.2048
  176ccc     H7 3701   4.861   9.009   6.425 -0.2566  0.3786 -0.1157
  177ccc     C1 3702   4.704   8.803   5.527  0.5608  0.0093 -0.5457
  177ccc     H1 3703   4.629   8.722   5.529 -1.1020  1.4749  1.5178
  177ccc     H2 3704   4.655   8.893   5.566  1.3937  0.3830 -0.3515
  177ccc     C2 3705   4.746   8.848   5.385 -0.1565  1.5186 -0.1031
  177ccc     H3 3706   4.809   8.771   5.339 -0.6393  2.0428 -1.6719
  177ccc     H4 3707   4.660   8.859   5.318  1.1786  0.5285 -2.0645
  177ccc     N1 3708   4.819   8.967   5.373 -0.0790 -0.0847 -0.2657
  177ccc     H5 3709   4.907   8.953   5.422 -1.1531  0.3364  1.9511
  177ccc     H6 3710   4.833   8.966   5.272  0.4070  0.1841 -0.2062
  177ccc     N2 3711   4.817   8.789   5.622  0.6159  0.1056  0.0921
  177ccc     H7 3712   4.907   8.832   5.600  0.1022 -0.0794 -2.7593
  178ccc     C1 3713   7.860   9.437   6.251 -0.8414  0.4265  0.5870
  178ccc     H1 3714   7.918   9.351   6.286 -1.5746  0.5738  2.2314
  178ccc     H2 3715   7.905   9.476   6.158 -2.9022 -1.4319 -1.2960
  178ccc     C2 3716   7.866   9.553   6.354  0.1069 -0.3843  0.2121
  178ccc     H3 3717   7.967   9.584   6.382  0.3684 -2.0696  1.2751
  178ccc     H4 3718   7.815   9.641   6.313 -1.5614 -1.6849 -0.6302
  178ccc     N1 3719   7.795   9.519   6.480  0.0790 -0.3494 -0.2083
  178ccc     H5 3720   7.786   9.598   6.544 -1.4132 -0.6431 -0.0270
  178ccc     H6 3721   7.701   9.505   6.442  0.0648 -0.5083 -0.1147
  178ccc     N2 3722   7.724   9.386   6.221 -0.3960  0.0986 -0.0289
  178ccc     H7 3723   7.646   9.450   6.231  1.8515  3.0716 -0.3127
  179ccc     C1 3724   7.269   9.378   5.875  0.9706  0.7356 -0.3851
  179ccc     H1 3725   7.197   9.455   5.845  2.2576  1.0031 -3.1928
  179ccc     H2 3726   7.352   9.426   5.928 -0.6950 -0.3261  3.5467
  179ccc     C2 3727   7.332   9.325   5.745 -0.2945  0.0469 -0.3427
  179ccc     H3 3728   7.350   9.409   5.677 -2.8511  0.5689 -0.4697
  179ccc     H4 3729   7.429   9.288   5.778 -0.5399  0.7494  1.2618
  179ccc     N1 3730   7.248   9.223   5.686 -0.6457 -0.1481 -0.5596
  179ccc     H5 3731   7.307   9.181   5.614  0.9422 -1.6646  1.5168
  179ccc     H6 3732   7.238   9.149   5.756  1.1154  0.7310  0.6968
  179ccc     N2 3733   7.215   9.268   5.959 -0.0622  0.5486 -0.3685
  179ccc     H7 3734   7.215   9.171   5.929 -0.5489  0.2556  0.5340
  180ccc     C1 3735   7.141   8.917   5.453  0.7704 -0.2829 -0.1724
  180ccc     H1 3736   7.170   8.978   5.539 -0.1103 -2.0196  1.4330
  180ccc     H2 3737   7.043   8.868   5.457  0.2547  0.7526  0.1002
  180ccc     C2 3738   7.242   8.802   5.438 -0.2649 -0.4266  0.5081
  180ccc     H3 3739   7.342   8.846   5.443  1.5298 -4.0312 -0.0881
  180ccc     H4 3740   7.215   8.744   5.528 -1.2063  2.6820  2.3840
  180ccc     N1 3741   7.219   8.741   5.308  0.5659 -0.4673 -0.8817
  180ccc     H5 3742   7.254   8.811   5.242  1.7428 -1.2777 -1.1596
  180ccc     H6 3743   7.298   8.677   5.298  0.4101 -0.4803 -2.2658
  180ccc     N2 3744   7.120   9.010   5.338  0.2203 -0.0620  0.1486
  180ccc     H7 3745   7.143   8.993   5.241  0.2121  0.4730  0.0457
  181ccc     C1 3746   7.010   9.721   4.713  0.0232 -0.6328 -0.2408
  181ccc     H1 3747   7.111   9.721   4.669 -0.2689 -0.9441 -0.9051
  181ccc     H2 3748   6.945   9.705   4.627 -0.2747  0.9837 -0.3479
  181ccc     C2 3749   6.973   9.869   4.764 -0.2114 -0.6157 -0.0624
  181ccc     H3 3750   7.008   9.893   4.865 -1.5166 -1.0736  0.5235
  181ccc     H4 3751   7.022   9.939   4.696  0.7962  0.2501  1.4990
  181ccc     N1 3752   6.830   9.874   4.774  0.3343 -0.5352  0.0527
  181ccc     H5 3753   6.809   9.816   4.855 -0.4162  0.2011  0.4001
  181ccc     H6 3754   6.817   9.964   4.821 -0.3074 -1.2863  1.3555
  181ccc     N2 3755   6.988   9.605   4.800 -0.6011  0.3255 -0.7668
  181ccc     H7 3756   7.020   9.517   4.763 -0.3346 -0.1845  0.6275
  182ccc     C1 3757   6.835  10.993   8.171 -0.3791 -0.1588  0.0812
  182ccc     H1 3758   6.728  11.009   8.156 -1.2937 -1.7419  3.7480
  182ccc     H2 3759   6.857  11.029   8.272  1.5884  0.0668 -0.3825
  182ccc     C2 3760   6.926  11.076   8.082  0.1690  0.5156  0.0665
  182ccc     H3 3761   6.903  11.040   7.981 -0.2632  0.5831  0.1395
  182ccc     H4 3762   6.908  11.183   8.096 -0.3099  0.8805 -2.7592
  182ccc     N1 3763   7.072  11.062   8.102 -0.2918  0.6793  0.4536
  182ccc     H5 3764   7.096  11.107   8.190  1.6036 -0.2411  0.4425
  182ccc     H6 3765   7.070  10.961   8.119  2.9961  0.3173 -0.7129
  182ccc     N2 3766   6.866  10.849   8.164 -0.3132  0.2465 -0.0560
  182ccc     H7 3767   6.925  10.808   8.235  1.5665  1.8109 -0.6593
  183ccc     C1 3768   6.523  10.181   8.555  0.5387  0.3087  0.1821
  183ccc     H1 3769   6.622  10.214   8.588  0.7893  1.7131 -1.7444
  183ccc     H2 3770   6.438  10.232   8.603  0.3765  1.2683 -1.0564
  183ccc     C2 3771   6.502  10.032   8.590  0.0264  0.2440  0.0595
  183ccc     H3 3772   6.578   9.975   8.534  0.2811 -0.6021  1.2210
  183ccc     H4 3773   6.504  10.013   8.698 -0.4294 -1.7160 -0.2326
  183ccc     N1 3774   6.375   9.971   8.545 -0.2418 -0.0608 -0.1543
  183ccc     H5 3775   6.376   9.985   8.444 -2.0908 -0.3048 -0.2491
  183ccc     H6 3776   6.396   9.872   8.551  0.3607  0.0967  0.4140
  183ccc     N2 3777   6.532  10.212   8.412  0.0133  0.4596  0.1968
  183ccc     H7 3778   6.452  10.249   8.362  1.6482 -1.6126 -4.5850
  184ccc     C1 3779   7.331  10.308   6.962 -0.0333  0.2589  0.4873
  184ccc     H1 3780   7.221  10.308   6.954 -0.0756  1.2294  0.9563
  184ccc     H2 3781   7.365  10.411   6.948 -1.9820  1.1090  1.4386
  184ccc     C2 3782   7.381  10.212   6.849  0.1314  0.2624  0.4301
  184ccc     H3 3783   7.360  10.265   6.755 -0.4865  0.0199  0.4263
  184ccc     H4 3784   7.489  10.203   6.862 -0.0242 -0.5734  1.2205
  184ccc     N1 3785   7.320  10.074   6.858 -0.1012 -0.0705  0.0287
  184ccc     H5 3786   7.315  10.050   6.957  0.8764 -0.2723  0.0418
  184ccc     H6 3787   7.220  10.083   6.840 -0.3832  0.1085  1.5570
  184ccc     N2 3788   7.354  10.259   7.100 -0.2850 -0.3464 -0.1422
  184ccc     H7 3789   7.410  10.317   7.161 -1.4487  0.7835 -0.1008
  185ccc     C1 3790   7.953  10.390   7.253 -0.1774  0.6302  0.4194
  185ccc     H1 3791   8.029  10.458   7.292 -0.7973  1.3618  0.3708
  185ccc     H2 3792   7.953  10.324   7.341  0.0713 -0.8574 -0.6502
  185ccc     C2 3793   8.013  10.318   7.130  0.3456  0.0965 -0.4004
  185ccc     H3 3794   8.035  10.390   7.050 -0.6854 -1.0254 -1.7461
  185ccc     H4 3795   8.105  10.260   7.149 -1.6656 -3.7884 -1.5162
  185ccc     N1 3796   7.914  10.222   7.061 -0.1921 -0.1326 -0.1600
  185ccc     H5 3797   7.848  10.289   7.022 -0.4438 -0.4432 -0.2671
  185ccc     H6 3798   7.957  10.201   6.971 -1.3829 -1.1391 -0.5149
  185ccc     N2 3799   7.819  10.444   7.228 -0.4695  0.7402  0.3524
  185ccc     H7 3800   7.781  10.439   7.134 -1.5860  1.4814  0.7400
  186ccc     C1 3801   7.132   9.527   7.707  0.2336 -0.9440 -0.4277
  186ccc     H1 3802   7.198   9.503   7.791 -1.1189  0.3958  1.0760
  186ccc     H2 3803   7.069   9.600   7.759  0.9509 -0.2302 -0.5490
  186ccc     C2 3804   7.044   9.410   7.653 -0.9477  0.0612 -0.1104
  186ccc     H3 3805   6.975   9.375   7.732 -0.4550  0.6865  0.6077
  186ccc     H4 3806   6.982   9.441   7.568 -0.9960  0.6340  0.1289
  186ccc     N1 3807   7.123   9.294   7.613 -0.1193 -0.2639 -0.3081
  186ccc     H5 3808   7.202   9.345   7.574  1.5759 -0.0301  3.0421
  186ccc     H6 3809   7.168   9.251   7.694  1.5544 -0.7175 -1.4329
  186ccc     N2 3810   7.211   9.603   7.601 -0.3645 -0.3618 -0.6664
  186ccc     H7 3811   7.283   9.543   7.561  0.2836 -0.3826  0.4921
  187ccc     C1 3812   7.031   9.008   7.073  1.4840  0.5419  0.4298
  187ccc     H1 3813   7.010   9.011   6.966  1.8513 -0.3687  0.3198
  187ccc     H2 3814   7.117   8.940   7.076  1.1514  0.0727 -0.2384
  187ccc     C2 3815   6.911   8.941   7.150  0.2203  0.0492  0.4284
  187ccc     H3 3816   6.815   8.992   7.134  0.7446  0.4890 -1.5576
  187ccc     H4 3817   6.904   8.839   7.111 -0.7056  0.5469 -0.7953
  187ccc     N1 3818   6.930   8.916   7.296  0.5832  0.2614  0.7692
  187ccc     H5 3819   6.897   8.823   7.321  1.1144  0.1077  0.8927
  187ccc     H6 3820   7.029   8.893   7.293  0.1928 -1.4917 -0.2975
  187ccc     N2 3821   7.066   9.144   7.127  0.2283  0.7668 -0.6405
  187ccc     H7 3822   7.072   9.147   7.228  0.0701  0.2457 -0.6143
  188ccc     C1 3823   7.925   8.806   5.922  0.1960  0.1158  0.2383
  188ccc     H1 3824   8.032   8.795   5.899  0.0192  1.2263 -1.2815
  188ccc     H2 3825   7.867   8.724   5.878  0.8162 -1.4187  2.1685
  188ccc     C2 3826   7.872   8.925   5.844  0.2724 -0.3705 -0.2968
  188ccc     H3 3827   7.867   8.910   5.736  2.2692  2.4904 -0.9028
  188ccc     H4 3828   7.771   8.944   5.885  0.2811  0.6534 -0.7118
  188ccc     N1 3829   7.942   9.053   5.871  0.0194  0.2058 -0.2045
  188ccc     H5 3830   7.878   9.118   5.826  1.9020  0.3497 -2.8758
  188ccc     H6 3831   7.903   9.068   5.964 -2.2913 -1.3791 -0.8230
  188ccc     N2 3832   7.894   8.816   6.068  0.6339 -0.2824  0.7139
  188ccc     H7 3833   7.942   8.889   6.120  0.3564 -1.7206  3.1314
  189ccc     C1 3834   7.790   8.251   6.778 -0.5430 -0.9626  0.7856
  189ccc     H1 3835   7.889   8.244   6.825 -0.6805  0.3994  1.3380
  189ccc     H2 3836   7.723   8.266   6.863  1.7636 -0.0214  2.5215
  189ccc     C2 3837   7.751   8.116   6.717  0.3575 -0.6196  0.1291
  189ccc     H3 3838   7.762   8.050   6.804  1.0076 -0.7788 -0.0727
  189ccc     H4 3839   7.644   8.127   6.697  0.3246  2.4352  1.3879
  189ccc     N1 3840   7.837   8.095   6.600 -0.2195 -0.5158  0.4107
  189ccc     H5 3841   7.859   8.191   6.575  2.4141 -1.4461 -1.3007
  189ccc     H6 3842   7.928   8.062   6.634 -0.0706 -1.2708 -0.6880
  189ccc     N2 3843   7.791   8.375   6.690 -0.3071  0.3999  0.0972
  189ccc     H7 3844   7.880   8.417   6.668 -0.4958 -0.1789 -1.9225
  190ccc     C1 3845   5.637   6.197   4.211  0.0832  0.4829 -0.0470
  190ccc     H1 3846   5.576   6.286   4.190 -1.7054 -0.8197 -0.5742
  190ccc     H2 3847   5.722   6.190   4.141 -0.6654  1.4020 -1.0846
  190ccc     C2 3848   5.568   6.066   4.193  0.0540  0.1939  0.3751
  190ccc     H3 3849   5.546   6.043   4.088  2.5761  1.3593 -0.4985
  190ccc     H4 3850   5.640   5.986   4.217 -0.3159  0.2334  1.6986
  190ccc     N1 3851   5.457   6.049   4.284 -0.2713 -0.3721 -0.1614
  190ccc     H5 3852   5.413   5.964   4.251 -0.8459  0.7199 -2.4091
  190ccc     H6 3853   5.503   6.025   4.371  1.8418  2.1683 -0.4500
  190ccc     N2 3854   5.699   6.211   4.344  0.2445  0.1564  0.0631
  190ccc     H7 3855   5.703   6.131   4.405 -1.8106  0.9257  1.3349
  191ccc     C1 3856   6.308   5.979   4.751  0.7708  0.4251 -0.2803
  191ccc     H1 3857   6.376   5.997   4.835  1.0185  4.7889 -1.1749
  191ccc     H2 3858   6.255   5.889   4.784 -0.2014  1.5104  1.2750
  191ccc     C2 3859   6.391   5.955   4.616 -0.2494 -1.1367 -0.2469
  191ccc     H3 3860   6.454   5.867   4.632 -0.8636 -1.2697  1.7066
  191ccc     H4 3861   6.327   5.947   4.528 -0.4046  0.4830 -0.3228
  191ccc     N1 3862   6.478   6.069   4.590  0.2945  0.5206 -0.1684
  191ccc     H5 3863   6.501   6.058   4.491  3.2452  0.0878  0.4591
  191ccc     H6 3864   6.410   6.145   4.582 -0.2803  0.2252  1.5530
  191ccc     N2 3865   6.213   6.098   4.752 -0.0416  0.3802  0.2904
  191ccc     H7 3866   6.120   6.084   4.716 -1.0004 -0.3971  2.8315
  192ccc     C1 3867   5.850   6.367   5.266 -0.0892  0.0872 -0.8476
  192ccc     H1 3868   5.839   6.258   5.263  0.1070  0.0716 -1.0189
  192ccc     H2 3869   5.901   6.395   5.173  0.6593 -0.2412 -0.5364
  192ccc     C2 3870   5.929   6.406   5.387 -0.4624 -0.6304 -0.1389
  192ccc     H3 3871   6.018   6.343   5.400  1.4830  2.0866  0.7642
  192ccc     H4 3872   5.967   6.510   5.383  0.0888 -0.8629 -2.1008
  192ccc     N1 3873   5.850   6.399   5.511  0.0336 -0.5633  0.4871
  192ccc     H5 3874   5.806   6.309   5.494 -3.0265  0.8767  0.2155
  192ccc     H6 3875   5.924   6.383   5.579  0.5037 -2.4721 -0.4040
  192ccc     N2 3876   5.719   6.432   5.251  0.2006  0.0097  0.2318
  192ccc     H7 3877   5.718   6.519   5.198 -0.6824 -0.0234  0.1819
  193ccc     C1 3878   5.386   6.607   4.431 -0.8418 -0.0952  0.8289
  193ccc     H1 3879   5.324   6.661   4.358  1.3034  0.3168 -0.8042
  193ccc     H2 3880   5.478   6.668   4.432  0.1702 -1.5595  1.6675
  193ccc     C2 3881   5.419   6.464   4.376 -0.3680  0.2208  0.4562
  193ccc     H3 3882   5.473   6.474   4.282 -0.4913  0.1652  0.3787
  193ccc     H4 3883   5.467   6.408   4.458  0.1651  1.5542  1.0905
  193ccc     N1 3884   5.293   6.394   4.360 -0.5659  0.2990 -0.5316
  193ccc     H5 3885   5.251   6.411   4.451  4.6769 -1.4418  2.6622
  193ccc     H6 3886   5.235   6.448   4.295 -0.6285  0.9555  0.0512
  193ccc     N2 3887   5.327   6.625   4.569  0.0857 -0.0809  0.0689
  193ccc     H7 3888   5.245   6.574   4.598 -0.7334  1.7795  1.2233
  194ccc     C1 3889   3.778   6.803   5.391  0.0144 -0.2974 -0.1892
  194ccc     H1 3890   3.704   6.783   5.470 -1.0851  0.9536 -0.8586
  194ccc     H2 3891   3.782   6.912   5.380  1.3262 -0.3950 -0.8906
  194ccc     C2 3892   3.716   6.756   5.253  0.3142  0.2162 -0.0037
  194ccc     H3 3893   3.698   6.648   5.249 -2.2106  0.6210 -1.5740
  194ccc     H4 3894   3.619   6.808   5.247  1.3165  2.4257  1.4162
  194ccc     N1 3895   3.789   6.806   5.140  0.2498 -0.2093 -0.2180
  194ccc     H5 3896   3.873   6.749   5.142 -0.6739 -1.6019  0.0575
  194ccc     H6 3897   3.746   6.771   5.055  2.6469  1.1740 -2.1434
  194ccc     N2 3898   3.911   6.759   5.440 -0.1911 -0.1283  0.2138
  194ccc     H7 3899   3.943   6.664   5.425  0.2100  0.1195 -0.5539
  195ccc     C1 3900   4.766   6.584   5.827  0.0356  0.1422  0.2200
  195ccc     H1 3901   4.790   6.499   5.762 -0.7618 -1.5159  1.9575
  195ccc     H2 3902   4.870   6.609   5.853  0.4520 -0.3836 -0.8791
  195ccc     C2 3903   4.705   6.534   5.954  0.6231  0.2821  0.1714
  195ccc     H3 3904   4.607   6.498   5.921  1.4316 -0.6916 -1.2320
  195ccc     H4 3905   4.758   6.456   6.009  2.3133  0.8821 -0.5451
  195ccc     N1 3906   4.692   6.645   6.049 -0.5619  0.1817  0.0443
  195ccc     H5 3907   4.789   6.675   6.061 -0.0010 -1.0775 -1.1849
  195ccc     H6 3908   4.639   6.714   5.995 -0.3551  0.2872 -0.0243
  195ccc     N2 3909   4.697   6.699   5.765 -0.4670  0.4054  0.9298
  195ccc     H7 3910   4.674   6.783   5.817 -0.6935  1.6134 -1.0268
  196ccc     C1 3911   5.093   6.940   4.616  0.1774  0.6912  0.0630
  196ccc     H1 3912   5.118   7.015   4.540  1.2592 -0.7524 -1.0540
  196ccc     H2 3913   5.186   6.913   4.668  0.9602  0.9513 -1.1746
  196ccc     C2 3914   5.032   6.821   4.538  0.3636  0.4733 -0.2666
  196ccc     H3 3915   5.105   6.788   4.462  0.2082  1.1627 -0.7252
  196ccc     H4 3916   5.009   6.744   4.613  0.0059  0.0036 -0.8458
  196ccc     N1 3917   4.902   6.866   4.477 -0.1952  0.1842 -0.4703
  196ccc     H5 3918   4.851   6.902   4.558  1.7628  1.2732  0.3309
  196ccc     H6 3919   4.928   6.957   4.439  0.1774 -0.2061 -1.1626
  196ccc     N2 3920   5.002   7.009   4.713 -0.0928  0.5382 -0.1993
  196ccc     H7 3921   4.922   7.065   4.687 -0.2088 -0.1573 -1.4294
  197ccc     C1 3922   5.332   7.486   4.400  0.3329 -0.5709  0.2620
  197ccc     H1 3923   5.314   7.494   4.292 -0.1725  2.6605  0.4783
  197ccc     H2 3924   5.302   7.585   4.437 -0.6468 -0.9385  0.4982
  197ccc     C2 3925   5.481   7.472   4.423 -0.0378 -1.0864  0.0000
  197ccc     H3 3926   5.540   7.535   4.356  0.1149 -1.1270  0.0937
  197ccc     H4 3927   5.506   7.509   4.524  0.2906  3.5566 -1.5699
  197ccc     N1 3928   5.524   7.336   4.392 -0.4333  0.8390 -0.7997
  197ccc     H5 3929   5.469   7.279   4.455  1.5416 -2.4379 -1.8009
  197ccc     H6 3930   5.495   7.316   4.296  0.1196  3.3921 -1.5781
  197ccc     N2 3931   5.247   7.384   4.469  0.1888  0.0473 -0.1467
  197ccc     H7 3932   5.279   7.288   4.471 -0.4021 -0.2876 -2.8312
  198ccc     C1 3933   7.089   8.396   6.682  0.2319  0.0701  0.4095
  198ccc     H1 3934   7.156   8.477   6.712  0.3634 -0.2823  1.0954
  198ccc     H2 3935   6.992   8.444   6.661  0.7928  1.0930  0.1255
  198ccc     C2 3936   7.063   8.304   6.807  0.0750  0.3026  0.7914
  198ccc     H3 3937   7.023   8.360   6.893 -2.7223  1.1135 -0.9210
  198ccc     H4 3938   6.998   8.217   6.788  0.9362  0.0305 -1.1387
  198ccc     N1 3939   7.195   8.253   6.853  0.1960 -0.1002  0.2325
  198ccc     H5 3940   7.245   8.220   6.770  0.2098 -0.4984  0.3986
  198ccc     H6 3941   7.234   8.345   6.871 -1.5253  0.5297  1.0073
  198ccc     N2 3942   7.148   8.324   6.568 -0.0076 -0.3564  0.4773
  198ccc     H7 3943   7.229   8.265   6.580 -0.0160 -0.0124  2.6775
  199ccc     C1 3944   7.701   7.648   6.359 -0.2357  0.1803  0.3381
  199ccc     H1 3945   7.680   7.625   6.464 -1.9442  2.0700  0.4651
  199ccc     H2 3946   7.713   7.553   6.304  4.4314  0.0720  1.1154
  199ccc     C2 3947   7.838   7.717   6.328 -0.3389  0.2441  0.4076
  199ccc     H3 3948   7.916   7.641   6.312  0.1962  0.9755 -0.5160
  199ccc     H4 3949   7.837   7.772   6.233  3.1545 -1.0089 -0.5132
  199ccc     N1 3950   7.871   7.805   6.441 -0.1514  0.6273  0.4108
  199ccc     H5 3951   7.882   7.740   6.519 -0.1059 -0.8088 -0.7417
  199ccc     H6 3952   7.968   7.832   6.428  0.0886  0.7885  2.2849
  199ccc     N2 3953   7.583   7.721   6.304  0.5065  0.0545  0.3148
  199ccc     H7 3954   7.542   7.694   6.216 -2.3650  1.7526  1.0155
  200ccc     C1 3955   7.351   8.946   6.901 -1.0193 -0.7325 -0.3913
  200ccc     H1 3956   7.442   9.003   6.881 -1.7872  0.5477 -0.3981
  200ccc     H2 3957   7.272   9.012   6.940 -1.4768 -2.1335  1.1550
  200ccc     C2 3958   7.373   8.834   6.994 -0.0271 -0.0250  0.3414
  200ccc     H3 3959   7.410   8.861   7.094 -0.2147 -0.0644  0.4226
  200ccc     H4 3960   7.280   8.780   7.017  0.4200 -0.1001  2.1476
  200ccc     N1 3961   7.473   8.738   6.944  0.2264 -0.5315  0.0013
  200ccc     H5 3962   7.563   8.783   6.963 -0.0004 -0.2582  0.4192
  200ccc     H6 3963   7.474   8.766   6.846 -0.4528  3.5516  0.9799
  200ccc     N2 3964   7.305   8.904   6.768 -0.2027 -0.2891  0.1693
  200ccc     H7 3965   7.207   8.917   6.744 -0.8329 -0.0263  2.6326
  201ccc     C1 3966   7.728   8.311   6.160  0.3063 -0.4516  0.1346
  201ccc     H1 3967   7.681   8.260   6.075 -0.4347 -1.9035  1.3687
  201ccc     H2 3968   7.820   8.357   6.121  0.3960  0.2267  1.1202
  201ccc     C2 3969   7.787   8.228   6.278 -0.2881  0.2761  0.5649
  201ccc     H3 3970   7.886   8.188   6.253 -0.7557  0.4838 -1.8683
  201ccc     H4 3971   7.809   8.303   6.355  0.9404  0.7586 -0.2049
  201ccc     N1 3972   7.694   8.119   6.329 -0.5207 -0.5300  0.1226
  201ccc     H5 3973   7.618   8.186   6.346  0.2808  0.5255 -0.3373
  201ccc     H6 3974   7.656   8.075   6.245 -4.2277  0.6402  0.9713
  201ccc     N2 3975   7.641   8.427   6.206  0.2682 -0.1044 -0.2603
  201ccc     H7 3976   7.658   8.526   6.188  0.1555 -0.1625 -0.7045
  202ccc     C1 3977   5.953   8.825   5.088  0.4740 -0.4741  0.8318
  202ccc     H1 3978   5.980   8.853   5.191  0.5141 -0.0798  0.7161
  202ccc     H2 3979   5.999   8.901   5.023 -0.4852 -2.1919 -2.0343
  202ccc     C2 3980   5.794   8.829   5.071 -0.1947  0.0637  0.5180
  202ccc     H3 3981   5.745   8.923   5.099 -1.5698 -0.9433  1.7017
  202ccc     H4 3982   5.751   8.805   4.973  0.8929 -1.1296  0.2984
  202ccc     N1 3983   5.728   8.727   5.160  0.2622  0.7908 -0.3051
  202ccc     H5 3984   5.769   8.636   5.138 -0.5563  0.4280 -0.3775
  202ccc     H6 3985   5.776   8.741   5.250 -0.4271  0.9502  0.0452
  202ccc     N2 3986   6.005   8.693   5.055 -1.1791 -0.2577  0.3367
  202ccc     H7 3987   5.940   8.637   5.001 -2.2176  0.0645  1.2221
  203ccc     C1 3988   6.031   8.726   4.218  0.0068  0.1697  0.3278
  203ccc     H1 3989   6.063   8.789   4.134 -0.1424  1.5265  1.2487
  203ccc     H2 3990   6.032   8.620   4.190  0.3703  0.2285  0.1191
  203ccc     C2 3991   5.895   8.776   4.260 -0.3777  0.2496 -0.5147
  203ccc     H3 3992   5.815   8.737   4.196 -2.1632  2.8014  0.0293
  203ccc     H4 3993   5.872   8.736   4.360 -0.6090  1.0623 -0.2301
  203ccc     N1 3994   5.890   8.922   4.276  0.3528 -0.2999 -0.2159
  203ccc     H5 3995   5.883   8.938   4.175 -2.5471 -0.6188 -0.1501
  203ccc     H6 3996   5.799   8.949   4.313  1.1405  2.5521 -0.1559
  203ccc     N2 3997   6.132   8.738   4.322 -0.4959 -0.2182 -0.5179
  203ccc     H7 3998   6.137   8.810   4.393 -0.4870 -0.1562 -0.5827
  204ccc     C1 3999   7.334   8.179   5.820  0.5932  0.0145  0.2140
  204ccc     H1 4000   7.359   8.236   5.730 -0.1117  0.2978  0.1926
  204ccc     H2 4001   7.268   8.237   5.886 -0.8786 -0.3249 -0.9217
  204ccc     C2 4002   7.468   8.157   5.901  0.3453 -0.6530  0.9063
  204ccc     H3 4003   7.515   8.254   5.923  0.7054 -0.1486 -1.7737
  204ccc     H4 4004   7.447   8.112   5.999  1.0019  1.3513  2.0235
  204ccc     N1 4005   7.571   8.085   5.829 -0.2236  0.6331  0.2632
  204ccc     H5 4006   7.528   7.994   5.814  0.0795  0.8147 -2.1554
  204ccc     H6 4007   7.566   8.127   5.736  3.7844  0.5527 -0.1382
  204ccc     N2 4008   7.263   8.054   5.785 -0.3324  0.2189 -0.5131
  204ccc     H7 4009   7.318   7.968   5.789 -0.8987 -0.2607 -2.2389
  205ccc     C1 4010   7.306   7.263   5.860  0.1352  0.8423  0.5936
  205ccc     H1 4011   7.275   7.196   5.779  2.0533  0.2828  0.2718
  205ccc     H2 4012   7.414   7.282   5.852  0.2447  0.0094  0.0320
  205ccc     C2 4013   7.274   7.187   5.991 -0.2579  0.1361  0.5974
  205ccc     H3 4014   7.173   7.143   5.981  0.3956 -1.2400 -0.2300
  205ccc     H4 4015   7.344   7.103   6.000  0.3825  0.3876 -1.6252
  205ccc     N1 4016   7.286   7.275   6.110 -0.6849 -0.0934 -0.6699
  205ccc     H5 4017   7.233   7.360   6.086 -0.2499  0.7065  1.0429
  205ccc     H6 4018   7.212   7.246   6.174  0.1135  0.4250  0.5003
  205ccc     N2 4019   7.242   7.394   5.846 -0.1348  0.8254  0.1093
  205ccc     H7 4020   7.300   7.476   5.839 -0.4195  0.9051 -2.0085
  206ccc     C1 4021   3.301   9.412   7.107 -0.1890 -0.0567  0.1688
  206ccc     H1 4022   3.328   9.365   7.203  0.5964 -1.0458 -0.5176
  206ccc     H2 4023   3.290   9.517   7.138 -1.6441 -0.5974  1.5917
  206ccc     C2 4024   3.161   9.371   7.054  0.0897 -0.1001 -0.9852
  206ccc     H3 4025   3.096   9.378   7.142 -1.0058 -0.0278 -1.7804
  206ccc     H4 4026   3.124   9.442   6.979  1.8169  0.1970 -1.5986
  206ccc     N1 4027   3.168   9.229   7.005  0.1476  0.4936 -0.2291
  206ccc     H5 4028   3.075   9.207   6.970  0.0671 -3.6314  1.9399
  206ccc     H6 4029   3.202   9.229   6.908 -2.8790  1.7397 -1.3989
  206ccc     N2 4030   3.408   9.386   7.000  0.9942  0.2625  0.2211
  206ccc     H7 4031   3.387   9.367   6.903  0.9666  1.0717  0.0606
  207ccc     C1 4032   4.153   9.599   6.591  0.6212  0.3908 -0.7256
  207ccc     H1 4033   4.086   9.676   6.631 -0.5979 -0.7252 -0.5365
  207ccc     H2 4034   4.241   9.569   6.648  2.1723 -1.5303 -3.8588
  207ccc     C2 4035   4.215   9.667   6.464  0.6278  0.4801 -0.0116
  207ccc     H3 4036   4.140   9.732   6.418 -0.1136  1.6746  2.6498
  207ccc     H4 4037   4.290   9.742   6.494 -1.2308  1.8186  1.5657
  207ccc     N1 4038   4.267   9.564   6.376 -0.1689  0.5924  1.1578
  207ccc     H5 4039   4.345   9.511   6.416  0.2710 -1.5267 -2.1096
  207ccc     H6 4040   4.207   9.483   6.388 -0.0288  0.7354  3.3313
  207ccc     N2 4041   4.054   9.491   6.575 -0.2512 -1.1590 -0.5280
  207ccc     H7 4042   3.979   9.494   6.507 -0.8014 -1.1184  0.0679
  208ccc     C1 4043   2.530   8.485   6.546  0.3018 -0.1714 -0.2319
  208ccc     H1 4044   2.529   8.550   6.457  1.8183  0.0077 -0.1431
  208ccc     H2 4045   2.447   8.414   6.540  0.7430 -0.6866 -0.3057
  208ccc     C2 4046   2.520   8.561   6.674 -0.4988 -0.3470 -0.0133
  208ccc     H3 4047   2.614   8.611   6.701  0.0387 -1.6394  0.5969
  208ccc     H4 4048   2.432   8.626   6.670 -0.4828 -0.2354  1.0997
  208ccc     N1 4049   2.492   8.471   6.783 -0.6154  0.7892 -0.0968
  208ccc     H5 4050   2.410   8.416   6.759 -0.6246  1.5400 -1.8849
  208ccc     H6 4051   2.566   8.401   6.775 -0.7093  0.7869 -1.0207
  208ccc     N2 4052   2.658   8.401   6.543  0.2360 -0.1517  0.1707
  208ccc     H7 4053   2.737   8.419   6.604 -0.5267  0.2517  1.0831
  209ccc     C1 4054   3.249   7.865   5.992 -0.5943 -0.6387  0.1111
  209ccc     H1 4055   3.268   7.759   6.010  1.6398 -0.5666 -1.3443
  209ccc     H2 4056   3.166   7.882   5.922 -0.5673 -2.8486 -0.5210
  209ccc     C2 4057   3.378   7.917   5.924 -0.4431 -0.3102 -0.3327
  209ccc     H3 4058   3.455   7.907   6.002  0.3445  0.9013 -0.9360
  209ccc     H4 4059   3.396   7.851   5.838  0.0122 -2.8554  1.5907
  209ccc     N1 4060   3.369   8.058   5.896 -0.2724 -0.0869 -0.3629
  209ccc     H5 4061   3.357   8.085   5.994 -2.7297  0.3691 -0.7098
  209ccc     H6 4062   3.466   8.083   5.880  0.4062 -1.5095  1.2226
  209ccc     N2 4063   3.213   7.933   6.118  0.0855  0.2915  0.4428
  209ccc     H7 4064   3.255   7.885   6.198  1.6473  0.5824 -0.1615
  210ccc     C1 4065   5.234   7.512   7.912 -0.5145  0.0858 -0.0285
  210ccc     H1 4066   5.139   7.501   7.966  0.8647 -0.5455  2.4317
  210ccc     H2 4067   5.265   7.410   7.889  1.1594  0.1913  1.5348
  210ccc     C2 4068   5.343   7.578   8.002  0.2851 -0.2254 -0.3712
  210ccc     H3 4069   5.321   7.541   8.103  0.3260  0.8717  0.0550
  210ccc     H4 4070   5.439   7.545   7.960 -0.1209  0.5055 -1.9786
  210ccc     N1 4071   5.345   7.724   8.002 -0.2555  0.5239  0.2890
  210ccc     H5 4072   5.250   7.748   8.027 -0.0363  0.1374  1.5903
  210ccc     H6 4073   5.381   7.746   8.095 -0.8832  1.4948  0.3171
  210ccc     N2 4074   5.203   7.588   7.785 -0.0127  0.1178  0.1790
  210ccc     H7 4075   5.250   7.677   7.775 -1.8599  1.3603  1.7986
  211ccc     C1 4076   5.388   7.763   6.930 -0.2625  0.6046  0.4855
  211ccc     H1 4077   5.443   7.671   6.953  0.4555  0.5498 -1.3146
  211ccc     H2 4078   5.333   7.741   6.838  0.8986  3.4008 -0.9794
  211ccc     C2 4079   5.470   7.889   6.896 -0.6388  0.3322  0.0878
  211ccc     H3 4080   5.503   7.939   6.988 -0.7241  0.7680 -0.1221
  211ccc     H4 4081   5.560   7.860   6.841 -0.5222  0.3073  0.2883
  211ccc     N1 4082   5.403   7.989   6.814 -0.7480 -0.4335 -0.1158
  211ccc     H5 4083   5.363   7.933   6.738 -0.7284 -1.3918  0.5580
  211ccc     H6 4084   5.320   8.003   6.871 -0.8320 -0.3174 -0.2677
  211ccc     N2 4085   5.296   7.792   7.038 -0.0669  0.9428 -0.2185
  211ccc     H7 4086   5.240   7.876   7.033  1.5966  2.0835 -0.7116
  212ccc     C1 4087   5.191   9.145   7.133 -0.5305  0.5166  0.3984
  212ccc     H1 4088   5.250   9.104   7.051 -0.5997  0.1155  0.5481
  212ccc     H2 4089   5.113   9.209   7.089 -0.4048  0.9477  0.7824
  212ccc     C2 4090   5.277   9.230   7.220  0.1232 -0.7298 -0.2959
  212ccc     H3 4091   5.331   9.160   7.285  2.4098  1.6907  0.5873
  212ccc     H4 4092   5.342   9.279   7.147  0.6480 -1.1907 -0.1412
  212ccc     N1 4093   5.204   9.323   7.309  0.1158 -0.0358 -0.0631
  212ccc     H5 4094   5.136   9.272   7.366 -2.2734  1.8498 -1.0098
  212ccc     H6 4095   5.281   9.353   7.368  0.9757  0.9399 -1.6070
  212ccc     N2 4096   5.130   9.034   7.217 -0.4139 -0.6864 -0.1155
  212ccc     H7 4097   5.111   9.049   7.315 -2.5980 -1.5257 -0.3608
  213ccc     C1 4098   5.150   8.053   7.465 -0.3885 -0.4190 -0.2841
  213ccc     H1 4099   5.121   8.040   7.570 -0.4198  2.7757  0.2141
  213ccc     H2 4100   5.063   8.004   7.419  0.0657 -0.3108 -1.2886
  213ccc     C2 4101   5.281   7.972   7.452  0.5187 -0.9620  0.2080
  213ccc     H3 4102   5.267   7.866   7.478 -3.3570 -0.8065 -0.6659
  213ccc     H4 4103   5.314   7.979   7.348 -0.6063 -0.2006 -0.1046
  213ccc     N1 4104   5.377   8.048   7.534 -0.6160 -0.8498  0.5965
  213ccc     H5 4105   5.470   8.012   7.511 -0.8465 -3.0439  2.6738
  213ccc     H6 4106   5.373   8.147   7.511 -0.9971 -0.6975  1.3057
  213ccc     N2 4107   5.165   8.197   7.435  0.3050 -0.2476  0.4484
  213ccc     H7 4108   5.192   8.265   7.505  2.4020  0.4482 -0.9501
  214ccc     C1 4109   4.448   6.467   5.266  0.2621  0.6211 -0.1967
  214ccc     H1 4110   4.532   6.523   5.310  1.5723 -1.2804 -0.1417
  214ccc     H2 4111   4.353   6.495   5.313 -0.0461 -1.9253  0.8824
  214ccc     C2 4112   4.465   6.316   5.300  0.2123 -0.0693 -0.4757
  214ccc     H3 4113   4.453   6.312   5.409  0.7300  2.8133 -0.2547
  214ccc     H4 4114   4.380   6.262   5.256 -1.2552  0.3198  1.7230
  214ccc     N1 4115   4.591   6.258   5.250  0.5500 -0.2997  0.7948
  214ccc     H5 4116   4.577   6.280   5.152 -0.3540  0.7025  1.1261
  214ccc     H6 4117   4.664   6.326   5.273  0.3844 -0.6569  2.4991
  214ccc     N2 4118   4.425   6.497   5.125 -0.4014 -0.5185  0.0890
  214ccc     H7 4119   4.454   6.428   5.057 -1.2553  0.4189 -1.2724
  215ccc     C1 4120   4.894   6.188   4.984 -0.0837  0.0205  0.0071
  215ccc     H1 4121   4.790   6.155   4.969  0.1252 -0.5544 -0.1787
  215ccc     H2 4122   4.946   6.173   4.889 -3.4153  1.6331 -2.2966
  215ccc     C2 4123   4.951   6.094   5.096 -0.5830  0.4114  0.5059
  215ccc     H3 4124   4.935   5.987   5.078 -2.3130  0.6621  0.3935
  215ccc     H4 4125   5.059   6.113   5.107 -0.4127  1.9356 -2.5125
  215ccc     N1 4126   4.884   6.139   5.214  0.2988  0.8052 -0.5005
  215ccc     H5 4127   4.955   6.105   5.279 -0.7595  0.4624  0.5212
  215ccc     H6 4128   4.899   6.239   5.228  0.6814  0.6592  0.2347
  215ccc     N2 4129   4.905   6.333   5.022 -0.1656  0.2723 -0.2633
  215ccc     H7 4130   4.874   6.357   5.116  0.7800 -1.7842  0.6306
  216ccc     C1 4131   6.162   7.697   5.562 -0.2294 -0.1723 -0.3827
  216ccc     H1 4132   6.194   7.594   5.579  0.9232 -0.1149 -1.9408
  216ccc     H2 4133   6.206   7.704   5.461  1.4651 -0.3346  0.3080
  216ccc     C2 4134   6.231   7.788   5.666 -0.3220  0.4723  0.0371
  216ccc     H3 4135   6.338   7.772   5.651 -0.4396 -0.5858  0.2738
  216ccc     H4 4136   6.208   7.893   5.639 -0.2565  0.2060 -1.1310
  216ccc     N1 4137   6.192   7.758   5.806  0.6603  0.4227 -0.0393
  216ccc     H5 4138   6.248   7.824   5.860  2.6120  2.9369 -4.5698
  216ccc     H6 4139   6.095   7.773   5.831  0.1610 -2.2372 -0.0595
  216ccc     N2 4140   6.017   7.705   5.555 -0.7140 -0.3486  0.0325
  216ccc     H7 4141   5.968   7.780   5.603 -1.1227  0.7103 -1.8820
  217ccc     C1 4142   5.883   7.677   4.622  0.0766 -0.0985 -0.2344
  217ccc     H1 4143   5.880   7.783   4.592  0.6816 -0.5904 -2.2042
  217ccc     H2 4144   5.983   7.648   4.588  0.6484  0.2454  1.0848
  217ccc     C2 4145   5.788   7.599   4.532  0.4842  0.6266  0.3053
  217ccc     H3 4146   5.692   7.652   4.541  0.2010  0.5671 -1.7516
  217ccc     H4 4147   5.824   7.609   4.429 -0.1502 -0.4868 -0.0461
  217ccc     N1 4148   5.789   7.458   4.568  0.4217 -0.1991 -0.1428
  217ccc     H5 4149   5.865   7.451   4.636  1.2769  0.2322 -1.0352
  217ccc     H6 4150   5.714   7.458   4.638  0.0352  0.3187 -0.5512
  217ccc     N2 4151   5.866   7.654   4.768  0.3217  0.6993  0.6161
  217ccc     H7 4152   5.944   7.605   4.811  0.2714  0.0362 -0.0322
  218ccc     C1 4153   3.693   5.833   5.118  0.3167 -0.1028 -0.2299
  218ccc     H1 4154   3.740   5.862   5.023 -1.3455 -0.9098 -1.3449
  218ccc     H2 4155   3.669   5.726   5.105  0.0765  0.1072 -1.7140
  218ccc     C2 4156   3.554   5.896   5.131 -0.7004 -0.2523  0.2705
  218ccc     H3 4157   3.564   6.006   5.131 -1.1196 -0.2122  0.4425
  218ccc     H4 4158   3.485   5.869   5.051  0.1694 -2.8227  0.3030
  218ccc     N1 4159   3.492   5.869   5.259 -0.3138 -0.3430 -0.2437
  218ccc     H5 4160   3.479   5.768   5.263 -0.6959 -0.2735  0.3113
  218ccc     H6 4161   3.567   5.877   5.328 -0.3154  1.1697 -0.3782
  218ccc     N2 4162   3.782   5.850   5.233  0.6785  0.2194  0.1717
  218ccc     H7 4163   3.814   5.772   5.290 -0.2892 -2.9446 -3.1838
  219ccc     C1 4164   4.608   5.708   5.187 -0.1837  0.6498 -0.2278
  219ccc     H1 4165   4.665   5.724   5.279  1.0701 -2.9706 -0.2277
  219ccc     H2 4166   4.626   5.601   5.173  1.2370  0.6753  1.1172
  219ccc     C2 4167   4.665   5.796   5.074  0.1676 -0.8095 -0.1509
  219ccc     H3 4168   4.775   5.789   5.081  0.4602  2.3222 -0.0540
  219ccc     H4 4169   4.622   5.756   4.981  0.4024 -0.0921 -0.5828
  219ccc     N1 4170   4.616   5.935   5.108  0.0400 -0.6023  0.4704
  219ccc     H5 4171   4.616   5.991   5.023  0.9464  0.6150  1.2511
  219ccc     H6 4172   4.517   5.915   5.119  0.0109 -0.6493  0.1289
  219ccc     N2 4173   4.467   5.725   5.225  0.2101 -0.0431 -0.8075
  219ccc     H7 4174   4.407   5.770   5.157  2.6172  1.4809 -2.0923
  220ccc     C1 4175   4.179   6.488   6.349 -0.6829 -0.3837 -0.3714
  220ccc     H1 4176   4.260   6.513   6.280 -2.1641  0.3617 -1.9422
  220ccc     H2 4177   4.206   6.494   6.455  1.0922  0.4221 -0.8460
  220ccc     C2 4178   4.127   6.342   6.322  0.6388  0.0394  0.2369
  220ccc     H3 4179   4.131   6.302   6.220 -2.8214 -2.7558  0.9870
  220ccc     H4 4180   4.179   6.267   6.384 -0.3586 -0.4821  0.4724
  220ccc     N1 4181   3.984   6.344   6.364 -0.0594  0.8275 -0.0628
  220ccc     H5 4182   3.935   6.394   6.289 -1.0371  1.1884  0.7837
  220ccc     H6 4183   3.946   6.252   6.343  0.4611  0.9062 -1.4243
  220ccc     N2 4184   4.078   6.595   6.317  0.3579 -0.0011  0.0647
  220ccc     H7 4185   3.982   6.568   6.298 -0.4335  0.4766  2.8664
  221ccc     C1 4186   3.715   6.931   6.895 -0.3895 -0.1022  0.2403
  221ccc     H1 4187   3.810   6.975   6.925  2.1229 -1.5557 -4.4819
  221ccc     H2 4188   3.630   6.992   6.928 -1.6914 -0.4591 -2.1789
  221ccc     C2 4189   3.704   6.789   6.954  0.1264 -0.4830  0.4096
  221ccc     H3 4190   3.794   6.728   6.958 -0.3865 -1.2199  0.9309
  221ccc     H4 4191   3.677   6.812   7.058  2.5955 -0.2667  1.0685
  221ccc     N1 4192   3.589   6.722   6.891 -0.0400 -0.0335  0.3925
  221ccc     H5 4193   3.631   6.701   6.801  1.2467  1.6297  0.5642
  221ccc     H6 4194   3.597   6.631   6.936  1.3369  0.3138  0.8962
  221ccc     N2 4195   3.710   6.947   6.745  0.5223  0.2822  0.3746
  221ccc     H7 4196   3.716   6.873   6.677  3.5470  0.8078 -0.0451
  222ccc     C1 4197   5.484   8.547   4.974 -0.1629 -0.0939 -0.0213
  222ccc     H1 4198   5.430   8.642   4.964  0.2941  0.0210 -1.7532
  222ccc     H2 4199   5.535   8.551   5.071  2.5391  0.3703 -1.3470
  222ccc     C2 4200   5.607   8.533   4.881  0.2103 -1.0218 -0.2112
  222ccc     H3 4201   5.663   8.627   4.884  0.7387 -1.1877 -2.4910
  222ccc     H4 4202   5.662   8.439   4.898 -0.5284 -1.4633 -0.2209
  222ccc     N1 4203   5.569   8.531   4.738 -0.2527 -0.2282  0.5037
  222ccc     H5 4204   5.659   8.535   4.691 -0.3311 -0.3333  0.3440
  222ccc     H6 4205   5.557   8.430   4.729 -0.9855 -0.1464  0.5350
  222ccc     N2 4206   5.397   8.434   4.974 -0.7097  0.0078 -0.4229
  222ccc     H7 4207   5.367   8.400   4.883 -0.1896 -1.6487  0.0001
  223ccc     C1 4208   4.759   7.978   4.541  0.3494  0.9172 -0.7120
  223ccc     H1 4209   4.715   8.066   4.492 -2.9124  0.6919  1.5195
  223ccc     H2 4210   4.858   7.955   4.498 -0.5234  0.0090 -2.3188
  223ccc     C2 4211   4.659   7.863   4.519 -0.8060 -0.3259  0.2239
  223ccc     H3 4212   4.560   7.882   4.561 -0.9267  2.7005 -1.1391
  223ccc     H4 4213   4.649   7.862   4.409  2.8866 -0.1999 -0.2318
  223ccc     N1 4214   4.722   7.740   4.559  0.0441  0.2160  0.5893
  223ccc     H5 4215   4.727   7.751   4.661 -0.4599  1.3660  0.4993
  223ccc     H6 4216   4.658   7.666   4.531  2.3928 -1.5221 -0.5257
  223ccc     N2 4217   4.765   8.005   4.689  0.3125 -0.3164  0.5938
  223ccc     H7 4218   4.683   8.029   4.742 -0.0068 -0.6292  0.2502
  224ccc     C1 4219   3.783   8.981   4.932 -0.1558  0.5652 -0.2018
  224ccc     H1 4220   3.807   8.955   4.829  0.5073 -1.0371  0.3181
  224ccc     H2 4221   3.706   8.911   4.969  0.7467  1.1924  3.2414
  224ccc     C2 4222   3.719   9.122   4.934 -0.1504 -0.3366  0.3248
  224ccc     H3 4223   3.795   9.192   4.896 -0.5883 -1.1665 -2.2269
  224ccc     H4 4224   3.637   9.121   4.862  2.3809  0.8223 -2.8047
  224ccc     N1 4225   3.681   9.169   5.068 -0.1523 -0.3091 -0.0043
  224ccc     H5 4226   3.607   9.114   5.111  0.7296 -0.3521  1.5349
  224ccc     H6 4227   3.758   9.136   5.126 -1.0367 -0.4351  1.1563
  224ccc     N2 4228   3.905   8.975   5.014  0.8415 -0.4842 -0.2079
  224ccc     H7 4229   3.903   8.936   5.108 -0.5977 -0.2070 -0.1026
  225ccc     C1 4230   4.799   9.368   5.193  0.3055  0.0663  0.6025
  225ccc     H1 4231   4.784   9.430   5.282  2.5730 -0.0900  1.1645
  225ccc     H2 4232   4.905   9.341   5.205  0.5194  0.6998  0.1507
  225ccc     C2 4233   4.774   9.466   5.072 -0.6202  0.0559  0.1562
  225ccc     H3 4234   4.859   9.536   5.081  1.3246 -2.1525 -0.1326
  225ccc     H4 4235   4.774   9.418   4.973  2.0374  0.4137 -0.1056
  225ccc     N1 4236   4.637   9.526   5.076  0.0975 -0.0972 -0.6178
  225ccc     H5 4237   4.566   9.456   5.054 -1.7569  1.8428 -1.0406
  225ccc     H6 4238   4.617   9.530   5.176 -1.8068  2.3774 -0.9986
  225ccc     N2 4239   4.709   9.248   5.194 -0.1229  0.1445  0.2277
  225ccc     H7 4240   4.742   9.159   5.159  1.2854 -0.3523  2.6251
  226ccc     C1 4241   3.917   9.590   4.861  0.6012  0.5634 -0.8797
  226ccc     H1 4242   3.866   9.685   4.840  1.0889  0.7729 -1.1281
  226ccc     H2 4243   4.014   9.581   4.811  0.7645 -3.1720 -0.2052
  226ccc     C2 4244   3.832   9.473   4.813  0.5888 -0.5299  0.2302
  226ccc     H3 4245   3.816   9.495   4.707  1.3775 -2.1857 -0.2831
  226ccc     H4 4246   3.885   9.376   4.816  0.0368 -0.9388 -1.8098
  226ccc     N1 4247   3.701   9.469   4.873 -0.1292  0.0402 -0.3900
  226ccc     H5 4248   3.664   9.400   4.807  0.7908  2.1773 -3.3796
  226ccc     H6 4249   3.651   9.553   4.842  1.2500  1.6822  1.5649
  226ccc     N2 4250   3.947   9.603   5.001  0.6060  0.2498 -0.1270
  226ccc     H7 4251   3.888   9.565   5.074 -0.8466  3.0106  0.3016
  227ccc     C1 4252   4.047   9.783   5.955  0.1310 -0.5078 -0.6090
  227ccc     H1 4253   4.153   9.801   5.974  0.3145 -0.3187 -1.7889
  227ccc     H2 4254   4.003   9.882   5.943 -2.1369 -1.3214  0.3850
  227ccc     C2 4255   4.006   9.700   6.079  0.1075  0.1804 -0.1512
  227ccc     H3 4256   4.009   9.761   6.170  0.6190 -2.3956  1.6494
  227ccc     H4 4257   3.903   9.666   6.064  0.1204  0.1530 -0.1785
  227ccc     N1 4258   4.084   9.577   6.092  0.2301 -0.5533  0.4305
  227ccc     H5 4259   4.052   9.515   6.166  1.1203 -2.4579 -0.6959
  227ccc     H6 4260   4.063   9.518   6.011 -2.2328  0.3138  0.3720
  227ccc     N2 4261   4.039   9.721   5.825 -0.1126  0.0219 -0.3672
  227ccc     H7 4262   3.984   9.636   5.819  0.2417 -0.2806  0.5235
  228ccc     C1 4263   3.278   9.561   4.996 -0.6829  0.2615 -0.2281
  228ccc     H1 4264   3.188   9.592   4.942 -0.5769  0.0425 -0.5397
  228ccc     H2 4265   3.360   9.607   4.939  0.3556  1.1113  1.8523
  228ccc     C2 4266   3.302   9.408   4.983  0.4996 -0.0354 -0.5247
  228ccc     H3 4267   3.210   9.355   5.011  0.1447  1.1380  0.6373
  228ccc     H4 4268   3.319   9.384   4.877 -0.2841  1.5945 -1.0620
  228ccc     N1 4269   3.417   9.362   5.070 -0.2601 -0.5459 -0.1268
  228ccc     H5 4270   3.384   9.372   5.166  0.0682 -1.8166  0.1410
  228ccc     H6 4271   3.414   9.261   5.070 -2.7445 -0.5363  1.5511
  228ccc     N2 4272   3.264   9.614   5.135  0.4199 -0.2680 -0.1982
  228ccc     H7 4273   3.251   9.554   5.216  0.5335 -0.1833 -0.1169
  229ccc     C1 4274   3.104  10.296   5.720 -0.1944 -0.2142  0.0303
  229ccc     H1 4275   3.148  10.280   5.819 -2.0147  0.6431  1.0253
  229ccc     H2 4276   3.151  10.378   5.664 -0.5259 -0.0881 -0.0644
  229ccc     C2 4277   2.957  10.328   5.741 -0.2304 -0.1471  0.0431
  229ccc     H3 4278   2.947  10.433   5.773  0.4248 -0.1850  0.3853
  229ccc     H4 4279   2.905  10.308   5.646 -1.6714  0.6754  0.6271
  229ccc     N1 4280   2.900  10.241   5.841 -0.4866 -0.0866 -0.3927
  229ccc     H5 4281   2.800  10.256   5.832  0.0460  2.7780 -3.2074
  229ccc     H6 4282   2.906  10.151   5.794 -0.8189  0.0136 -0.6269
  229ccc     N2 4283   3.139  10.182   5.635  0.0802  0.3034  0.0881
  229ccc     H7 4284   3.100  10.163   5.543 -0.4989 -0.7716  0.5399
  230ccc     C1 4285   5.664   8.768   5.563 -0.0481 -0.0403  0.0440
  230ccc     H1 4286   5.663   8.687   5.489  0.1284 -2.1280  2.1635
  230ccc     H2 4287   5.622   8.736   5.660 -1.9138 -2.1604 -1.3660
  230ccc     C2 4288   5.583   8.891   5.517 -0.0559 -0.0056  0.6653
  230ccc     H3 4289   5.478   8.863   5.507  0.3002 -0.8638 -1.1613
  230ccc     H4 4290   5.602   8.970   5.591  0.0155  0.7918 -0.1838
  230ccc     N1 4291   5.625   8.939   5.388 -0.3399  0.1695  0.0450
  230ccc     H5 4292   5.578   9.029   5.391  0.9319  0.8489  3.3296
  230ccc     H6 4293   5.716   8.975   5.418  0.2348  0.2426 -1.6756
  230ccc     N2 4294   5.808   8.796   5.580 -0.4271 -0.3527 -0.3860
  230ccc     H7 4295   5.851   8.861   5.646  0.6164 -0.7390 -0.6603
  231ccc     C1 4296   6.720   8.491   5.452  0.1676 -0.1033 -0.1628
  231ccc     H1 4297   6.755   8.503   5.556  2.9880 -0.8379 -0.9246
  231ccc     H2 4298   6.670   8.394   5.454 -0.8174  0.3969  0.2160
  231ccc     C2 4299   6.842   8.500   5.357 -0.1911 -0.9707 -0.2850
  231ccc     H3 4300   6.910   8.416   5.377  0.0064 -0.8745 -0.5646
  231ccc     H4 4301   6.806   8.512   5.254 -2.1603  0.1049  0.4641
  231ccc     N1 4302   6.921   8.624   5.371 -0.2655  0.5201  0.5580
  231ccc     H5 4303   6.969   8.613   5.460  0.2495 -0.9402  0.1331
  231ccc     H6 4304   6.854   8.699   5.387 -2.5488 -0.7628 -2.1168
  231ccc     N2 4305   6.618   8.599   5.428 -0.0157 -0.5591  0.4126
  231ccc     H7 4306   6.619   8.660   5.347 -1.5613  0.2867  1.0031
  232ccc     C1 4307   6.972   8.824   4.802  0.1786  0.5812  0.0156
  232ccc     H1 4308   6.922   8.765   4.724  0.3318  0.7811 -0.2354
  232ccc     H2 4309   7.061   8.873   4.762  0.2373 -1.8474 -3.1725
  232ccc     C2 4310   7.027   8.726   4.901 -0.4401  0.3419 -0.7597
  232ccc     H3 4311   6.959   8.642   4.914 -1.7464  1.2446 -1.5379
  232ccc     H4 4312   7.126   8.689   4.869  0.4123  1.5779  0.3269
  232ccc     N1 4313   7.054   8.796   5.027  0.0969  0.6912  0.1817
  232ccc     H5 4314   7.121   8.859   4.985 -0.1851 -0.1184 -1.6053
  232ccc     H6 4315   6.960   8.836   5.030 -0.7282 -1.1002 -0.3344
  232ccc     N2 4316   6.876   8.924   4.857  0.7847 -0.4326 -0.1251
  232ccc     H7 4317   6.810   8.888   4.925 -0.1808 -1.0945 -1.3783
  233ccc     C1 4318   6.324   9.020   4.173  0.7937  0.5843 -0.3279
  233ccc     H1 4319   6.409   8.990   4.111  1.4485 -0.6371  1.0866
  233ccc     H2 4320   6.263   8.929   4.182 -0.1126  1.2828  0.9662
  233ccc     C2 4321   6.236   9.129   4.101 -0.0606  0.9339  0.0630
  233ccc     H3 4322   6.319   9.196   4.073 -0.0632  0.6641 -0.6059
  233ccc     H4 4323   6.178   9.091   4.017  1.5731 -0.8874 -0.3148
  233ccc     N1 4324   6.144   9.187   4.193  0.5397  0.1472 -0.5648
  233ccc     H5 4325   6.195   9.244   4.261  0.2896 -0.1114 -0.1569
  233ccc     H6 4326   6.100   9.256   4.132 -1.8870 -0.0801  0.7796
  233ccc     N2 4327   6.373   9.057   4.305 -1.3234  0.4844  0.0758
  233ccc     H7 4328   6.460   9.109   4.300  0.7985 -2.7090  0.4027
  234ccc     C1 4329   6.573   9.459   4.692  0.5275 -0.2514  0.2427
  234ccc     H1 4330   6.632   9.398   4.762  1.0475  0.1767  0.1833
  234ccc     H2 4331   6.586   9.406   4.597  0.9951  0.7315 -0.2519
  234ccc     C2 4332   6.650   9.592   4.696 -0.2896 -0.6148 -0.6178
  234ccc     H3 4333   6.632   9.642   4.792 -0.4001 -0.9885 -0.4419
  234ccc     H4 4334   6.758   9.574   4.703 -0.0324  1.4055  2.8161
  234ccc     N1 4335   6.618   9.680   4.585  0.1447 -0.4463 -0.3936
  234ccc     H5 4336   6.640   9.623   4.503 -1.1805 -0.4794 -0.7374
  234ccc     H6 4337   6.517   9.669   4.577  0.3644 -1.6857 -1.9991
  234ccc     N2 4338   6.441   9.480   4.731 -0.0390  0.8727  0.9345
  234ccc     H7 4339   6.405   9.447   4.820  0.7453 -0.2293  0.8604
  235ccc     C1 4340   5.881   9.182   5.254 -0.2272  0.0759 -0.8851
  235ccc     H1 4341   5.799   9.113   5.272 -0.7633  1.1913  1.3093
  235ccc     H2 4342   5.968   9.118   5.231  0.6226 -0.7903  3.7815
  235ccc     C2 4343   5.915   9.250   5.388  0.1401  0.0748  0.6881
  235ccc     H3 4344   5.910   9.166   5.459  1.1372 -1.8740 -1.4063
  235ccc     H4 4345   6.012   9.302   5.385  0.8968 -1.3156 -0.5135
  235ccc     N1 4346   5.799   9.336   5.427 -0.3345 -0.2393  0.4217
  235ccc     H5 4347   5.841   9.397   5.497  0.1746  0.0912 -0.1637
  235ccc     H6 4348   5.800   9.409   5.356  0.6619 -0.7950 -0.1643
  235ccc     N2 4349   5.848   9.276   5.141  0.0529 -0.4233  0.0246
  235ccc     H7 4350   5.837   9.377   5.149 -0.4557 -0.5380  0.9728
  236ccc     C1 4351   6.339   9.906   4.611 -0.7556  0.0390  0.1507
  236ccc     H1 4352   6.390   9.811   4.631 -0.4767  0.1007 -0.2426
  236ccc     H2 4353   6.271   9.892   4.525 -0.4177 -0.6543 -0.0136
  236ccc     C2 4354   6.439  10.019   4.582  0.5394  0.2096  0.8065
  236ccc     H3 4355   6.466   9.999   4.477 -0.9081 -0.2009  0.4777
  236ccc     H4 4356   6.381  10.111   4.592 -1.0597 -0.4935 -1.1795
  236ccc     N1 4357   6.555  10.007   4.667 -0.3378 -0.0927 -0.8906
  236ccc     H5 4358   6.613  10.091   4.660  1.8110 -1.6293 -2.9952
  236ccc     H6 4359   6.514  10.027   4.758  1.5841 -1.8030  0.4531
  236ccc     N2 4360   6.260   9.930   4.732 -0.4757  0.1654 -0.2354
  236ccc     H7 4361   6.194  10.007   4.733 -0.8152 -0.1193  1.4209
  237ccc     C1 4362   5.576   9.555   5.257  0.2095 -0.0924 -0.2238
  237ccc     H1 4363   5.582   9.474   5.183  2.4971  0.1938 -0.4141
  237ccc     H2 4364   5.611   9.514   5.353 -1.1730  0.3412  0.4948
  237ccc     C2 4365   5.430   9.593   5.278  0.2043 -0.5368  0.0104
  237ccc     H3 4366   5.371   9.508   5.316  0.0930 -1.2338 -1.6267
  237ccc     H4 4367   5.427   9.676   5.349 -0.6883 -0.0270 -0.5992
  237ccc     N1 4368   5.366   9.638   5.151 -0.2576  0.1055 -1.1172
  237ccc     H5 4369   5.439   9.699   5.114 -1.0946  1.4892 -0.5825
  237ccc     H6 4370   5.380   9.563   5.084 -1.0229 -0.9236 -0.1711
  237ccc     N2 4371   5.664   9.666   5.220  0.2311  0.5836  0.5034
  237ccc     H7 4372   5.625   9.749   5.177  0.8122 -0.9528 -3.4018
  238ccc     C1 4373   3.730   7.556   6.169 -0.4229 -0.2784 -0.4772
  238ccc     H1 4374   3.749   7.565   6.061  0.0763 -1.1916 -0.4686
  238ccc     H2 4375   3.664   7.470   6.188  0.1064  0.0700  3.9964
  238ccc     C2 4376   3.657   7.685   6.212  0.5336 -0.6538 -0.7671
  238ccc     H3 4377   3.720   7.775   6.210 -1.5560  0.9369  1.0725
  238ccc     H4 4378   3.573   7.707   6.146  0.4986 -0.7753 -0.7643
  238ccc     N1 4379   3.598   7.664   6.344 -0.4932 -0.1616  0.4437
  238ccc     H5 4380   3.555   7.572   6.348 -0.9343 -0.0417 -0.9320
  238ccc     H6 4381   3.677   7.647   6.405  0.5291 -0.8183 -1.0345
  238ccc     N2 4382   3.851   7.519   6.250 -0.3113  0.0499  0.2725
  238ccc     H7 4383   3.851   7.530   6.351 -2.5756  2.2595  0.1307
  239ccc     C1 4384   4.618   6.881   6.333 -0.9055  0.3428 -0.5853
  239ccc     H1 4385   4.643   6.859   6.229  1.4464  1.7568 -0.3940
  239ccc     H2 4386   4.702   6.932   6.380  0.0093 -1.0747 -0.6049
  239ccc     C2 4387   4.601   6.750   6.414 -0.0803 -0.6801  0.5460
  239ccc     H3 4388   4.693   6.692   6.401  1.3738  1.4383  0.7912
  239ccc     H4 4389   4.588   6.761   6.522  0.0522 -1.2434  0.6222
  239ccc     N1 4390   4.493   6.678   6.347  0.1180 -0.5025  0.3550
  239ccc     H5 4391   4.440   6.619   6.411 -1.3884  0.7899  0.3438
  239ccc     H6 4392   4.420   6.749   6.351  0.2061 -0.4726  1.9438
  239ccc     N2 4393   4.504   6.973   6.350 -0.7409 -0.2146  0.1607
  239ccc     H7 4394   4.451   6.987   6.435 -0.6826 -1.2792  0.3916
  240ccc     C1 4395   5.399   8.870   6.408 -0.2927 -0.2544 -0.0355
  240ccc     H1 4396   5.349   8.890   6.313  1.4593 -0.8397 -1.1366
  240ccc     H2 4397   5.415   8.961   6.468  0.2884 -0.9128  0.8463
  240ccc     C2 4398   5.539   8.802   6.362  0.5064 -0.2999 -0.3754
  240ccc     H3 4399   5.603   8.873   6.309 -1.7476  2.0349 -0.1570
  240ccc     H4 4400   5.580   8.781   6.462 -1.2436 -0.2197  0.4004
  240ccc     N1 4401   5.524   8.684   6.288 -0.9290 -0.1301  0.3178
  240ccc     H5 4402   5.620   8.650   6.283 -0.9923 -0.3502  0.5442
  240ccc     H6 4403   5.502   8.615   6.360 -0.2107 -0.3437  0.3376
  240ccc     N2 4404   5.321   8.773   6.488  0.0186 -0.1986 -0.1254
  240ccc     H7 4405   5.346   8.675   6.493 -3.0314 -1.3439 -3.0956
  241ccc     C1 4406   5.479   8.156   7.205 -0.1689  0.2439  0.0053
  241ccc     H1 4407   5.440   8.205   7.295  1.6644 -0.7641  1.4173
  241ccc     H2 4408   5.455   8.050   7.212  0.5031  0.1197  0.5559
  241ccc     C2 4409   5.631   8.168   7.220  0.7428 -0.4125  0.6136
  241ccc     H3 4410   5.672   8.268   7.197  0.8212 -0.4227  0.7054
  241ccc     H4 4411   5.663   8.148   7.323 -1.2135  2.5441  1.9353
  241ccc     N1 4412   5.691   8.084   7.116  0.2684  0.1465  0.0558
  241ccc     H5 4413   5.659   8.127   7.030 -0.4398 -0.5436 -0.0414
  241ccc     H6 4414   5.790   8.108   7.121  0.2558  0.0058  1.1268
  241ccc     N2 4415   5.438   8.228   7.079  0.4572 -0.0878 -0.0068
  241ccc     H7 4416   5.409   8.169   7.002  1.6356 -0.5434 -0.1340
  242ccc     C1 4417   5.193   9.711   8.334 -0.0568  0.2345  0.0817
  242ccc     H1 4418   5.168   9.627   8.400  2.3985  0.5645  1.5396
  242ccc     H2 4419   5.300   9.731   8.347 -0.2424  1.2421  0.1416
  242ccc     C2 4420   5.116   9.836   8.389  0.7190  0.0294 -0.3663
  242ccc     H3 4421   5.016   9.812   8.428 -0.2299  1.3774 -1.8685
  242ccc     H4 4422   5.170   9.881   8.473  1.2808 -1.7694  0.3013
  242ccc     N1 4423   5.103   9.938   8.288 -0.0500 -0.7076  0.0245
  242ccc     H5 4424   5.097  10.020   8.348  1.9093  0.0164 -0.6947
  242ccc     H6 4425   5.198   9.964   8.263 -0.1357  0.1240  0.5454
  242ccc     N2 4426   5.154   9.662   8.197 -0.2839 -0.0796  0.3219
  242ccc     H7 4427   5.204   9.694   8.115 -0.8379 -2.7291 -1.1635
  243ccc     C1 4428   4.887   9.668   7.340 -0.4093  0.2021 -0.3586
  243ccc     H1 4429   4.805   9.732   7.374 -0.5516  0.3703 -1.0091
  243ccc     H2 4430   4.971   9.734   7.319  0.9478 -2.0348 -2.4961
  243ccc     C2 4431   4.851   9.608   7.197 -0.9057  0.3409 -0.1088
  243ccc     H3 4432   4.765   9.543   7.210 -0.6878  0.3568  1.6339
  243ccc     H4 4433   4.834   9.692   7.128  2.5389 -0.1671 -1.7670
  243ccc     N1 4434   4.965   9.524   7.143 -0.0452 -0.1271  0.9655
  243ccc     H5 4435   4.948   9.434   7.187  0.0223 -0.3240  0.5872
  243ccc     H6 4436   4.933   9.498   7.050  0.7572  1.5521  0.1795
  243ccc     N2 4437   4.935   9.576   7.452 -0.0479  0.4400  0.6031
  243ccc     H7 4438   4.884   9.490   7.469 -0.2105  0.6590  1.2471
  244ccc     C1 4439   4.248   8.218   8.542 -0.2511 -0.0501  0.4314
  244ccc     H1 4440   4.222   8.320   8.572 -3.5716 -0.6330 -0.0682
  244ccc     H2 4441   4.174   8.193   8.465  0.1903 -2.2663  0.6543
  244ccc     C2 4442   4.218   8.117   8.654  0.9364 -0.7268  0.3037
  244ccc     H3 4443   4.296   8.119   8.730  1.0340  0.5259  0.1944
  244ccc     H4 4444   4.118   8.137   8.695  1.0383  0.5545 -0.0076
  244ccc     N1 4445   4.207   7.975   8.614 -0.1680 -0.5863  0.2458
  244ccc     H5 4446   4.162   7.932   8.695  1.2967 -0.2055  1.3005
  244ccc     H6 4447   4.131   7.968   8.547 -0.5413 -2.7494  0.8456
  244ccc     N2 4448   4.374   8.213   8.481 -0.1219  0.2416  0.2402
  244ccc     H7 4449   4.455   8.191   8.538 -1.2321  1.6679  2.4987
  245ccc     C1 4450   5.313   8.211   8.185  0.8068 -0.2364 -0.4288
  245ccc     H1 4451   5.326   8.291   8.258  2.6263 -1.3832  0.5863
  245ccc     H2 4452   5.352   8.121   8.235 -0.2745 -0.7093 -0.4115
  245ccc     C2 4453   5.393   8.247   8.055 -0.9095 -0.1114 -0.2793
  245ccc     H3 4454   5.498   8.228   8.079 -1.0044  0.2389  0.4403
  245ccc     H4 4455   5.361   8.177   7.976 -3.2671  0.4856  0.0635
  245ccc     N1 4456   5.371   8.385   8.016  0.3416  0.6548  0.1901
  245ccc     H5 4457   5.272   8.402   7.999  0.1623 -0.0179  0.5448
  245ccc     H6 4458   5.371   8.439   8.102  2.0335  1.2109 -0.1222
  245ccc     N2 4459   5.168   8.190   8.157 -0.3875 -0.0747  0.5462
  245ccc     H7 4460   5.128   8.099   8.175  0.4457 -0.7149 -0.7104
  246ccc     C1 4461   4.379  10.146   4.848  0.2936  0.1627 -0.0598
  246ccc     H1 4462   4.441  10.093   4.921 -0.8189  1.5639  1.9780
  246ccc     H2 4463   4.377  10.084   4.757 -0.8770  1.0816 -0.6780
  246ccc     C2 4464   4.453  10.275   4.809 -0.1611 -0.1593 -0.0270
  246ccc     H3 4465   4.554  10.268   4.768  0.0276  0.0938  0.3836
  246ccc     H4 4466   4.401  10.323   4.725 -0.2501 -1.1566 -0.5512
  246ccc     N1 4467   4.467  10.363   4.925 -0.0717  0.7492 -0.0412
  246ccc     H5 4468   4.508  10.449   4.888  0.3769  1.0300  1.0393
  246ccc     H6 4469   4.371  10.395   4.943  0.0803  0.6852  0.9789
  246ccc     N2 4470   4.239  10.169   4.895  0.1087  0.5801 -0.0467
  246ccc     H7 4471   4.226  10.241   4.965 -0.3502  0.9915 -0.5503
  247ccc     C1 4472   3.391  10.485   4.922  0.0170 -0.0467 -0.5663
  247ccc     H1 4473   3.433  10.583   4.951  0.4195 -0.3901  0.0260
  247ccc     H2 4474   3.390  10.462   4.815 -0.0662 -1.1591 -0.3393
  247ccc     C2 4475   3.242  10.475   4.972  0.4329  0.8905  0.0498
  247ccc     H3 4476   3.188  10.557   4.923 -1.9544 -1.5700 -1.7553
  247ccc     H4 4477   3.198  10.378   4.945  3.0503 -0.4477  0.2691
  247ccc     N1 4478   3.228  10.498   5.116  0.1809 -0.2583 -0.3209
  247ccc     H5 4479   3.285  10.422   5.153 -0.1066 -0.2021  0.2658
  247ccc     H6 4480   3.285  10.581   5.128  0.2968  0.1506 -3.1124
  247ccc     N2 4481   3.483  10.390   4.980 -0.0850 -0.0431 -0.1729
  247ccc     H7 4482   3.453  10.300   5.016 -0.8508  0.7496  1.2781
  248ccc     C1 4483   4.490   9.857   5.401 -0.0145  0.9125 -0.3237
  248ccc     H1 4484   4.579   9.906   5.442  2.2489 -2.8306 -0.2732
  248ccc     H2 4485   4.460   9.800   5.489  3.8189 -1.7412 -0.5049
  248ccc     C2 4486   4.534   9.754   5.299 -0.6014 -0.4225  0.3719
  248ccc     H3 4487   4.626   9.709   5.338 -0.8130 -1.0309  0.1807
  248ccc     H4 4488   4.462   9.672   5.285 -1.1036  0.1055 -0.1716
  248ccc     N1 4489   4.547   9.818   5.165 -0.2694 -0.2835  0.2545
  248ccc     H5 4490   4.461   9.871   5.147 -0.8982 -1.2575  0.2964
  248ccc     H6 4491   4.617   9.889   5.186  1.5860 -1.8675 -0.3129
  248ccc     N2 4492   4.384   9.957   5.368 -0.0251 -0.0618 -0.1816
  248ccc     H7 4493   4.343   9.955   5.276 -0.2476 -1.8026 -0.0808
  249ccc     C1 4494   3.981  10.559   4.823  0.1349  0.3624 -0.3433
  249ccc     H1 4495   3.992  10.456   4.784  0.1495 -1.0833  3.1208
  249ccc     H2 4496   3.891  10.609   4.784 -0.6392 -0.9951 -0.3755
  249ccc     C2 4497   4.096  10.644   4.756 -0.3880  0.0781 -0.3505
  249ccc     H3 4498   4.194  10.594   4.767 -0.3747 -0.0196 -0.9054
  249ccc     H4 4499   4.081  10.661   4.649  0.8806  2.6943 -0.1937
  249ccc     N1 4500   4.108  10.785   4.810  0.1796  0.0343  0.4630
  249ccc     H5 4501   4.015  10.828   4.810  0.7592  1.3799 -0.5126
  249ccc     H6 4502   4.113  10.777   4.911  1.9327 -0.7642  0.3431
  249ccc     N2 4503   3.996  10.552   4.972  0.4193  0.8798  0.8308
  249ccc     H7 4504   3.931  10.595   5.037 -0.4003 -0.3387  0.8361
  250ccc     C1 4505   3.387  10.112   6.122  0.2757  0.2938 -0.1153
  250ccc     H1 4506   3.466  10.157   6.183  1.3555  0.5032 -1.6238
  250ccc     H2 4507   3.430  10.109   6.021  2.0190 -1.2254  0.6266
  250ccc     C2 4508   3.267  10.208   6.141 -0.0046  0.5368 -1.0734
  250ccc     H3 4509   3.239  10.217   6.246  0.0510 -0.1090 -0.9983
  250ccc     H4 4510   3.298  10.306   6.103 -0.0010  0.6525 -0.7706
  250ccc     N1 4511   3.147  10.166   6.067 -0.1359 -0.1645  0.0842
  250ccc     H5 4512   3.183  10.156   5.972  0.4121  2.3810 -0.0556
  250ccc     H6 4513   3.138  10.068   6.094  1.2413  0.1781  1.9893
  250ccc     N2 4514   3.364   9.970   6.161  0.7502  0.1200 -0.0531
  250ccc     H7 4515   3.274   9.925   6.149 -0.0484  1.2941  1.2217
  251ccc     C1 4516   3.277   9.197   6.380  0.2261  0.3249 -0.4780
  251ccc     H1 4517   3.243   9.238   6.284 -1.8125  0.3040  0.1836
  251ccc     H2 4518   3.346   9.112   6.366 -1.9591 -2.2033  2.5759
  251ccc     C2 4519   3.155   9.143   6.453  0.0231 -0.3453 -0.5710
  251ccc     H3 4520   3.077   9.220   6.454 -0.8121 -1.1723  0.2793
  251ccc     H4 4521   3.124   9.048   6.408 -2.6734 -0.7066  1.7819
  251ccc     N1 4522   3.188   9.113   6.589 -0.7045  0.1374  0.2857
  251ccc     H5 4523   3.102   9.067   6.620  0.1747 -1.6721  0.1857
  251ccc     H6 4524   3.242   9.027   6.577  1.0638  1.0333  1.5215
  251ccc     N2 4525   3.342   9.307   6.449 -0.0210 -0.2177 -0.6789
  251ccc     H7 4526   3.319   9.328   6.545  0.7134  1.3883 -0.8205
  252ccc     C1 4527   3.286   8.419   5.946  0.0056 -0.3091 -0.0020
  252ccc     H1 4528   3.361   8.498   5.959  0.8153 -0.9856 -0.4530
  252ccc     H2 4529   3.341   8.324   5.949 -0.6375 -0.6721  0.6735
  252ccc     C2 4530   3.224   8.430   5.807 -0.0967  0.0336  0.5460
  252ccc     H3 4531   3.184   8.531   5.791 -0.8230 -0.1980  0.8527
  252ccc     H4 4532   3.291   8.409   5.722 -1.1994 -2.0040  0.1187
  252ccc     N1 4533   3.120   8.327   5.800  0.0704  0.3108  0.2129
  252ccc     H5 4534   3.047   8.373   5.854  1.0407 -0.3958  2.2451
  252ccc     H6 4535   3.092   8.345   5.704  0.5404 -0.1122 -0.0084
  252ccc     N2 4536   3.181   8.423   6.051 -0.2776  0.4117  0.2010
  252ccc     H7 4537   3.137   8.338   6.085  3.0145 -2.0503 -1.1820
  253ccc     C1 4538   2.780   8.835   6.870 -0.6204 -0.0021  0.7528
  253ccc     H1 4539   2.819   8.937   6.881 -1.3836  0.5516 -1.1736
  253ccc     H2 4540   2.691   8.852   6.809  0.3680 -1.8992 -1.3916
  253ccc     C2 4541   2.731   8.787   7.009  0.0624  0.3011 -0.0341
  253ccc     H3 4542   2.820   8.774   7.073 -0.5265 -3.4144  0.2383
  253ccc     H4 4543   2.672   8.870   7.051 -0.8388  0.6664 -1.9189
  253ccc     N1 4544   2.656   8.659   7.000  0.1132  0.0555 -0.5919
  253ccc     H5 4545   2.719   8.595   6.954  1.1303  0.5923  0.0283
  253ccc     H6 4546   2.655   8.632   7.098 -2.8139  1.4675 -0.0988
  253ccc     N2 4547   2.871   8.751   6.792  0.3965 -0.0120  0.2049
  253ccc     H7 4548   2.846   8.652   6.789 -1.3013  0.3942 -0.0938
  254SOL     OW 4549   2.350   9.397   8.689  0.4417  0.1654  0.2302
  254SOL    HW1 4550   2.425   9.357   8.646  1.2006  0.4353  1.2502
  254SOL    HW2 4551   2.338   9.481   8.645  0.7566  0.1307  0.0804
  255SOL     OW 4552   1.833   7.522   7.102 -0.2033  0.5928  0.1672
  255SOL    HW1 4553   1.833   7.443   7.048  0.0477 -0.3988  1.5626
  255SOL    HW2 4554   1.924   7.532   7.129 -0.3126  1.1068  0.3511
  256SOL     OW 4555   6.103   5.718   5.518 -0.2792  0.0637  0.1998
  256SOL    HW1 4556   6.091   5.696   5.426  0.5945 -0.4250  0.1882
  256SOL    HW2 4557   6.015   5.733   5.551 -0.8561 -2.2559 -0.1062
  257SOL     OW 4558   9.431   0.890   8.856  0.5798  0.1500  0.0601
  257SOL    HW1 4559   9.452   0.928   8.770  0.9269  0.1389  0.1378
  257SOL    HW2 4560   9.516   0.863   8.891  0.3339 -0.6825  0.0167
  258SOL     OW 4561   9.244   8.678   2.541  0.1160 -0.0064 -0.0837
  258SOL    HW1 4562   9.287   8.638   2.465 -0.3634 -0.8842  0.0951
  258SOL    HW2 4563   9.160   8.634   2.547 -0.2727  0.7705  0.3624
  259SOL     OW 4564   6.621   9.797   8.994 -0.4620  0.4998  0.1291
  259SOL    HW1 4565   6.666   9.864   8.942 -0.2286 -0.5110 -1.0361
  259SOL    HW2 4566   6.551   9.844   9.040  1.4996  2.0456  1.6823
  260SOL     OW 4567   2.440   8.565   4.631  0.0494  0.3417 -0.3192
  260SOL    HW1 4568   2.460   8.539   4.721  0.2452  1.8132  0.0746
  260SOL    HW2 4569   2.384   8.494   4.598 -1.8750  0.8108  1.6888
  261SOL     OW 4570   8.129   8.057   4.190 -0.4646 -0.0981 -0.1263
  261SOL    HW1 4571   8.075   8.124   4.147 -0.9074  0.7204  1.6298
  261SOL    HW2 4572   8.206   8.048   4.133 -0.7429  1.3654 -0.7811
  262SOL     OW 4573   7.706   4.605   0.299 -0.8130  0.4633 -0.1272
  262SOL    HW1 4574   7.725   4.553   0.221  0.7629  2.0390 -0.8514
  262SOL    HW2 4575   7.662   4.683   0.266 -0.1121  1.1576  0.5207
  263SOL     OW 4576   0.333   8.501   2.267  0.1262 -0.1759  0.2894
  263SOL    HW1 4577   0.389   8.551   2.207 -0.7971  2.7549  1.6736
  263SOL    HW2 4578   0.392   8.469   2.335  0.5603  0.2477  0.1196
  264SOL     OW 4579   2.611   3.955   2.026  0.5527 -0.1426 -0.1531
  264SOL    HW1 4580   2.646   3.984   2.111  2.0201 -0.9063 -0.4592
  264SOL    HW2 4581   2.616   4.033   1.970 -1.3203  0.6357  0.6757
  265SOL     OW 4582   5.923   5.648   3.353  0.1731 -0.0457  0.4393
  265SOL    HW1 4583   5.980   5.663   3.277 -1.1834  0.9291 -0.4220
  265SOL    HW2 4584   5.941   5.721   3.412 -0.7504  0.7189 -0.2043
  266SOL     OW 4585   7.842  10.151   0.032 -0.0778  0.4902 -0.4079
  266SOL    HW1 4586   7.875  10.091   0.099  2.5811  1.7220 -0.4815
  266SOL    HW2 4587   7.841  10.099  -0.048  1.4770  0.2869 -0.3285
  267SOL     OW 4588   8.330   4.243   4.576  0.6212  0.6819  0.3685
  267SOL    HW1 4589   8.312   4.149   4.572 -1.4441  0.8947  2.3885
  267SOL    HW2 4590   8.417   4.253   4.539  1.1302 -2.1034  0.6318
  268SOL     OW 4591   9.862   4.575   5.995 -0.4785 -0.4290  0.3946
  268SOL    HW1 4592   9.950   4.568   6.033 -1.0484 -0.0202  1.8813
  268SOL    HW2 4593   9.869   4.643   5.929  0.1318  0.2878  1.1723
  269SOL     OW 4594   8.506   3.108   5.388 -0.5229  0.1546 -0.2213
  269SOL    HW1 4595   8.416   3.085   5.368 -0.5187  1.4221 -1.9380
  269SOL    HW2 4596   8.500   3.187   5.442 -0.4464 -1.0630  1.6454
  270SOL     OW 4597   9.256   2.166   4.158  0.4854 -0.2757  0.0855
  270SOL    HW1 4598   9.269   2.207   4.244 -1.0945  0.4474  0.0172
  270SOL    HW2 4599   9.344   2.144   4.128  1.2049  1.0528  1.1267
  271SOL     OW 4600   1.806   0.981   9.205 -0.3204 -0.1636  0.4503
  271SOL    HW1 4601   1.858   1.001   9.127 -0.9561  0.2917  0.1380
  271SOL    HW2 4602   1.727   0.938   9.171 -0.0085 -1.1521  0.9469
  272SOL     OW 4603   2.251   2.462   8.892  0.5974  0.6178  0.3848
  272SOL    HW1 4604   2.177   2.498   8.844 -0.0632  1.2607  1.8089
  272SOL    HW2 4605   2.238   2.492   8.982  2.9668  1.3880  0.5520
  273SOL     OW 4606   6.193   6.474   2.709 -0.1102 -0.1653  0.1170
  273SOL    HW1 4607   6.273   6.506   2.667 -0.9932  0.2153 -1.3341
  273SOL    HW2 4608   6.201   6.504   2.800  1.1424  0.3254 -0.1320
  274SOL     OW 4609   4.562   1.544   8.870  0.3279  0.0556 -0.2999
  274SOL    HW1 4610   4.588   1.501   8.789 -1.1660 -0.1026 -0.7234
  274SOL    HW2 4611   4.471   1.516   8.884  1.1990 -1.8293  2.6801
  275SOL     OW 4612  10.045   6.336   8.288 -0.1127  0.1076  0.4848
  275SOL    HW1 4613  10.006   6.339   8.376 -2.1683 -0.4298 -0.3573
  275SOL    HW2 4614  10.133   6.302   8.302 -0.1676  0.6233  2.4016
  276SOL     OW 4615   2.119   2.648   9.377 -0.2869 -0.1412 -0.9575
  276SOL    HW1 4616   2.204   2.636   9.337  0.2723 -1.1389  0.4334
  276SOL    HW2 4617   2.112   2.742   9.393  1.5856 -0.2654  0.9922
  277SOL     OW 4618   2.088   9.452   4.199  0.1385 -0.1928  0.8915
  277SOL    HW1 4619   2.124   9.375   4.243  1.2090 -0.0765  0.2615
  277SOL    HW2 4620   2.014   9.479   4.254  0.6803 -0.7724  1.9349
  278SOL     OW 4621   5.667   8.328   2.465  0.1044  0.1986 -0.0307
  278SOL    HW1 4622   5.668   8.253   2.405  0.5375  1.6639 -1.9638
  278SOL    HW2 4623   5.602   8.305   2.531  1.1472 -2.4189  0.1982
  279SOL     OW 4624   6.125   4.149   9.560  0.0947 -0.2202 -0.4822
  279SOL    HW1 4625   6.046   4.117   9.603  0.9958 -1.8754  0.0517
  279SOL    HW2 4626   6.148   4.229   9.608  0.0033 -0.9765  0.8815
  280SOL     OW 4627   1.247   0.377   8.489  0.8773 -0.1330  0.7222
  280SOL    HW1 4628   1.226   0.424   8.570  1.6985  1.5615  0.0147
  280SOL    HW2 4629   1.317   0.429   8.449 -1.1782  0.6275 -2.3243
  281SOL     OW 4630   2.933   6.128   4.340 -0.6821  0.2131  0.3044
  281SOL    HW1 4631   2.959   6.114   4.431 -1.0035 -0.4494  0.2985
  281SOL    HW2 4632   2.906   6.220   4.336 -1.3998  0.0382  1.0557
  282SOL     OW 4633   3.841   4.606   4.437 -0.1708 -0.2716  0.0398
  282SOL    HW1 4634   3.932   4.630   4.417 -0.1996  0.4120  0.6765
  282SOL    HW2 4635   3.833   4.620   4.531  0.6257 -5.5896  1.1801
  283SOL     OW 4636   5.967   1.863   6.169 -0.3042  0.3058 -0.4539
  283SOL    HW1 4637   5.884   1.860   6.217 -0.6107 -0.9051 -1.0414
  283SOL    HW2 4638   6.005   1.777   6.181 -0.1069  0.1738 -1.8948
  284SOL     OW 4639   8.769   0.773   1.098  0.1033 -0.5258  0.2739
  284SOL    HW1 4640   8.701   0.834   1.068 -1.3478 -1.9127  0.5516
  284SOL    HW2 4641   8.722   0.691   1.111  1.8760 -1.5548  0.4769
  285SOL     OW 4642   4.605   2.746   3.575  0.3028 -0.1274  1.0608
  285SOL    HW1 4643   4.636   2.810   3.511 -0.9112 -0.2702  0.2933
  285SOL    HW2 4644   4.536   2.791   3.623  0.9549 -0.1452  2.0415
  286SOL     OW 4645   1.984   0.578   0.235  0.7821 -0.0563  0.2765
  286SOL    HW1 4646   1.972   0.484   0.221  1.2816 -0.1319  0.3534
  286SOL    HW2 4647   1.948   0.618   0.156  0.8604 -0.3278  0.0999
  287SOL     OW 4648   5.932   5.997   8.637  0.6894 -1.0835 -0.3929
  287SOL    HW1 4649   5.903   5.966   8.723  0.1618 -0.6901 -0.4286
  287SOL    HW2 4650   5.964   5.918   8.593  1.7221 -1.1607  0.4558
  288SOL     OW 4651   7.195   7.038   5.580  0.3010  0.1550 -0.1905
  288SOL    HW1 4652   7.187   6.972   5.649  2.1657 -2.5656 -2.3142
  288SOL    HW2 4653   7.109   7.039   5.537  0.1732 -0.7404  0.0306
  289SOL     OW 4654   1.845   0.080   0.043  0.0388  0.0654  0.6754
  289SOL    HW1 4655   1.928   0.033   0.034  0.4590  0.7421  0.9715
  289SOL    HW2 4656   1.806   0.075  -0.045  0.5721  0.0773  0.4323
  290SOL     OW 4657   5.732   5.519   0.299  0.3360  0.0882  0.1702
  290SOL    HW1 4658   5.764   5.524   0.209  0.4499 -1.7285  0.0787
  290SOL    HW2 4659   5.659   5.457   0.295  0.7943 -0.5693  1.4398
  291SOL     OW 4660   4.382   1.919   6.480 -0.4123 -0.3729  0.0918
  291SOL    HW1 4661   4.383   1.827   6.508  1.5274 -0.0026  1.4144
  291SOL    HW2 4662   4.371   1.969   6.561 -2.6688  0.5902 -0.7372
  292SOL     OW 4663   2.143   1.770   3.275 -0.2729  0.1134 -0.1550
  292SOL    HW1 4664   2.107   1.779   3.187 -0.6105 -0.3148 -0.0626
  292SOL    HW2 4665   2.173   1.679   3.280 -0.3677  0.0990  0.2112
  293SOL     OW 4666   1.837   1.837   6.901  0.3033 -0.2849 -0.0819
  293SOL    HW1 4667   1.859   1.749   6.873 -0.4404 -0.4219 -0.2487
  293SOL    HW2 4668   1.742   1.840   6.901  0.3112  0.3314  0.5065
  294SOL     OW 4669   1.292   6.968   9.672  0.1780  0.0906  0.5835
  294SOL    HW1 4670   1.332   6.943   9.755 -0.1181 -1.8404  0.1807
  294SOL    HW2 4671   1.227   6.900   9.655 -0.5800  1.0881 -0.6686
  295SOL     OW 4672   7.283   4.836   8.580  0.0395  0.4833  0.1617
  295SOL    HW1 4673   7.375   4.856   8.593 -0.1642  1.3615  0.3382
  295SOL    HW2 4674   7.282   4.768   8.513  0.8954 -0.9287  1.5070
  296SOL     OW 4675   3.341   0.924   8.735  0.5816  0.1500  0.4756
  296SOL    HW1 4676   3.315   0.853   8.794 -1.0442  1.8841  2.0113
  296SOL    HW2 4677   3.261   0.977   8.726  1.9338  2.2141  0.0723
  297SOL     OW 4678   9.834   9.683   5.981 -0.3662  0.0750 -0.3740
  297SOL    HW1 4679   9.750   9.727   5.985  0.2497  1.2275  0.7733
  297SOL    HW2 4680   9.872   9.696   6.068  0.4758 -1.4938 -0.4632
  298SOL     OW 4681   5.160   6.319   8.845  0.3436  0.3155  0.4624
  298SOL    HW1 4682   5.071   6.310   8.812  0.3724 -0.6986  0.6346
  298SOL    HW2 4683   5.160   6.273   8.928  0.9792  0.4874  0.5634
  299SOL     OW 4684   7.114   4.508   2.547  0.2370 -0.3496 -0.4202
  299SOL    HW1 4685   7.091   4.601   2.537  0.0548 -0.3711 -0.2059
  299SOL    HW2 4686   7.196   4.509   2.596  0.2277 -0.3015 -0.4050
  300SOL     OW 4687   0.627   7.379   4.664 -0.0369 -0.4665 -0.0937
  300SOL    HW1 4688   0.689   7.426   4.720  0.2242  0.4140 -1.0871
  300SOL    HW2 4689   0.682   7.332   4.602 -0.3150 -1.6972  0.5529
  301SOL     OW 4690   7.446   7.138   2.206 -0.0234  0.0704  0.1139
  301SOL    HW1 4691   7.391   7.165   2.280  1.3795 -1.7131  1.9314
  301SOL    HW2 4692   7.427   7.045   2.195  1.1879 -0.1213 -0.4945
  302SOL     OW 4693   8.614   2.911   1.069 -0.0917 -0.0761  0.1498
  302SOL    HW1 4694   8.641   2.828   1.108 -0.8246  0.3609  1.6619
  302SOL    HW2 4695   8.688   2.970   1.084 -0.1280 -0.0728  0.3078
  303SOL     OW 4696   8.556   6.493   5.388 -0.3260 -0.3574  0.1292
  303SOL    HW1 4697   8.490   6.471   5.321 -2.1590 -0.1941  1.7715
  303SOL    HW2 4698   8.505   6.499   5.469  1.7786 -0.3072  1.5002
  304SOL     OW 4699  10.245   9.184   4.865  0.3812 -0.8430 -0.5959
  304SOL    HW1 4700  10.274   9.093   4.869 -1.7861 -1.6315 -1.1161
  304SOL    HW2 4701  10.251   9.206   4.772 -1.8164 -1.5145 -0.9725
  305SOL     OW 4702   2.073   1.450   0.422 -0.3270  0.5858 -0.1440
  305SOL    HW1 4703   1.990   1.467   0.467  0.3697  1.5850  0.8196
  305SOL    HW2 4704   2.134   1.515   0.458  1.3868 -1.2995  0.5936
  306SOL     OW 4705   9.732   5.367   1.118  0.2670  0.6600  0.1451
  306SOL    HW1 4706   9.661   5.342   1.176  1.2215  0.7868  1.4252
  306SOL    HW2 4707   9.690   5.411   1.044 -0.9602  0.7828  0.8990
  307SOL     OW 4708   5.015  10.301   0.785 -0.2076 -0.4543  0.0828
  307SOL    HW1 4709   4.946  10.364   0.807  0.9764  0.4168  1.5010
  307SOL    HW2 4710   5.081  10.353   0.739  0.0006 -1.0515 -0.3043
  308SOL     OW 4711   5.635   3.871   8.946  0.4302  0.4914 -0.3598
  308SOL    HW1 4712   5.579   3.799   8.917  1.3706 -0.9323  1.1713
  308SOL    HW2 4713   5.578   3.926   9.000 -0.1211  0.5159 -0.9538
  309SOL     OW 4714   9.968   3.758   3.230 -0.1418 -0.3047  0.1745
  309SOL    HW1 4715   9.992   3.816   3.302  0.4237 -1.5062  0.9780
  309SOL    HW2 4716   9.899   3.702   3.264 -0.3295 -0.4544 -0.4274
  310SOL     OW 4717   5.961   9.489   3.827 -0.1156  0.3933 -0.3662
  310SOL    HW1 4718   5.967   9.514   3.919  0.3354  1.9977 -0.7987
  310SOL    HW2 4719   5.942   9.571   3.781 -1.5715 -0.5823 -1.5875
  311SOL     OW 4720   4.592   5.336   3.057  0.1767 -0.0823  0.1312
  311SOL    HW1 4721   4.532   5.327   2.983  0.4841  1.5807 -0.3805
  311SOL    HW2 4722   4.616   5.429   3.056  3.2962 -0.8095 -0.1022
  312SOL     OW 4723   3.848   3.920   0.056  0.4528  1.1874  0.0525
  312SOL    HW1 4724   3.901   3.997   0.078 -0.5967  1.4081  2.0364
  312SOL    HW2 4725   3.758   3.948   0.072  0.0565 -0.4915  0.9433
  313SOL     OW 4726   5.549   2.109   0.976  0.2141 -0.5676  0.4323
  313SOL    HW1 4727   5.602   2.158   0.914  0.0424  1.4164  1.7438
  313SOL    HW2 4728   5.602   2.033   1.000  1.9886  0.7545  0.8455
  314SOL     OW 4729   5.071   5.698   1.976  0.1649 -0.4025  0.1024
  314SOL    HW1 4730   5.007   5.651   1.922  1.4814 -1.3443 -0.6930
  314SOL    HW2 4731   5.056   5.790   1.956 -1.4761 -0.5430  0.5660
  315SOL     OW 4732   0.846   4.185   3.197 -0.0906 -0.0438  0.5247
  315SOL    HW1 4733   0.925   4.206   3.249  0.0690 -0.5464  0.4917
  315SOL    HW2 4734   0.878   4.126   3.129 -0.0739  1.5118 -0.8831
  316SOL     OW 4735   7.625  10.174   9.304  0.4078 -0.3924 -0.0836
  316SOL    HW1 4736   7.575  10.104   9.263  2.8781 -2.1695 -0.3012
  316SOL    HW2 4737   7.714  10.164   9.268  0.9267  2.7074  0.0961
  317SOL     OW 4738   7.082   8.015   8.170  0.5519  0.4731  0.0081
  317SOL    HW1 4739   7.032   8.066   8.107  3.5539  1.3223 -1.9465
  317SOL    HW2 4740   7.114   7.940   8.120  2.8195  1.0343  0.4778
  318SOL     OW 4741   0.315   3.052   3.660  0.1224  0.3743 -0.5140
  318SOL    HW1 4742   0.275   2.968   3.637 -2.0795  1.3107 -0.4292
  318SOL    HW2 4743   0.369   3.075   3.584  1.5529 -1.5186 -0.1385
  319SOL     OW 4744   7.953   7.045   6.284 -0.4272 -0.1316 -0.3633
  319SOL    HW1 4745   7.939   7.137   6.306  0.5856 -0.0645  0.0558
  319SOL    HW2 4746   8.047   7.031   6.296 -1.0383 -2.2360  3.5240
  320SOL     OW 4747   1.301   6.446  10.105  0.6456 -0.1916  0.6361
  320SOL    HW1 4748   1.260   6.371  10.148 -1.3243 -0.1737 -1.0801
  320SOL    HW2 4749   1.365   6.407  10.045 -0.7996 -0.6081 -0.7024
  321SOL     OW 4750   9.760   4.438   3.978 -0.4384 -0.2039 -0.0349
  321SOL    HW1 4751   9.747   4.484   4.060 -0.7606  1.4104 -0.9491
  321SOL    HW2 4752   9.798   4.354   4.003 -2.4768 -0.6408  1.9205
  322SOL     OW 4753   1.082   5.373   5.794  0.0344 -0.0296 -0.1602
  322SOL    HW1 4754   1.097   5.436   5.725 -1.7607  1.3651  0.6660
  322SOL    HW2 4755   0.988   5.360   5.796 -0.1034  0.7139  2.5860
  323SOL     OW 4756   4.284   2.053   4.526  0.1143  0.0140  0.3826
  323SOL    HW1 4757   4.252   2.108   4.454  2.5980 -2.8549 -3.3680
  323SOL    HW2 4758   4.377   2.075   4.534  0.7444 -2.2005  0.0061
  324SOL     OW 4759  10.097   6.430   4.938 -0.1551  0.0643 -0.1820
  324SOL    HW1 4760  10.052   6.430   4.853  1.2871 -2.3852 -1.0469
  324SOL    HW2 4761  10.028   6.410   5.002 -1.3078  2.1903 -0.6663
  325SOL     OW 4762   7.471   2.223   7.863 -0.0556  0.6366  0.0334
  325SOL    HW1 4763   7.425   2.307   7.857  0.5313  1.1029  1.4387
  325SOL    HW2 4764   7.463   2.184   7.776 -2.0626  1.2239 -0.0970
  326SOL     OW 4765   0.437   9.320   0.553 -0.4017  0.6667  0.5952
  326SOL    HW1 4766   0.434   9.275   0.468  1.7366  0.5583  0.5346
  326SOL    HW2 4767   0.402   9.256   0.615 -0.6460  0.2227  0.0156
  327SOL     OW 4768   3.889   8.219   1.874  0.3333  0.0710 -0.5191
  327SOL    HW1 4769   3.904   8.297   1.927  1.5870 -0.5385  0.0646
  327SOL    HW2 4770   3.938   8.150   1.918 -0.4527 -0.9793 -1.2294
  328SOL     OW 4771   6.759   7.962   0.976 -0.5669 -0.9423 -0.1972
  328SOL    HW1 4772   6.719   7.876   0.969  1.5192 -2.3644  3.0215
  328SOL    HW2 4773   6.744   7.989   1.066  0.5026  1.1966 -0.5791
  329SOL     OW 4774   2.861   0.455   2.503  0.3737 -0.6551 -0.4710
  329SOL    HW1 4775   2.927   0.488   2.442 -0.0610  2.6182  0.6259
  329SOL    HW2 4776   2.910   0.428   2.580  0.5416  2.2682  0.5557
  330SOL     OW 4777   6.447   3.126   1.774 -0.0457  0.0181  0.2560
  330SOL    HW1 4778   6.366   3.111   1.823  0.5720  0.6357  1.5293
  330SOL    HW2 4779   6.515   3.088   1.830  0.4807 -1.1702 -1.1476
  331SOL     OW 4780   2.058   2.319   7.304 -0.2139  0.2302 -0.6564
  331SOL    HW1 4781   2.147   2.312   7.339 -0.5034 -1.1477 -0.1412
  331SOL    HW2 4782   2.002   2.288   7.375 -1.2630  2.4794 -0.4028
  332SOL     OW 4783  10.111   3.269   1.391 -0.7787  0.7843 -0.2282
  332SOL    HW1 4784  10.147   3.330   1.326 -0.0486  0.5141 -0.0908
  332SOL    HW2 4785  10.120   3.315   1.474  2.8128 -0.6759  0.3653
  333SOL     OW 4786   3.790   8.911   1.926 -0.3723  0.0034 -0.1739
  333SOL    HW1 4787   3.881   8.912   1.955  0.3709 -0.2900 -2.3191
  333SOL    HW2 4788   3.791   8.864   1.843 -2.3852  0.5467 -0.5792
  334SOL     OW 4789   3.042   2.273   1.179  0.7326 -0.4422  0.2310
  334SOL    HW1 4790   3.109   2.314   1.124  0.1679 -2.0486 -1.8039
  334SOL    HW2 4791   2.966   2.331   1.169  1.6359  1.2859  2.4045
  335SOL     OW 4792   0.853   3.254   9.418 -0.3280 -0.2176 -0.5612
  335SOL    HW1 4793   0.929   3.228   9.470 -0.0425  0.8073 -0.4346
  335SOL    HW2 4794   0.780   3.256   9.480 -0.9663 -3.1640 -1.0504
  336SOL     OW 4795   5.035   8.258   1.918 -0.4562 -0.4476  0.3502
  336SOL    HW1 4796   4.993   8.277   1.834  0.9007 -0.9818 -0.4745
  336SOL    HW2 4797   5.009   8.331   1.975  0.4081  1.1298 -1.1922
  337SOL     OW 4798   4.761   6.402   3.038  0.0162  0.0631  0.1401
  337SOL    HW1 4799   4.800   6.410   2.951  0.2231  0.0060  0.2266
  337SOL    HW2 4800   4.730   6.490   3.059 -2.8908 -0.4796 -1.3018
  338SOL     OW 4801   9.098   1.335   4.807  0.0571 -0.1428  0.3691
  338SOL    HW1 4802   9.140   1.297   4.883  1.8868  0.0802 -0.4859
  338SOL    HW2 4803   9.007   1.304   4.811  0.8618 -2.5609  1.0152
  339SOL     OW 4804   4.324   4.573   2.260 -0.3585  0.4854  0.1855
  339SOL    HW1 4805   4.328   4.591   2.354 -1.4095  0.5309  0.2391
  339SOL    HW2 4806   4.307   4.658   2.220  1.8611  0.7896 -0.2376
  340SOL     OW 4807   7.349   0.023   8.100  0.0260  0.2099  0.1613
  340SOL    HW1 4808   7.284  -0.033   8.143  0.8293 -0.2915  0.7504
  340SOL    HW2 4809   7.350  -0.006   8.009  0.0409 -0.3663  0.3443
  341SOL     OW 4810   3.219  10.337   0.451 -0.5371 -0.3186  0.2643
  341SOL    HW1 4811   3.298  10.346   0.505 -1.7973  0.8589  2.0328
  341SOL    HW2 4812   3.212  10.421   0.406 -0.0278 -0.9450 -1.0141
  342SOL     OW 4813   8.632   5.033   4.809  0.3448 -0.0511  0.3082
  342SOL    HW1 4814   8.558   4.984   4.846  1.4788 -1.8810  0.2594
  342SOL    HW2 4815   8.702   4.969   4.800  2.7434  2.0030  2.4618
  343SOL     OW 4816   6.867   2.498   6.516 -0.2897  0.3168  0.5084
  343SOL    HW1 4817   6.936   2.553   6.479  0.5272 -1.5884 -1.0161
  343SOL    HW2 4818   6.792   2.556   6.528  1.0773  2.1046  0.7039
  344SOL     OW 4819   0.400   6.157   6.378  0.0572  0.2596 -0.2534
  344SOL    HW1 4820   0.429   6.156   6.469 -1.2047  0.3484  0.1694
  344SOL    HW2 4821   0.441   6.235   6.341  0.1946  0.4893  0.3666
  345SOL     OW 4822   4.259   3.149   9.765  0.5607 -0.6147  0.7832
  345SOL    HW1 4823   4.302   3.203   9.831  0.6261  1.3980 -0.7979
  345SOL    HW2 4824   4.254   3.205   9.688 -1.2888 -2.1794 -0.3363
  346SOL     OW 4825   0.154   5.357   0.991  0.3018  0.2729 -0.8377
  346SOL    HW1 4826   0.164   5.273   0.945 -1.1412 -0.1432 -0.4555
  346SOL    HW2 4827   0.170   5.423   0.923  0.9936 -0.3058 -1.2530
  347SOL     OW 4828   6.672   4.959   5.946 -0.0329  0.9433 -0.1288
  347SOL    HW1 4829   6.641   4.899   5.878  2.0155 -0.6693  0.2618
  347SOL    HW2 4830   6.648   4.917   6.028  0.3588  1.2456  0.1464
  348SOL     OW 4831   8.972   4.802   3.082  0.4630  0.3247 -0.1225
  348SOL    HW1 4832   8.951   4.726   3.136  2.2405  0.4405  0.7778
  348SOL    HW2 4833   9.009   4.765   3.002 -0.7613  0.2018 -0.6522
  349SOL     OW 4834   5.630   6.546   1.550 -0.3552  0.5231 -0.2964
  349SOL    HW1 4835   5.679   6.616   1.593  0.6236  0.0799 -0.6590
  349SOL    HW2 4836   5.547   6.542   1.597  0.4618  0.4343  1.1932
  350SOL     OW 4837   1.900   7.734   2.689 -0.1310  0.0388 -0.0139
  350SOL    HW1 4838   1.978   7.680   2.687 -0.3442 -0.2597 -0.3653
  350SOL    HW2 4839   1.876   7.739   2.782  0.1266 -0.1179  0.0615
  351SOL     OW 4840   5.257   3.067   0.439  0.0607  0.5855  0.3782
  351SOL    HW1 4841   5.163   3.073   0.456 -0.3354 -0.4151 -1.2448
  351SOL    HW2 4842   5.265   2.998   0.373  1.6223  2.6003 -1.7023
  352SOL     OW 4843   2.618   7.917   5.607 -0.1968  0.0284  0.6227
  352SOL    HW1 4844   2.538   7.969   5.605 -0.8316 -0.9627 -1.2300
  352SOL    HW2 4845   2.640   7.902   5.516  2.1082  0.2250  1.0824
  353SOL     OW 4846   6.949   3.203   0.311 -0.0033 -0.3147  0.1170
  353SOL    HW1 4847   6.878   3.148   0.278  0.7173 -1.1662 -0.0461
  353SOL    HW2 4848   6.924   3.223   0.401 -1.3005  0.8705 -0.4664
  354SOL     OW 4849   4.187   7.445   0.580  0.3708 -0.3619 -0.2160
  354SOL    HW1 4850   4.219   7.366   0.537  0.1649 -1.7041  1.9505
  354SOL    HW2 4851   4.127   7.413   0.647 -0.5786  1.7240  0.0161
  355SOL     OW 4852   2.256   0.721   5.350  0.0062  0.2255 -1.0764
  355SOL    HW1 4853   2.295   0.759   5.271  0.2424 -1.9047 -2.0401
  355SOL    HW2 4854   2.166   0.754   5.350  0.5026  1.6648 -1.2289
  356SOL     OW 4855   3.621   8.316   9.934  0.1344  0.2288 -0.6214
  356SOL    HW1 4856   3.617   8.285   9.843 -1.0139  0.6701 -0.7322
  356SOL    HW2 4857   3.661   8.403   9.927  1.7140 -0.4482 -0.4939
  357SOL     OW 4858   8.954   0.751   0.408 -0.4073  0.2953 -0.0041
  357SOL    HW1 4859   8.941   0.708   0.493  0.7998 -0.4097 -0.1540
  357SOL    HW2 4860   9.023   0.699   0.366  1.9470  2.9732  0.2538
  358SOL     OW 4861   4.716   1.756  10.326 -0.6729  0.6909 -0.5847
  358SOL    HW1 4862   4.696   1.711  10.244 -0.0427  2.4941 -1.7756
  358SOL    HW2 4863   4.641   1.814  10.341  0.3771  2.3121 -1.3424
  359SOL     OW 4864   0.481   7.389   0.877  0.3675 -0.1826  0.0136
  359SOL    HW1 4865   0.566   7.421   0.910 -0.5818  1.2339  1.2376
  359SOL    HW2 4866   0.442   7.466   0.834 -0.9307 -0.3544  0.8322
  360SOL     OW 4867   6.528   3.171   5.495 -0.0525 -0.0705 -0.3954
  360SOL    HW1 4868   6.619   3.167   5.466  0.3788  0.0631  0.8545
  360SOL    HW2 4869   6.488   3.091   5.460  1.4613 -1.9599  1.8292
  361SOL     OW 4870   3.994   4.046   6.789  0.3961 -0.8660 -0.2412
  361SOL    HW1 4871   4.027   3.957   6.794  0.1605 -0.9755 -0.5361
  361SOL    HW2 4872   3.988   4.064   6.695 -1.8259 -1.4096 -0.2601
  362SOL     OW 4873   2.742   4.194   4.778  0.3181 -0.1492 -0.1311
  362SOL    HW1 4874   2.688   4.121   4.750  0.7985 -0.7828  0.5436
  362SOL    HW2 4875   2.746   4.185   4.874 -0.3847  1.3065  0.0652
  363SOL     OW 4876   8.708   2.136   3.367 -1.0237  0.4907  0.2805
  363SOL    HW1 4877   8.779   2.193   3.397 -0.9776  0.9991 -0.7756
  363SOL    HW2 4878   8.637   2.196   3.345 -1.5254  0.0324  0.6057
  364SOL     OW 4879  10.175   6.991   4.623 -0.1884  0.5494  0.2933
  364SOL    HW1 4880  10.225   7.034   4.553 -1.9703  1.6980 -0.3208
  364SOL    HW2 4881  10.108   6.941   4.576 -0.9187  0.7100  1.1574
  365SOL     OW 4882   9.112   1.903   0.430  0.2653 -0.3401 -0.7642
  365SOL    HW1 4883   9.050   1.940   0.368 -1.3301 -2.0266 -0.2648
  365SOL    HW2 4884   9.189   1.959   0.423 -0.1015 -0.0568 -3.7160
  366SOL     OW 4885   3.517   3.691   8.886 -0.3255  0.1994  0.4004
  366SOL    HW1 4886   3.606   3.658   8.875  0.0741  1.6363 -1.0935
  366SOL    HW2 4887   3.462   3.626   8.843 -0.1293 -1.0718  1.9572
  367SOL     OW 4888  10.233   3.956   8.379  0.1934 -0.0510  0.0107
  367SOL    HW1 4889  10.289   4.000   8.315  0.8016 -2.0026 -0.8556
  367SOL    HW2 4890  10.144   3.980   8.353  0.5032  0.6218 -0.4568
  368SOL     OW 4891   0.975   8.412   6.335 -0.1561  0.2331 -0.3136
  368SOL    HW1 4892   0.901   8.453   6.380 -0.4244  1.8985 -2.1363
  368SOL    HW2 4893   1.023   8.484   6.296  1.3410 -0.9705 -0.7903
  369SOL     OW 4894   2.306   9.613   8.539 -0.5091  0.1061 -0.2867
  369SOL    HW1 4895   2.260   9.621   8.455  0.6470  1.4929 -0.8373
  369SOL    HW2 4896   2.398   9.621   8.516 -0.0560 -1.1597  0.9643
  370SOL     OW 4897   9.369   8.523   1.753  0.5276 -0.4556 -0.1957
  370SOL    HW1 4898   9.283   8.500   1.717  0.1849  0.7259 -0.1751
  370SOL    HW2 4899   9.351   8.593   1.816  1.3530 -1.1656  0.8660
  371SOL     OW 4900   0.020   8.462   4.786  0.4545 -0.3336 -0.1395
  371SOL    HW1 4901   0.103   8.470   4.833 -0.3226  0.0841  1.2441
  371SOL    HW2 4902   0.006   8.368   4.776  1.7745 -0.4041 -1.7205
  372SOL     OW 4903   0.541   2.342   3.896  0.0262 -0.0360 -0.1898
  372SOL    HW1 4904   0.542   2.350   3.800  0.7961  0.7894 -0.1249
  372SOL    HW2 4905   0.551   2.249   3.912 -0.1324 -0.1857 -0.9149
  373SOL     OW 4906   5.334   2.470   2.208 -0.0777  0.3551 -0.4565
  373SOL    HW1 4907   5.359   2.551   2.251 -0.5928  0.2027  0.1460
  373SOL    HW2 4908   5.261   2.436   2.260  1.3143 -1.4774  0.4498
  374SOL     OW 4909   1.317   0.293   9.693  0.3427 -0.2391 -0.0036
  374SOL    HW1 4910   1.226   0.269   9.677  0.4109 -0.2944 -0.3123
  374SOL    HW2 4911   1.314   0.387   9.713  0.1772 -0.3181  0.3373
  375SOL     OW 4912   5.739   2.659   2.135 -0.5116  0.0829 -0.3156
  375SOL    HW1 4913   5.713   2.735   2.187 -2.7325 -1.4622  1.0307
  375SOL    HW2 4914   5.805   2.614   2.187 -1.3615 -0.4457  0.3435
  376SOL     OW 4915   9.753   7.266  10.082  0.0855  0.2833  0.0316
  376SOL    HW1 4916   9.805   7.202  10.034 -0.7738 -0.9936  0.7116
  376SOL    HW2 4917   9.680   7.215  10.118 -1.4919  1.9407 -0.6619
  377SOL     OW 4918   1.738   2.790   5.514  0.0009 -0.6580 -1.0258
  377SOL    HW1 4919   1.766   2.870   5.557 -0.6368 -0.3275 -1.2106
  377SOL    HW2 4920   1.803   2.775   5.445 -0.5183  0.3648 -1.7667
  378SOL     OW 4921   5.262   4.001   2.340  0.2742 -0.3468 -0.1565
  378SOL    HW1 4922   5.281   3.949   2.261 -0.0675 -1.3425  0.3938
  378SOL    HW2 4923   5.246   3.935   2.408 -3.2149  0.3774 -0.0812
  379SOL     OW 4924   6.001   5.213   8.787  0.2768 -0.5012  0.0080
  379SOL    HW1 4925   5.930   5.276   8.780 -0.7098 -1.6782 -1.3665
  379SOL    HW2 4926   6.015   5.201   8.881 -1.8778 -0.8082  0.3233
  380SOL     OW 4927   0.658   7.467   0.163  0.1192 -0.3602 -0.1175
  380SOL    HW1 4928   0.637   7.453   0.255 -0.3305 -0.9907 -0.3107
  380SOL    HW2 4929   0.719   7.541   0.163  0.3330 -0.5316  0.7057
  381SOL     OW 4930   4.507   0.992   5.273  0.4752 -0.3350 -0.4928
  381SOL    HW1 4931   4.587   0.951   5.307  0.4656  0.0501  0.0102
  381SOL    HW2 4932   4.465   0.924   5.221  0.3708 -1.0247  0.4713
  382SOL     OW 4933   4.480   3.612   1.414  0.1724  0.0852  0.3443
  382SOL    HW1 4934   4.521   3.532   1.445  0.4379  0.0237 -0.1488
  382SOL    HW2 4935   4.526   3.632   1.332  0.4780  1.0317  0.7392
  383SOL     OW 4936   5.290   0.969   6.153 -0.1806 -0.1762  0.3780
  383SOL    HW1 4937   5.290   0.890   6.099 -1.9397 -1.3081  1.8958
  383SOL    HW2 4938   5.332   0.942   6.235 -0.1843  0.6857  0.6775
  384SOL     OW 4939   9.146   3.282   2.009 -0.0754  0.1086  0.6111
  384SOL    HW1 4940   9.211   3.348   2.033 -0.2207  1.5048 -2.3500
  384SOL    HW2 4941   9.197   3.207   1.979  0.1577  0.3128  0.4932
  385SOL     OW 4942   0.909  10.033   8.113  0.5069  0.1944 -0.4268
  385SOL    HW1 4943   0.953  10.037   8.198  2.0988  1.3239 -1.2536
  385SOL    HW2 4944   0.842   9.965   8.124  1.4691 -0.5345  1.3525
  386SOL     OW 4945   7.257   3.055   3.572 -0.0088 -0.0891  0.3736
  386SOL    HW1 4946   7.234   3.032   3.662  0.1089 -1.2249  0.1255
  386SOL    HW2 4947   7.178   3.033   3.522  0.9846 -2.4686 -0.2465
  387SOL     OW 4948   2.201   4.307   2.671  0.3751 -0.2672 -1.0249
  387SOL    HW1 4949   2.261   4.361   2.722  0.7310 -0.2148 -1.4957
  387SOL    HW2 4950   2.122   4.300   2.726  0.8146 -0.3565 -0.4004
  388SOL     OW 4951   5.996   5.845   2.012 -0.2673  0.5705 -0.1705
  388SOL    HW1 4952   6.032   5.786   2.078 -1.0213 -0.5878 -0.7513
  388SOL    HW2 4953   6.021   5.933   2.041 -1.0822  0.1517  1.9852
  389SOL     OW 4954   7.845  10.118   1.636  0.3440 -0.1825  0.0424
  389SOL    HW1 4955   7.815  10.201   1.672  0.7345 -0.3329  0.7391
  389SOL    HW2 4956   7.794  10.051   1.682  0.3926 -0.3490 -0.1431
  390SOL     OW 4957   1.558   4.895   0.157  0.6670 -0.3061 -0.0059
  390SOL    HW1 4958   1.487   4.895   0.222 -0.5827 -0.4766 -1.3349
  390SOL    HW2 4959   1.529   4.833   0.090  1.5720  0.4467 -1.1207
  391SOL     OW 4960   4.275   2.357   1.766  0.4394  0.3784  0.3449
  391SOL    HW1 4961   4.357   2.320   1.733  1.0285 -0.5882  2.6707
  391SOL    HW2 4962   4.221   2.368   1.688  2.1478 -0.5844 -1.0605
  392SOL     OW 4963   5.236   0.658   6.438  0.1632  0.2611 -0.3030
  392SOL    HW1 4964   5.329   0.672   6.420  0.4390 -2.0471 -0.9491
  392SOL    HW2 4965   5.194   0.664   6.352  0.3544 -2.7208 -0.7129
  393SOL     OW 4966   6.988   3.985   0.037  0.4073  0.0273  0.0533
  393SOL    HW1 4967   6.929   3.986  -0.038 -0.4406  0.1272  0.6922
  393SOL    HW2 4968   7.075   3.993   0.000  0.1148 -1.3761 -1.0094
  394SOL     OW 4969   4.246   8.014   9.277  0.3701 -0.2489  0.0250
  394SOL    HW1 4970   4.276   7.927   9.305  1.5026  0.5206  1.2781
  394SOL    HW2 4971   4.153   8.015   9.298  0.7782 -0.4077  2.0673
  395SOL     OW 4972   0.318   4.058   3.342  0.0376 -0.5454 -0.4125
  395SOL    HW1 4973   0.243   4.079   3.285  0.3542 -2.0015 -1.4179
  395SOL    HW2 4974   0.392   4.049   3.282  0.6972 -0.6820  0.4073
  396SOL     OW 4975   9.399   7.563   5.953 -0.2375  0.0443  0.0922
  396SOL    HW1 4976   9.368   7.644   5.993  1.3691  0.9873 -0.4449
  396SOL    HW2 4977   9.447   7.593   5.875  0.5688 -1.4154  0.0025
  397SOL     OW 4978   2.159   2.661   6.984 -0.4119  0.8007  0.5680
  397SOL    HW1 4979   2.226   2.607   6.944  0.4948  1.0246  1.7260
  397SOL    HW2 4980   2.166   2.746   6.940 -0.9054  0.4175 -0.2813
  398SOL     OW 4981   2.270   4.717   5.859 -0.1540  0.2252 -0.3889
  398SOL    HW1 4982   2.336   4.744   5.923 -0.5154  0.4449 -0.1032
  398SOL    HW2 4983   2.198   4.780   5.871 -0.6182 -0.3068 -0.3529
  399SOL     OW 4984   7.880   3.542   4.661 -0.1166  0.0875  0.0270
  399SOL    HW1 4985   7.951   3.556   4.723  0.7559 -1.6568 -0.5287
  399SOL    HW2 4986   7.917   3.485   4.594 -2.2248 -1.5180  0.1165
  400SOL     OW 4987   7.780   0.503   3.586  0.2973  0.5396  0.1564
  400SOL    HW1 4988   7.839   0.440   3.544 -0.6255 -0.5911  0.5144
  400SOL    HW2 4989   7.829   0.533   3.663  0.9074  0.5687 -0.2371
  401SOL     OW 4990   7.031   7.499   8.468  0.3605 -0.2458 -0.4395
  401SOL    HW1 4991   6.950   7.478   8.421  1.0597 -2.3279 -0.8445
  401SOL    HW2 4992   7.009   7.574   8.522 -1.8612 -0.7885 -0.4946
  402SOL     OW 4993   7.683   7.582   7.069 -0.7012 -1.3321 -0.2391
  402SOL    HW1 4994   7.763   7.562   7.118 -0.0813  1.0614 -0.1418
  402SOL    HW2 4995   7.713   7.636   6.996 -2.3164  0.5685  0.4209
  403SOL     OW 4996   2.445   3.552   6.455 -0.3843  0.0943 -0.3198
  403SOL    HW1 4997   2.496   3.559   6.375  0.2834  1.1184  0.1809
  403SOL    HW2 4998   2.476   3.471   6.496 -1.1402 -0.7445 -1.3540
  404SOL     OW 4999   3.811   0.456   3.339  0.1124  0.1409 -0.3508
  404SOL    HW1 5000   3.735   0.468   3.281  0.4600 -0.6323 -0.9851
  404SOL    HW2 5001   3.848   0.372   3.312  1.2979  0.5920 -0.1657
  405SOL     OW 5002   9.267   5.144   8.232 -0.5655  0.1869 -0.0710
  405SOL    HW1 5003   9.235   5.233   8.219 -0.5352  0.1672 -0.2714
  405SOL    HW2 5004   9.357   5.146   8.199 -0.7797 -0.0865 -0.6726
  406SOL     OW 5005   8.637   6.895   8.887  0.5770  0.2186  0.1352
  406SOL    HW1 5006   8.723   6.879   8.848  0.2291  1.3022 -1.1673
  406SOL    HW2 5007   8.581   6.827   8.849  0.4383  0.7264 -0.5937
  407SOL     OW 5008   4.579   3.941   7.580  0.2744  0.0225  0.3240
  407SOL    HW1 5009   4.525   4.016   7.605 -0.5269 -1.3306  3.0007
  407SOL    HW2 5010   4.543   3.912   7.496 -0.7892  1.3406  0.2973
  408SOL     OW 5011   8.507   6.028   8.119  0.0306  0.7737  0.2799
  408SOL    HW1 5012   8.488   6.115   8.153  0.4390  1.3190 -0.8156
  408SOL    HW2 5013   8.595   6.008   8.151 -0.1625  0.6528  0.7386
  409SOL     OW 5014   1.403   2.950   3.631 -0.0890 -0.2743 -0.2597
  409SOL    HW1 5015   1.477   2.920   3.683  0.2507 -0.5532 -0.8838
  409SOL    HW2 5016   1.404   2.892   3.554  0.8407  1.5970 -1.7268
  410SOL     OW 5017   6.371   4.155   5.623  0.1967 -0.4237 -0.1793
  410SOL    HW1 5018   6.365   4.068   5.583 -0.8089  0.3035 -1.6957
  410SOL    HW2 5019   6.370   4.137   5.717 -1.3326 -1.9994 -0.4325
  411SOL     OW 5020   6.288   8.287   6.920  0.3758 -0.4532  0.2219
  411SOL    HW1 5021   6.283   8.191   6.921 -1.4539 -0.4024  0.1101
  411SOL    HW2 5022   6.230   8.312   6.848 -0.2755  0.7717  1.1512
  412SOL     OW 5023   5.849   1.671   6.614  0.3284 -0.2057  0.0251
  412SOL    HW1 5024   5.855   1.625   6.697  1.2356 -0.2821 -0.0730
  412SOL    HW2 5025   5.871   1.604   6.548  0.6241  0.1097 -0.1964
  413SOL     OW 5026   3.157   5.465   5.598 -0.1813 -0.6939  0.2150
  413SOL    HW1 5027   3.179   5.385   5.645 -0.5030 -0.6383  0.4664
  413SOL    HW2 5028   3.188   5.536   5.654  0.0764 -0.6389  0.0064
  414SOL     OW 5029   3.294  10.254   9.672  0.1375 -0.1846 -0.2988
  414SOL    HW1 5030   3.366  10.196   9.646 -0.5519 -0.4158 -1.8107
  414SOL    HW2 5031   3.222  10.230   9.614 -0.2705  1.9937 -0.7797
  415SOL     OW 5032   3.586   2.089   7.073 -0.5951  0.0214  0.6580
  415SOL    HW1 5033   3.516   2.081   7.138 -1.0698  0.2904  0.1818
  415SOL    HW2 5034   3.542   2.085   6.989 -0.0949  0.6944  0.3535
  416SOL     OW 5035   5.980   9.859   3.545 -0.4700 -0.3411  0.1491
  416SOL    HW1 5036   5.936   9.882   3.463 -0.1860 -1.5610 -0.3664
  416SOL    HW2 5037   5.999   9.766   3.537 -2.4804 -1.0682  2.5661
  417SOL     OW 5038   5.196   3.025   5.027  0.3534  0.1606  0.2599
  417SOL    HW1 5039   5.140   2.968   4.974  0.1808 -0.5778  1.2123
  417SOL    HW2 5040   5.144   3.106   5.038  1.1751  1.1328 -2.2888
  418SOL     OW 5041   2.614   7.620   4.453 -0.1393 -0.4292  0.1016
  418SOL    HW1 5042   2.646   7.529   4.450 -0.2394 -0.5160  1.2682
  418SOL    HW2 5043   2.679   7.670   4.403  0.7717 -0.9072  0.7761
  419SOL     OW 5044   8.372   6.301   6.545  0.5143  0.4636  0.0862
  419SOL    HW1 5045   8.342   6.227   6.493  0.3111  0.1927  0.5859
  419SOL    HW2 5046   8.302   6.366   6.537 -0.0848 -0.0556  1.0164
  420SOL     OW 5047   3.722   6.562   0.408 -0.0735 -0.3095 -0.3294
  420SOL    HW1 5048   3.707   6.488   0.467  0.9528 -0.9907 -0.8971
  420SOL    HW2 5049   3.682   6.535   0.325  1.4280 -0.8184 -0.9264
  421SOL     OW 5050   7.979   4.244   4.720  0.9257  0.4009 -0.1713
  421SOL    HW1 5051   7.974   4.211   4.630  0.6938  1.0199 -0.3920
  421SOL    HW2 5052   8.055   4.301   4.721  1.4253 -0.2582  0.2555
  422SOL     OW 5053  10.347   6.690   6.891 -0.8218 -0.6943 -0.3259
  422SOL    HW1 5054  10.410   6.657   6.827  0.5712 -1.0737  1.1417
  422SOL    HW2 5055  10.279   6.732   6.840  1.7135  1.7030 -1.9692
  423SOL     OW 5056   0.820   0.787   4.660 -0.6527  0.4052  0.1143
  423SOL    HW1 5057   0.873   0.832   4.594  0.4608  0.7446  1.2013
  423SOL    HW2 5058   0.779   0.715   4.613  1.8443 -0.6946 -0.5249
  424SOL     OW 5059   0.495   5.209   7.243 -0.3470  0.0304  0.2645
  424SOL    HW1 5060   0.475   5.273   7.311  0.3022 -0.6287  1.0943
  424SOL    HW2 5061   0.410   5.171   7.219 -0.7094  1.0237 -0.0825
  425SOL     OW 5062   1.294   6.628   2.622  0.1839 -0.5835  0.2708
  425SOL    HW1 5063   1.307   6.717   2.588 -0.1235 -1.2939 -1.8425
  425SOL    HW2 5064   1.212   6.632   2.671 -0.1849  0.1646 -0.3843
  426SOL     OW 5065   8.409   7.053   0.580  0.4173  0.3332  1.0846
  426SOL    HW1 5066   8.329   7.010   0.549  1.2685  0.0147 -0.8092
  426SOL    HW2 5067   8.417   7.131   0.525  1.3865  0.3925  1.3013
  427SOL     OW 5068   5.342   8.442   9.360 -0.6294 -0.2164  0.2004
  427SOL    HW1 5069   5.282   8.503   9.317  0.2891 -0.2378 -1.1656
  427SOL    HW2 5070   5.310   8.356   9.334  1.0681 -0.2157 -2.1739
  428SOL     OW 5071   2.803   9.909   8.523  0.2507  0.3841 -0.0753
  428SOL    HW1 5072   2.805   9.917   8.428  0.8819 -0.2975 -0.1320
  428SOL    HW2 5073   2.882   9.858   8.544  0.2334  0.7135  0.8270
  429SOL     OW 5074   3.152   5.956   5.384  0.0114  0.2678 -0.2209
  429SOL    HW1 5075   3.101   5.878   5.364  0.3633 -0.1453  0.4466
  429SOL    HW2 5076   3.150   5.962   5.479  1.2787  0.1731 -0.1597
  430SOL     OW 5077   8.368   3.162   2.679  0.1476  0.0403 -0.5475
  430SOL    HW1 5078   8.297   3.136   2.738  1.3467  0.0545  0.9636
  430SOL    HW2 5079   8.339   3.244   2.641 -0.0741  0.7859  1.1451
  431SOL     OW 5080   6.159   5.773   1.729  0.0648 -0.1758 -0.0842
  431SOL    HW1 5081   6.100   5.802   1.798  0.3220  3.3491 -1.1523
  431SOL    HW2 5082   6.103   5.724   1.668 -1.8391  2.6998 -0.8564
  432SOL     OW 5083   0.481   5.063   9.515 -0.1125  0.1910  0.3670
  432SOL    HW1 5084   0.574   5.048   9.499  0.3258  1.6491  1.3964
  432SOL    HW2 5085   0.456   4.994   9.576 -0.1856 -1.2962 -1.2481
  433SOL     OW 5086   1.201   5.750   9.675  0.3711 -0.2761 -0.5951
  433SOL    HW1 5087   1.191   5.831   9.624 -2.3685 -1.0550 -1.4869
  433SOL    HW2 5088   1.266   5.699   9.626  0.2146  0.3466 -1.4856
  434SOL     OW 5089   1.247   3.449   2.439 -0.0672 -0.1718 -0.2830
  434SOL    HW1 5090   1.297   3.391   2.496 -1.2177 -1.1002 -0.1840
  434SOL    HW2 5091   1.311   3.479   2.374  1.2222  0.7993  1.3837
  435SOL     OW 5092   0.013   7.014   7.857  0.1100  0.7538  0.7273
  435SOL    HW1 5093   0.007   6.980   7.767 -1.5235  2.6777  0.0348
  435SOL    HW2 5094   0.008   6.936   7.912 -1.5480 -0.3279 -0.8214
  436SOL     OW 5095  10.130   7.548   7.693  0.3134 -0.1087  0.5940
  436SOL    HW1 5096  10.218   7.534   7.729  0.9268  1.0537 -0.3929
  436SOL    HW2 5097  10.141   7.617   7.628 -0.9269 -1.4640 -1.1371
  437SOL     OW 5098   8.484   5.330   6.466  0.2410  0.0174  0.2746
  437SOL    HW1 5099   8.556   5.337   6.403 -0.6923 -2.4620 -1.2246
  437SOL    HW2 5100   8.495   5.406   6.523  1.7284  1.8830 -2.2636
  438SOL     OW 5101   3.954   0.705   3.424 -0.4794  0.1084  0.3297
  438SOL    HW1 5102   3.946   0.757   3.344  0.3410 -0.3385 -0.0581
  438SOL    HW2 5103   3.910   0.623   3.403 -0.4322  0.0650  0.4032
  439SOL     OW 5104   1.961   5.640   1.298 -0.1344  0.0508 -0.4866
  439SOL    HW1 5105   1.873   5.669   1.322 -0.6659 -0.7362 -1.4026
  439SOL    HW2 5106   2.000   5.611   1.380 -0.4681  1.0599  0.0440
  440SOL     OW 5107   5.189   0.691   2.424 -0.0856 -0.0752 -0.4178
  440SOL    HW1 5108   5.262   0.746   2.393  0.8471 -1.1669 -0.2246
  440SOL    HW2 5109   5.208   0.677   2.517 -0.5133 -0.4355 -0.3845
  441SOL     OW 5110   5.530   9.639   4.030 -0.3177  0.1073  0.3844
  441SOL    HW1 5111   5.538   9.731   4.053  2.9223  0.2777 -0.9396
  441SOL    HW2 5112   5.452   9.609   4.077 -0.3602  3.0148  2.4053
  442SOL     OW 5113   7.408   5.249   6.738 -0.7384 -0.4721  0.1611
  442SOL    HW1 5114   7.340   5.232   6.802 -0.8949 -0.8791 -0.1122
  442SOL    HW2 5115   7.393   5.186   6.668 -1.8439  1.2928 -1.2791
  443SOL     OW 5116   0.272   0.862   7.657 -0.4880  0.9594 -0.1393
  443SOL    HW1 5117   0.191   0.913   7.665 -1.1277  0.0713 -0.6328
  443SOL    HW2 5118   0.252   0.799   7.587  0.9181  1.2468 -0.8369
  444SOL     OW 5119   6.084   7.853   3.607  0.4161 -0.2677 -0.5652
  444SOL    HW1 5120   6.120   7.940   3.623 -1.1450  0.1044  1.3795
  444SOL    HW2 5121   6.155   7.793   3.632  0.2900  0.4465  1.7548
  445SOL     OW 5122   3.938  10.047   8.391  0.0259  0.0537 -0.4742
  445SOL    HW1 5123   3.856  10.096   8.388  0.3499  0.6283 -0.0465
  445SOL    HW2 5124   3.932   9.995   8.472  0.0887  0.1051 -0.4361
  446SOL     OW 5125   4.737   0.023   8.702  0.1318  0.1554  0.1881
  446SOL    HW1 5126   4.739   0.089   8.771  0.2525  0.5374 -0.1792
  446SOL    HW2 5127   4.780  -0.053   8.740 -0.8553 -0.0453  0.9489
  447SOL     OW 5128   3.599   8.676   0.689  0.2613  0.3145 -0.2144
  447SOL    HW1 5129   3.535   8.616   0.728  1.0150 -0.2625  0.1646
  447SOL    HW2 5130   3.573   8.682   0.597  0.9225 -1.6587 -0.5789
  448SOL     OW 5131   6.134   4.452   4.805  0.0633  0.2412 -0.8497
  448SOL    HW1 5132   6.141   4.536   4.850 -0.3094 -0.5057  0.7019
  448SOL    HW2 5133   6.086   4.471   4.725  0.9626  1.6844 -1.0739
  449SOL     OW 5134   8.569   0.262   8.499  0.4254  0.8163 -0.2974
  449SOL    HW1 5135   8.574   0.243   8.592  0.7592 -1.3282 -0.7107
  449SOL    HW2 5136   8.477   0.248   8.476  0.0768  2.5387 -0.0995
  450SOL     OW 5137   3.734   3.206   5.628 -0.2540 -0.1718 -0.3304
  450SOL    HW1 5138   3.687   3.123   5.618 -1.4537  0.3929  0.4646
  450SOL    HW2 5139   3.823   3.187   5.597 -0.3613 -1.8921  0.3151
  451SOL     OW 5140   8.433   3.450   0.838 -0.5514  0.0318  0.5428
  451SOL    HW1 5141   8.522   3.479   0.857  0.3230 -2.2335  0.2600
  451SOL    HW2 5142   8.409   3.396   0.913 -1.8897  0.9241  0.7999
  452SOL     OW 5143   3.881   8.949   5.538 -0.5914 -0.1206  0.8137
  452SOL    HW1 5144   3.834   9.023   5.577  0.3638  0.4965  0.8070
  452SOL    HW2 5145   3.911   8.897   5.614  0.4984  0.6047  0.8970
  453SOL     OW 5146   8.331   8.115   0.221  0.0302  0.3030 -0.3242
  453SOL    HW1 5147   8.235   8.123   0.217  0.0212 -0.2274 -1.6505
  453SOL    HW2 5148   8.345   8.024   0.249  0.1377  0.1731 -0.7934
  454SOL     OW 5149   5.118   3.028   8.539 -0.3306  0.3729 -0.3678
  454SOL    HW1 5150   5.064   3.106   8.537  0.0429  0.6202 -1.8472
  454SOL    HW2 5151   5.056   2.956   8.526 -0.4358  0.5852 -1.0900
  455SOL     OW 5152  10.146   9.391   8.736  0.1382  0.6582 -0.3676
  455SOL    HW1 5153  10.116   9.328   8.801  0.6353 -0.0172 -0.7755
  455SOL    HW2 5154  10.089   9.375   8.660  0.6964  0.2328 -0.7037
  456SOL     OW 5155   8.747   5.092   3.952  0.1184 -0.3889  0.5574
  456SOL    HW1 5156   8.795   5.009   3.944  2.3328  0.9538 -1.6952
  456SOL    HW2 5157   8.680   5.088   3.884  0.2043 -0.3620  0.4711
  457SOL     OW 5158   2.291   9.333   4.814  0.2843  0.1768 -0.1218
  457SOL    HW1 5159   2.261   9.410   4.766  1.4691  0.1673 -0.9262
  457SOL    HW2 5160   2.260   9.259   4.762 -1.8951  0.0333  1.2786
  458SOL     OW 5161   7.016   5.031   9.234 -0.1913  0.4207 -0.0453
  458SOL    HW1 5162   7.001   5.089   9.308  0.8111  1.1862 -0.4140
  458SOL    HW2 5163   7.028   4.944   9.273 -1.9496  0.3954  0.4938
  459SOL     OW 5164   1.372   8.891   6.799  0.3333 -0.1929 -0.8727
  459SOL    HW1 5165   1.343   8.977   6.828 -0.0547  0.1590 -2.2368
  459SOL    HW2 5166   1.292   8.846   6.773  0.7156 -0.1601 -2.1991
  460SOL     OW 5167   3.475   0.600   7.983 -0.6335 -0.2797  0.1348
  460SOL    HW1 5168   3.470   0.648   7.900 -2.3769 -0.3850  0.1286
  460SOL    HW2 5169   3.419   0.523   7.969 -0.6360 -0.5067  1.2837
  461SOL     OW 5170   8.637   3.831   4.080 -0.4248 -0.1776  0.3321
  461SOL    HW1 5171   8.657   3.881   4.158  1.7569 -2.4565  1.3333
  461SOL    HW2 5172   8.590   3.754   4.112 -1.9140  0.1225 -0.9625
  462SOL     OW 5173   5.795   4.212   1.664  0.6471 -0.7238  0.8879
  462SOL    HW1 5174   5.846   4.213   1.582 -1.6986 -0.8908 -0.6640
  462SOL    HW2 5175   5.760   4.123   1.668 -2.3038  0.3021  0.0049
  463SOL     OW 5176   5.365   6.976   1.702 -0.6168 -0.1563  0.6412
  463SOL    HW1 5177   5.450   7.010   1.674 -0.9959  0.2022 -0.0978
  463SOL    HW2 5178   5.313   7.055   1.723 -0.6101 -0.3901  1.5513
  464SOL     OW 5179   0.076   6.495   9.057 -0.1095 -0.1346 -0.7034
  464SOL    HW1 5180  -0.012   6.497   9.022 -0.1794  1.4194 -0.5124
  464SOL    HW2 5181   0.096   6.587   9.077  0.7084 -0.7015  1.3295
  465SOL     OW 5182   3.912   8.248   5.998  0.7566  0.1713 -0.3391
  465SOL    HW1 5183   3.856   8.171   6.008  1.2321 -0.0020  1.1324
  465SOL    HW2 5184   3.995   8.212   5.964 -0.1453  0.5030 -3.1895
  466SOL     OW 5185   2.661   7.057   3.988 -0.0072 -0.2483 -0.2282
  466SOL    HW1 5186   2.747   7.017   3.979 -0.3912 -1.1464 -0.0909
  466SOL    HW2 5187   2.603   7.001   3.936 -0.9353 -1.1242  1.6426
  467SOL     OW 5188   9.112   7.457   7.157 -0.4477  0.1944 -0.2912
  467SOL    HW1 5189   9.131   7.460   7.251  0.7687  0.0052 -0.5230
  467SOL    HW2 5190   9.035   7.401   7.151 -1.2882  1.1845  0.6961
  468SOL     OW 5191   0.671   0.639   9.677  0.3710 -0.3051 -0.5231
  468SOL    HW1 5192   0.680   0.627   9.772 -1.3378  0.0049 -0.3025
  468SOL    HW2 5193   0.662   0.550   9.643 -0.7294 -0.3372 -0.1844
  469SOL     OW 5194   0.962   5.493   9.681  0.5291 -0.0826 -0.2288
  469SOL    HW1 5195   0.938   5.401   9.671  1.4586 -0.3008 -0.5636
  469SOL    HW2 5196   0.891   5.531   9.731 -0.5199 -0.6842 -1.2169
  470SOL     OW 5197   1.133   7.485   9.721 -0.2648 -0.6122 -0.3512
  470SOL    HW1 5198   1.178   7.406   9.752 -1.2220 -1.3169 -0.6837
  470SOL    HW2 5199   1.042   7.457   9.709 -0.4920  0.3852 -1.0866
  471SOL     OW 5200   1.351   2.483   1.573 -0.3552 -0.0169 -0.5896
  471SOL    HW1 5201   1.276   2.465   1.518  0.7152  0.7412 -2.3956
  471SOL    HW2 5202   1.320   2.468   1.662 -2.6463  0.3567 -1.2604
  472SOL     OW 5203   8.592   3.211   6.609 -0.3948 -0.5471 -0.9240
  472SOL    HW1 5204   8.582   3.301   6.641  0.8804 -0.2791 -1.1901
  472SOL    HW2 5205   8.683   3.189   6.631 -0.3903 -1.4069 -1.7550
  473SOL     OW 5206   7.581   6.440   0.728 -0.2266 -0.4669  0.2299
  473SOL    HW1 5207   7.499   6.398   0.702 -0.3710  0.2953 -0.5977
  473SOL    HW2 5208   7.625   6.461   0.646 -0.5968  1.8127  0.5513
  474SOL     OW 5209   5.723   3.477   9.366  0.0935 -0.4557 -0.4347
  474SOL    HW1 5210   5.818   3.486   9.375  0.0405 -0.1364 -0.1777
  474SOL    HW2 5211   5.705   3.386   9.389 -0.0882  0.3634  3.3948
  475SOL     OW 5212   8.810   9.211   3.664  0.2150  0.1946 -0.2540
  475SOL    HW1 5213   8.754   9.162   3.604  1.5947 -0.0670 -1.3806
  475SOL    HW2 5214   8.839   9.288   3.613  0.2785  0.7202  0.5574
  476SOL     OW 5215   1.242   7.473   5.006  0.4869 -0.4105  0.4682
  476SOL    HW1 5216   1.325   7.452   5.048  0.8427 -1.1447 -0.5481
  476SOL    HW2 5217   1.229   7.402   4.942  0.0093  0.6779 -0.6831
  477SOL     OW 5218   3.345   5.595   8.205  0.3236  0.0638  0.0312
  477SOL    HW1 5219   3.351   5.641   8.289  1.0235  0.1098 -0.0353
  477SOL    HW2 5220   3.306   5.510   8.227  1.1543 -0.2074  0.5276
  478SOL     OW 5221   1.305   3.650   1.775 -0.3507  0.0116  0.5258
  478SOL    HW1 5222   1.214   3.637   1.802 -0.8951  2.4627  0.0223
  478SOL    HW2 5223   1.300   3.701   1.695  1.4783  0.6461  0.7672
  479SOL     OW 5224   1.466   9.411   1.952 -0.0444 -0.1322  0.8773
  479SOL    HW1 5225   1.492   9.487   2.003  1.9062 -1.2757  1.6752
  479SOL    HW2 5226   1.430   9.448   1.871  1.7111  1.6279  0.8469
  480SOL     OW 5227   6.876   2.486   3.163  0.5487  0.1591 -0.1735
  480SOL    HW1 5228   6.806   2.536   3.206 -0.3356  0.4542 -1.8794
  480SOL    HW2 5229   6.888   2.529   3.079  1.2023 -1.2926 -0.8538
  481SOL     OW 5230   2.653   2.335   4.040  0.1365  0.2754 -0.2295
  481SOL    HW1 5231   2.631   2.316   3.948 -0.2609 -1.3946  0.1672
  481SOL    HW2 5232   2.606   2.416   4.059  1.1895  1.3056 -1.8289
  482SOL     OW 5233   1.602   4.479   1.945 -0.2183 -0.4127 -0.2013
  482SOL    HW1 5234   1.526   4.533   1.924 -0.6146 -0.6263  0.6460
  482SOL    HW2 5235   1.651   4.473   1.863 -1.4751 -0.8665 -0.9294
  483SOL     OW 5236   6.171   2.702   7.574 -0.2486 -0.0570 -0.5460
  483SOL    HW1 5237   6.158   2.611   7.600 -0.6552 -0.2348 -1.3475
  483SOL    HW2 5238   6.090   2.746   7.602 -0.6648 -0.2384 -1.4346
  484SOL     OW 5239   7.397   9.094   4.207  0.0597  0.2785  0.5290
  484SOL    HW1 5240   7.327   9.084   4.272 -0.7992  0.3213 -0.3680
  484SOL    HW2 5241   7.446   9.012   4.213 -1.5097 -0.7905 -0.4589
  485SOL     OW 5242   3.594   4.894   7.593  0.5876  0.0646 -0.1774
  485SOL    HW1 5243   3.503   4.920   7.584  1.2436  2.2646 -1.1298
  485SOL    HW2 5244   3.615   4.852   7.510  1.0407  1.7455 -0.9626
  486SOL     OW 5245   9.500   5.293   9.672 -0.5233  0.5522  0.1584
  486SOL    HW1 5246   9.507   5.348   9.750 -0.0111  0.7386 -0.0147
  486SOL    HW2 5247   9.590   5.263   9.656 -0.9985 -1.4607  1.0471
  487SOL     OW 5248   7.646   0.187   6.131  0.7770  0.2104  0.0079
  487SOL    HW1 5249   7.596   0.170   6.051 -1.1593  2.0715  0.7334
  487SOL    HW2 5250   7.690   0.270   6.116 -0.0537  0.8673  1.0302
  488SOL     OW 5251   6.371   7.292   4.491 -0.1980 -0.3249 -0.2928
  488SOL    HW1 5252   6.363   7.230   4.564  0.4004  1.9057  1.7963
  488SOL    HW2 5253   6.416   7.243   4.422 -2.2462 -3.0206  0.1414
  489SOL     OW 5254   5.855   3.234   5.579 -0.1745 -0.4585 -0.0655
  489SOL    HW1 5255   5.807   3.317   5.579  0.2071 -0.2343 -0.7704
  489SOL    HW2 5256   5.900   3.232   5.664  1.8865  1.2679 -1.0546
  490SOL     OW 5257   7.971   4.542   0.456 -0.1982 -0.1329  0.5646
  490SOL    HW1 5258   7.880   4.559   0.433 -0.0815  1.2929  1.0945
  490SOL    HW2 5259   7.976   4.446   0.462 -1.1217 -0.3788 -1.5605
  491SOL     OW 5260   6.118   1.093   6.221  0.5063  0.6766  0.1081
  491SOL    HW1 5261   6.079   1.120   6.138 -0.5544 -0.0755  0.3422
  491SOL    HW2 5262   6.117   1.172   6.275  1.0599  1.1298 -0.5334
  492SOL     OW 5263   9.773   6.328   9.995  0.1477 -0.0790  0.5668
  492SOL    HW1 5264   9.789   6.236   9.976 -1.2358  0.2731 -2.9502
  492SOL    HW2 5265   9.684   6.330  10.031 -0.1071 -0.0572 -0.0604
  493SOL     OW 5266   6.093   7.732   8.097  0.6287 -0.0502 -0.2172
  493SOL    HW1 5267   6.124   7.698   8.181  0.6184 -0.2890 -0.3112
  493SOL    HW2 5268   6.042   7.810   8.120  1.0581  0.1811 -0.0391
  494SOL     OW 5269   6.343   5.370   9.732 -0.0593 -0.0435  0.2917
  494SOL    HW1 5270   6.404   5.439   9.759  2.0010 -1.8316  0.4986
  494SOL    HW2 5271   6.385   5.329   9.657 -2.4628  0.4521 -1.4611
  495SOL     OW 5272  10.186   4.126   2.322 -0.3515  0.8416 -0.4759
  495SOL    HW1 5273  10.129   4.080   2.260 -0.7064 -1.6059  1.5395
  495SOL    HW2 5274  10.268   4.076   2.320  0.0873  1.5253  0.1002
  496SOL     OW 5275   5.079   3.087   6.902 -0.4513 -0.2055  0.0110
  496SOL    HW1 5276   5.123   3.039   6.832  1.3938 -0.0429  0.9894
  496SOL    HW2 5277   5.151   3.117   6.959 -1.5369  3.0590 -0.1487
  497SOL     OW 5278   8.418   4.253   2.489  0.5869  0.0474  0.1087
  497SOL    HW1 5279   8.417   4.303   2.571 -0.4551 -1.1829  0.8939
  497SOL    HW2 5280   8.507   4.219   2.482  0.5526 -0.2487  0.9995
  498SOL     OW 5281   7.053   6.300   4.374 -0.4146 -0.1747 -0.1274
  498SOL    HW1 5282   6.958   6.303   4.361 -0.5101  0.1998  0.6131
  498SOL    HW2 5283   7.085   6.378   4.329 -0.3343 -0.8456 -1.2720
  499SOL     OW 5284   1.400   5.136   7.602 -0.1148  0.3938  0.0479
  499SOL    HW1 5285   1.476   5.146   7.545  0.4409  1.1938  0.8896
  499SOL    HW2 5286   1.425   5.181   7.683 -0.6368 -1.2482  1.1601
  500SOL     OW 5287   5.529   8.631   2.567  0.2599 -0.0669  0.6773
  500SOL    HW1 5288   5.491   8.716   2.545  0.9721 -0.2104 -1.3062
  500SOL    HW2 5289   5.579   8.606   2.489  2.8180 -0.7745  2.4242
  501SOL     OW 5290   6.994   5.235   3.666 -0.3881  0.6680 -0.2675
  501SOL    HW1 5291   7.048   5.297   3.617 -0.4835  1.0266  0.0748
  501SOL    HW2 5292   6.950   5.184   3.599  0.8029 -0.0185 -0.5643
  502SOL     OW 5293   6.684   9.225   8.152 -0.2558  0.7870 -0.1864
  502SOL    HW1 5294   6.650   9.312   8.133 -1.1057  0.2749 -1.1057
  502SOL    HW2 5295   6.687   9.220   8.248 -1.7462  1.2353 -0.1050
  503SOL     OW 5296   5.176   8.011   1.850 -0.7153  0.2014  0.0498
  503SOL    HW1 5297   5.248   7.996   1.911  0.3461 -0.0635 -1.2172
  503SOL    HW2 5298   5.173   8.105   1.837 -1.4352  0.3361  1.0427
  504SOL     OW 5299   8.989   7.921   5.759 -0.1253  0.0286 -0.5183
  504SOL    HW1 5300   9.050   7.857   5.795  0.1081 -1.5271 -3.3326
  504SOL    HW2 5301   9.043   7.997   5.737 -0.0900  0.5429  1.2566
  505SOL     OW 5302   3.268   1.762   6.730  0.0322 -0.7501  0.3602
  505SOL    HW1 5303   3.325   1.686   6.721 -0.3070 -1.1402  1.4111
  505SOL    HW2 5304   3.293   1.819   6.657  1.7535 -0.9083  0.7954
  506SOL     OW 5305   3.999   3.333   1.459 -0.4499  0.3222 -0.0277
  506SOL    HW1 5306   3.944   3.391   1.406  0.1219  1.1473  0.2622
  506SOL    HW2 5307   3.988   3.365   1.549  0.5347  0.5323  0.0280
  507SOL     OW 5308   0.683   9.070   7.203 -0.0741 -0.1383 -0.0858
  507SOL    HW1 5309   0.749   9.056   7.271  0.0581  0.3783 -0.1065
  507SOL    HW2 5310   0.613   9.009   7.225  0.9630 -1.6796 -0.8129
  508SOL     OW 5311   0.615   3.546   5.452 -0.7144  0.0102 -0.1238
  508SOL    HW1 5312   0.578   3.506   5.531 -1.4124  0.7789 -0.0424
  508SOL    HW2 5313   0.696   3.587   5.481  0.4881 -2.0535 -0.3852
  509SOL     OW 5314   2.136   5.694   4.493  0.4465 -0.0145  0.1674
  509SOL    HW1 5315   2.081   5.649   4.557 -0.1629 -1.5843 -1.3807
  509SOL    HW2 5316   2.211   5.725   4.544  0.1222 -1.4551  1.6010
  510SOL     OW 5317   4.319   8.682   1.056  0.7348 -0.2126 -0.5254
  510SOL    HW1 5318   4.355   8.638   1.134  0.5819  0.4815 -0.0525
  510SOL    HW2 5319   4.268   8.755   1.092  0.6456  0.0998 -1.2806
  511SOL     OW 5320   9.242   8.229   9.016  0.6715  0.5429 -0.2406
  511SOL    HW1 5321   9.337   8.222   9.010  0.5505 -1.0135 -0.6923
  511SOL    HW2 5322   9.215   8.269   8.933  0.7542 -1.3052 -1.2026
  512SOL     OW 5323   5.088   8.479   8.610  0.3681  0.1130 -0.1678
  512SOL    HW1 5324   4.996   8.472   8.635  0.4265 -0.0331  0.0078
  512SOL    HW2 5325   5.094   8.563   8.564  0.6744  1.4565  2.1885
  513SOL     OW 5326   4.665   5.397   8.210  0.1032  0.4897 -0.2512
  513SOL    HW1 5327   4.742   5.356   8.251  1.6073  2.8759 -0.5246
  513SOL    HW2 5328   4.701   5.447   8.137 -2.0310 -0.1346 -1.8030
  514SOL     OW 5329   7.230  10.359   0.087  0.8551 -0.0534  0.5571
  514SOL    HW1 5330   7.137  10.378   0.104  0.2100 -1.9742 -0.5197
  514SOL    HW2 5331   7.277  10.421   0.142 -1.0584  1.5600  0.5135
  515SOL     OW 5332   6.474   8.615   1.331  0.4783 -0.0999 -0.5699
  515SOL    HW1 5333   6.471   8.531   1.378 -0.5011 -0.1338 -0.6724
  515SOL    HW2 5334   6.451   8.593   1.241 -1.1870  0.4628 -0.3064
  516SOL     OW 5335   8.756   9.637   1.641 -0.1321 -0.0394 -0.2343
  516SOL    HW1 5336   8.672   9.628   1.595 -0.1388 -0.7232 -0.0945
  516SOL    HW2 5337   8.734   9.625   1.733 -0.1477  1.5191 -0.0145
  517SOL     OW 5338   2.067   6.059   1.654 -0.1017 -0.0367 -0.8465
  517SOL    HW1 5339   2.152   6.070   1.612  0.3251  1.3648  0.2806
  517SOL    HW2 5340   2.077   6.101   1.740 -1.4871 -1.1667 -0.0815
  518SOL     OW 5341  10.180   4.983   0.430 -0.1035  0.3015 -0.1518
  518SOL    HW1 5342  10.274   5.002   0.435  0.1489 -0.8195 -0.3366
  518SOL    HW2 5343  10.156   4.960   0.519  0.1516 -0.8763 -0.3608
  519SOL     OW 5344   2.393   7.886   9.789  0.1490  0.5007  0.1082
  519SOL    HW1 5345   2.328   7.909   9.855  1.4181 -1.2747  2.1230
  519SOL    HW2 5346   2.459   7.955   9.796 -0.4546  1.1545 -0.4464
  520SOL     OW 5347   0.753   2.426   6.705 -0.1332  0.2977  0.1959
  520SOL    HW1 5348   0.709   2.509   6.724 -1.5071 -0.4109  0.2182
  520SOL    HW2 5349   0.739   2.412   6.611  1.0771  0.6248 -0.0538
  521SOL     OW 5350  10.305   9.758   4.423  0.9349  0.3804 -0.5382
  521SOL    HW1 5351  10.343   9.684   4.376 -1.9265 -2.2772  0.9328
  521SOL    HW2 5352  10.344   9.753   4.511 -0.3916 -0.4110  0.0310
  522SOL     OW 5353   4.877   6.659   9.483 -0.0748  0.1271  0.4586
  522SOL    HW1 5354   4.893   6.724   9.414 -0.2675  0.3678  0.6408
  522SOL    HW2 5355   4.945   6.676   9.547  0.1879 -0.1858  0.2670
  523SOL     OW 5356   2.708   0.509  10.162 -0.4714  0.0345 -0.2722
  523SOL    HW1 5357   2.656   0.464  10.228  0.7768 -1.4004 -0.2111
  523SOL    HW2 5358   2.764   0.441  10.125 -0.8315  0.8796 -2.5302
  524SOL     OW 5359   2.420   5.276   5.526 -0.0563  0.4641  0.0782
  524SOL    HW1 5360   2.417   5.247   5.435 -3.2209  0.3019  0.1204
  524SOL    HW2 5361   2.463   5.361   5.522  0.4899  0.1551 -1.4566
  525SOL     OW 5362   0.777   4.636   1.904  0.5153 -0.3576  0.3127
  525SOL    HW1 5363   0.799   4.561   1.850 -1.4367 -0.2171 -0.7548
  525SOL    HW2 5364   0.762   4.599   1.991  0.9284 -1.0001  0.1151
  526SOL     OW 5365   5.144   2.745   7.163 -0.1008 -0.4727  0.0630
  526SOL    HW1 5366   5.124   2.783   7.249  0.2418 -0.6062  0.2051
  526SOL    HW2 5367   5.079   2.677   7.151 -0.7129  0.1463 -0.1882
  527SOL     OW 5368   8.037   6.813   5.432  0.1008  0.0866  0.6837
  527SOL    HW1 5369   7.954   6.765   5.435 -0.2974 -0.1282 -4.5137
  527SOL    HW2 5370   8.012   6.905   5.438 -0.4687 -0.0175  0.1064
  528SOL     OW 5371   6.560   2.180   5.823 -0.4456  0.0960  0.3318
  528SOL    HW1 5372   6.511   2.246   5.871 -0.5014  0.7683 -0.6294
  528SOL    HW2 5373   6.494   2.134   5.771 -0.0111  1.4263 -1.4551
  529SOL     OW 5374   9.149   7.562   1.873  0.3490  0.0179  0.3563
  529SOL    HW1 5375   9.061   7.586   1.845  0.8333  3.6313  1.4744
  529SOL    HW2 5376   9.136   7.486   1.930 -1.9832  0.3012  0.2904
  530SOL     OW 5377   3.082   1.581   5.017  0.4606  0.3515 -0.2459
  530SOL    HW1 5378   3.148   1.512   5.027  0.9246  0.5025 -1.9573
  530SOL    HW2 5379   3.063   1.582   4.924 -0.4570  1.7245 -0.0675
  531SOL     OW 5380   5.400   4.451   3.140 -0.3031  0.0303 -0.2192
  531SOL    HW1 5381   5.323   4.448   3.198 -1.1381  0.9654 -1.2399
  531SOL    HW2 5382   5.376   4.396   3.066 -0.4846  1.2393 -1.0918
  532SOL     OW 5383   6.535   0.736   0.733  0.1430  0.9779 -0.4867
  532SOL    HW1 5384   6.606   0.714   0.792  0.2672  1.7376 -0.3343
  532SOL    HW2 5385   6.575   0.736   0.646 -0.2372 -1.0150 -0.7096
  533SOL     OW 5386   6.268   8.081   3.677  0.3504 -0.0463  0.1759
  533SOL    HW1 5387   6.347   8.053   3.630  0.3559 -0.5240  0.4615
  533SOL    HW2 5388   6.300   8.117   3.759  0.5153  2.8511 -1.0551
  534SOL     OW 5389   2.070   7.115   7.625 -0.0178 -0.0453 -0.2051
  534SOL    HW1 5390   2.116   7.198   7.636  2.3430 -1.0174 -1.9434
  534SOL    HW2 5391   1.977   7.138   7.634  0.6472  2.3802  1.3634
  535SOL     OW 5392   5.070   3.517   8.541  0.0449  0.0209 -0.3363
  535SOL    HW1 5393   5.079   3.582   8.472 -0.3188 -1.3915 -1.7699
  535SOL    HW2 5394   5.158   3.508   8.577  0.1052  1.2555 -0.1460
  536SOL     OW 5395   3.040   4.702   2.003  0.3201  0.2794 -0.2875
  536SOL    HW1 5396   3.129   4.672   1.983  0.1308  0.1496 -0.9716
  536SOL    HW2 5397   3.035   4.790   1.967  0.1650  0.2830 -0.2598
  537SOL     OW 5398   2.495   0.100   2.035 -0.2346 -0.0140 -0.1479
  537SOL    HW1 5399   2.402   0.075   2.031 -0.9658  1.5485  3.2107
  537SOL    HW2 5400   2.537   0.026   2.078 -0.1245 -0.2406 -0.6375
  538SOL     OW 5401   9.910   1.945   4.429  0.1841 -0.5729 -0.0894
  538SOL    HW1 5402  10.004   1.956   4.441 -0.0374  0.5154  0.8090
  538SOL    HW2 5403   9.872   2.025   4.465 -1.0241 -0.5100 -1.4344
  539SOL     OW 5404   1.438   8.579   7.962 -0.1482  0.1625  0.3033
  539SOL    HW1 5405   1.417   8.620   7.878  0.8193 -0.0464 -0.0522
  539SOL    HW2 5406   1.353   8.556   7.999 -0.6252  0.9724 -0.2569
  540SOL     OW 5407   4.425   1.656   2.870 -0.3168 -0.3008 -0.2978
  540SOL    HW1 5408   4.499   1.617   2.823 -2.2939 -2.3267 -1.9545
  540SOL    HW2 5409   4.377   1.705   2.803 -0.2899  1.4161  0.8582
  541SOL     OW 5410   5.087   1.963   5.245  0.0601 -0.3042  0.0638
  541SOL    HW1 5411   5.162   1.979   5.188  0.7221 -0.8166  0.7718
  541SOL    HW2 5412   5.079   2.043   5.296 -0.6532  0.2329 -0.8550
  542SOL     OW 5413   7.795   3.147   8.194 -0.3219 -0.3910 -0.5111
  542SOL    HW1 5414   7.753   3.138   8.280 -0.5260 -0.3803 -0.6091
  542SOL    HW2 5415   7.863   3.213   8.207  0.1402 -0.9130 -0.1747
  543SOL     OW 5416   6.715   6.270   1.368  0.5303 -0.2548 -0.1568
  543SOL    HW1 5417   6.719   6.270   1.272  2.2655  2.8581 -0.2078
  543SOL    HW2 5418   6.623   6.291   1.387  0.2204 -0.6707 -1.0982
  544SOL     OW 5419   0.052   2.946   1.927  0.1675 -0.2807  0.2895
  544SOL    HW1 5420   0.081   2.995   2.004 -0.5685 -0.0555  0.4320
  544SOL    HW2 5421   0.117   2.876   1.917  0.4670 -0.0959  0.8974
  545SOL     OW 5422   4.326   1.852   5.257  0.5029  0.1020 -0.0522
  545SOL    HW1 5423   4.241   1.876   5.293  0.4756  3.9053 -2.1797
  545SOL    HW2 5424   4.316   1.759   5.233 -2.6376  0.1255  0.6732
  546SOL     OW 5425   9.658   1.846   1.546  0.9267  0.2150  0.1729
  546SOL    HW1 5426   9.648   1.939   1.523  3.5742  1.0939  2.0794
  546SOL    HW2 5427   9.729   1.816   1.489  0.5955 -0.4547  0.1096
  547SOL     OW 5428   8.192   3.263   8.433 -0.2691 -0.1748 -0.2384
  547SOL    HW1 5429   8.115   3.315   8.454 -0.0232  1.2655 -2.5423
  547SOL    HW2 5430   8.156   3.178   8.405 -0.8141 -0.4541  1.2173
  548SOL     OW 5431   0.585   4.732   7.260 -0.1111  0.6348  0.0271
  548SOL    HW1 5432   0.658   4.720   7.200  0.5419 -0.3508  0.9992
  548SOL    HW2 5433   0.514   4.765   7.204  1.1397  1.9570 -0.8776
  549SOL     OW 5434   0.246   6.690   3.154 -0.7033  0.1153 -0.0345
  549SOL    HW1 5435   0.340   6.706   3.148 -0.3533 -1.4528  0.7723
  549SOL    HW2 5436   0.206   6.777   3.142  0.7216  0.5359 -2.4502
  550SOL     OW 5437   1.282   1.141   5.552 -0.0909  0.3652  0.2069
  550SOL    HW1 5438   1.330   1.176   5.478  2.5127 -0.4117  1.4136
  550SOL    HW2 5439   1.241   1.061   5.519  1.4708 -0.2546 -0.3036
  551SOL     OW 5440   2.570   6.846   3.555 -0.0418 -0.5128  0.0419
  551SOL    HW1 5441   2.609   6.765   3.522  1.1406 -0.8110  1.9924
  551SOL    HW2 5442   2.644   6.906   3.565 -0.5573  0.0130  0.7854
  552SOL     OW 5443   1.062   0.748   6.547 -0.0130 -0.1872 -0.5838
  552SOL    HW1 5444   1.122   0.803   6.597  0.3813  0.1859 -1.4427
  552SOL    HW2 5445   0.996   0.808   6.513 -2.3690 -0.8790  2.3160
  553SOL     OW 5446   9.733   2.675   9.504 -0.4455  0.4694 -0.3619
  553SOL    HW1 5447   9.793   2.745   9.528 -1.5507  1.0712  0.7724
  553SOL    HW2 5448   9.649   2.718   9.490 -0.5272 -0.2750 -2.5385
  554SOL     OW 5449   5.523   7.397  10.050  0.1946 -0.3191 -1.2232
  554SOL    HW1 5450   5.484   7.325  10.000 -0.4070 -1.3411  0.6348
  554SOL    HW2 5451   5.448   7.448  10.080  0.5537  0.3257 -1.4043
  555SOL     OW 5452   9.586   2.871   8.098  0.3996 -0.4624 -0.5991
  555SOL    HW1 5453   9.575   2.778   8.076 -0.5508 -1.3339  2.8541
  555SOL    HW2 5454   9.497   2.905   8.101  0.6464  0.1747 -0.4871
  556SOL     OW 5455   2.183   7.900   8.919 -0.3373  0.0662 -0.5480
  556SOL    HW1 5456   2.145   7.873   9.003  0.0944  0.2063 -0.3092
  556SOL    HW2 5457   2.109   7.939   8.871 -0.4446  0.5451  0.0050
  557SOL     OW 5458   6.217   1.101   0.525 -0.2861  0.0401 -0.3915
  557SOL    HW1 5459   6.272   1.172   0.560 -0.4967  0.6544 -1.2652
  557SOL    HW2 5460   6.273   1.023   0.530  0.3365  0.4735 -0.4014
  558SOL     OW 5461   3.052   5.355   0.871 -0.6570 -0.3145  0.4422
  558SOL    HW1 5462   2.985   5.286   0.876 -1.9005  0.7260 -0.9859
  558SOL    HW2 5463   3.002   5.437   0.869  0.6917  0.5282  0.0120
  559SOL     OW 5464   5.756   4.362   1.436 -0.1960  0.8921 -0.2954
  559SOL    HW1 5465   5.664   4.369   1.463 -0.2946  1.3536 -0.7432
  559SOL    HW2 5466   5.806   4.379   1.516 -0.4849  2.2766 -0.3858
  560SOL     OW 5467   2.861   1.959   2.264 -0.0290 -0.1785 -0.2326
  560SOL    HW1 5468   2.894   2.010   2.338 -1.3538  0.7367 -0.2462
  560SOL    HW2 5469   2.931   1.964   2.199 -0.2131  1.9209 -0.3530
  561SOL     OW 5470   5.402   3.679   7.048 -0.6543 -0.5587  0.8668
  561SOL    HW1 5471   5.386   3.611   6.982  0.6076 -1.2953  1.2613
  561SOL    HW2 5472   5.352   3.754   7.019 -1.2999 -1.3497 -0.1305
  562SOL     OW 5473   6.398   0.210   2.348 -0.1322  0.0551  0.0875
  562SOL    HW1 5474   6.373   0.227   2.257  1.2194 -0.2851 -0.3672
  562SOL    HW2 5475   6.486   0.246   2.356  0.9991 -2.5370  0.3864
  563SOL     OW 5476  10.251   1.743   4.645  0.1599 -0.1864  0.8503
  563SOL    HW1 5477  10.256   1.750   4.550 -1.2272  0.3792  0.7948
  563SOL    HW2 5478  10.278   1.653   4.664  0.1143 -0.4113 -0.1017
  564SOL     OW 5479   2.696   2.146   0.545 -0.4545 -0.3683 -0.4123
  564SOL    HW1 5480   2.729   2.232   0.572  0.9731 -0.8918 -0.4094
  564SOL    HW2 5481   2.743   2.084   0.601  0.6150 -1.3255 -2.3026
  565SOL     OW 5482   6.494   3.514   4.098 -0.1787  0.6774 -0.5930
  565SOL    HW1 5483   6.449   3.480   4.175 -0.8769  1.7719 -0.5021
  565SOL    HW2 5484   6.586   3.517   4.124 -0.1009 -0.9681 -0.5580
  566SOL     OW 5485   0.652   5.736   3.268 -0.4162  0.1345  0.3427
  566SOL    HW1 5486   0.640   5.823   3.232  1.6970  0.7076  0.8409
  566SOL    HW2 5487   0.716   5.748   3.339  0.6274 -1.9094 -0.1642
  567SOL     OW 5488   9.585   3.940   7.290  0.2147  0.9820 -0.1948
  567SOL    HW1 5489   9.548   3.949   7.377  2.1479  3.1557  0.5108
  567SOL    HW2 5490   9.680   3.937   7.304  0.6081  1.8624 -2.2081
  568SOL     OW 5491   8.029   2.735   9.698  0.1218 -0.2335  0.1724
  568SOL    HW1 5492   8.069   2.766   9.616  3.6852  1.7349  2.3641
  568SOL    HW2 5493   7.944   2.779   9.700  0.4772  0.7199 -1.8771
  569SOL     OW 5494   5.869   2.995   2.715 -0.7690  0.1366 -1.0554
  569SOL    HW1 5495   5.935   3.015   2.649 -0.1636  0.1518 -0.4624
  569SOL    HW2 5496   5.838   3.081   2.745  1.0020  0.2466  0.6712
  570SOL     OW 5497   4.159   4.460   7.499 -0.4835 -0.0311  0.0955
  570SOL    HW1 5498   4.208   4.390   7.456 -0.9193  0.1365 -0.6802
  570SOL    HW2 5499   4.167   4.535   7.441 -0.9307  0.2541  0.3956
  571SOL     OW 5500  10.338   1.921   2.302 -0.1235  0.4493 -0.0197
  571SOL    HW1 5501  10.330   1.946   2.395  0.8740 -1.8214  0.7530
  571SOL    HW2 5502  10.425   1.951   2.276 -0.2566  0.7520 -0.1229
  572SOL     OW 5503   8.000   0.847   3.699 -0.7041 -0.3977  0.1586
  572SOL    HW1 5504   7.983   0.763   3.741  0.4768 -0.7070  0.0426
  572SOL    HW2 5505   8.092   0.843   3.673 -0.7655  0.7391 -0.2903
  573SOL     OW 5506   3.746   0.647   8.809  0.0356 -0.1843  0.6805
  573SOL    HW1 5507   3.785   0.716   8.756 -0.4863 -1.1467 -1.0523
  573SOL    HW2 5508   3.728   0.688   8.893  0.8125  1.4427  0.0947
  574SOL     OW 5509   1.228   4.674   3.429  0.7195 -0.4713 -0.3771
  574SOL    HW1 5510   1.164   4.724   3.377  0.4569  0.3242  0.6751
  574SOL    HW2 5511   1.177   4.641   3.503  0.9288 -2.2090 -0.9553
  575SOL     OW 5512   9.022   3.746   2.754  0.0369 -0.1797  0.4315
  575SOL    HW1 5513   9.010   3.832   2.793 -0.3607 -0.6777  1.4477
  575SOL    HW2 5514   8.993   3.685   2.822 -0.8340 -1.0714 -0.7021
  576SOL     OW 5515   2.816   2.926   4.365 -0.6472 -0.1544 -0.0940
  576SOL    HW1 5516   2.800   2.861   4.296  1.6174 -0.8212 -0.0693
  576SOL    HW2 5517   2.804   3.011   4.321  2.4489 -0.5083 -1.9261
  577SOL     OW 5518   7.929  10.114   4.850 -0.8424 -0.4158 -0.0562
  577SOL    HW1 5519   7.959  10.170   4.778 -1.4035 -2.6334 -2.1626
  577SOL    HW2 5520   7.864  10.168   4.896  0.6189  1.6160 -0.2275
  578SOL     OW 5521  10.289   9.683   1.517 -0.0182  0.2322 -0.0002
  578SOL    HW1 5522  10.252   9.766   1.486  0.2735  0.3847  0.0567
  578SOL    HW2 5523  10.355   9.708   1.581  0.3426 -0.0284 -0.2674
  579SOL     OW 5524   7.842   6.054   6.582  0.7351  0.5252  0.3412
  579SOL    HW1 5525   7.806   6.140   6.603 -1.2863  0.1198 -1.1348
  579SOL    HW2 5526   7.782   5.992   6.622  1.6546 -0.2268  0.6049
  580SOL     OW 5527   8.058   6.463   5.067  0.1806 -0.3222 -0.0211
  580SOL    HW1 5528   8.125   6.531   5.076 -0.3233  0.1296  0.4027
  580SOL    HW2 5529   8.067   6.409   5.145  1.0416 -1.1812 -0.6864
  581SOL     OW 5530   2.708   5.516   1.584  0.4651 -0.7868  0.5496
  581SOL    HW1 5531   2.731   5.425   1.605 -0.1769 -1.2274 -0.5914
  581SOL    HW2 5532   2.769   5.540   1.514 -1.5854 -1.5473 -1.6203
  582SOL     OW 5533   1.870   4.227   5.688 -0.1981  0.8291 -0.3443
  582SOL    HW1 5534   1.882   4.248   5.781  0.7844 -1.2493  0.0576
  582SOL    HW2 5535   1.959   4.212   5.656 -0.5616  1.1428 -1.5496
  583SOL     OW 5536   9.693   6.958   6.984 -0.1776 -0.3420  0.0188
  583SOL    HW1 5537   9.715   7.040   6.940  1.0734 -0.3002  0.6939
  583SOL    HW2 5538   9.704   6.891   6.918  0.7497 -0.1751 -0.0037
  584SOL     OW 5539   1.542   1.925   7.414  0.1549  0.4360  0.1719
  584SOL    HW1 5540   1.537   1.948   7.321  1.2082 -1.4230 -0.3800
  584SOL    HW2 5541   1.495   1.996   7.458 -2.6091  0.1080 -1.9553
  585SOL     OW 5542   7.305   3.086   2.623  0.4122 -0.3254 -0.6600
  585SOL    HW1 5543   7.386   3.037   2.642  1.2243  0.9961 -0.5633
  585SOL    HW2 5544   7.269   3.107   2.709  0.9897  0.6882 -0.6485
  586SOL     OW 5545   0.741   3.037   8.010 -0.0232  0.1544 -0.7937
  586SOL    HW1 5546   0.789   3.049   8.092  1.0588  1.8589 -1.6194
  586SOL    HW2 5547   0.662   2.990   8.035  0.5761  0.0781  1.1239
  587SOL     OW 5548   0.661   9.037   6.288 -0.2436  0.3288  0.0292
  587SOL    HW1 5549   0.613   8.961   6.255 -2.5187  1.5943  0.1739
  587SOL    HW2 5550   0.638   9.040   6.381  1.0811  0.3271  0.3675
  588SOL     OW 5551   9.137   2.739   4.356 -0.2431  0.1189  0.2580
  588SOL    HW1 5552   9.171   2.652   4.334  0.6879  0.1612  1.4103
  588SOL    HW2 5553   9.058   2.748   4.302  0.3267 -0.9184 -0.8118
  589SOL     OW 5554   5.950   6.359   7.278  0.7171  0.8409 -0.4425
  589SOL    HW1 5555   5.880   6.340   7.215  0.8106  1.8835 -0.8793
  589SOL    HW2 5556   6.031   6.354   7.227  0.8733  0.7090 -0.1841
  590SOL     OW 5557   4.240   9.845   3.941 -0.7137 -0.0056 -0.3281
  590SOL    HW1 5558   4.278   9.775   3.887 -0.3063 -0.7395  0.8528
  590SOL    HW2 5559   4.154   9.810   3.967 -0.6564  0.0792 -0.0245
  591SOL     OW 5560   3.375   7.023   9.900 -0.2501  0.2152 -0.0528
  591SOL    HW1 5561   3.436   7.016   9.826 -1.4634 -3.5011 -0.8953
  591SOL    HW2 5562   3.290   7.039   9.859 -0.3677  2.4735  0.9287
  592SOL     OW 5563   6.434   0.565   8.241  0.1119  0.0585  0.4072
  592SOL    HW1 5564   6.500   0.506   8.278 -1.3576 -2.5316 -0.8514
  592SOL    HW2 5565   6.470   0.592   8.156  0.8510  1.2191  1.0478
  593SOL     OW 5566   4.127   1.380   0.407 -0.1383  0.4238 -0.4214
  593SOL    HW1 5567   4.074   1.459   0.400 -2.1157 -0.8327 -0.4681
  593SOL    HW2 5568   4.073   1.312   0.367  1.3949 -0.9991 -0.1526
  594SOL     OW 5569   3.979   2.567   0.839  0.4661 -0.4684 -0.0548
  594SOL    HW1 5570   3.952   2.544   0.927 -0.0590 -0.8396 -0.3069
  594SOL    HW2 5571   4.048   2.633   0.851 -1.5268  1.6207  0.6057
  595SOL     OW 5572   6.962   4.383   9.594  0.0096  0.0152 -0.2123
  595SOL    HW1 5573   6.934   4.337   9.515 -2.3072 -0.7259  0.9391
  595SOL    HW2 5574   6.897   4.359   9.660  0.4131  2.5790  1.2663
  596SOL     OW 5575   3.271   4.571   4.844 -0.1662  0.7575  0.1133
  596SOL    HW1 5576   3.248   4.539   4.757 -0.0647  0.8214  0.0617
  596SOL    HW2 5577   3.190   4.567   4.895 -0.4775  1.7143 -0.2825
  597SOL     OW 5578   5.998   8.966   0.712  1.2242  0.0540  0.1667
  597SOL    HW1 5579   5.952   9.030   0.658 -0.1792 -0.8429  0.2726
  597SOL    HW2 5580   6.088   9.000   0.716  1.4299  0.1443 -2.7795
  598SOL     OW 5581   0.191   6.995   4.340 -0.1813  0.3520  0.0467
  598SOL    HW1 5582   0.243   7.068   4.307 -0.7900 -0.3884 -2.7370
  598SOL    HW2 5583   0.211   6.922   4.282 -0.4916 -1.4335  2.0275
  599SOL     OW 5584   0.026   1.586   3.482  0.3018  0.3739  0.2710
  599SOL    HW1 5585   0.031   1.663   3.426  1.3167  1.6516  2.0240
  599SOL    HW2 5586   0.109   1.540   3.468  0.4685  0.5824  0.5759
  600SOL     OW 5587   9.677   0.425   2.014  0.0991 -0.0446  0.1299
  600SOL    HW1 5588   9.737   0.481   2.063 -0.4408  0.4602  0.2256
  600SOL    HW2 5589   9.678   0.461   1.925 -1.5245  1.2179  0.5611
  601SOL     OW 5590   5.191  10.263   3.832 -0.3763  0.0143  0.4841
  601SOL    HW1 5591   5.286  10.263   3.825 -0.3774 -1.3360  0.1556
  601SOL    HW2 5592   5.160  10.252   3.742 -0.8433  0.4891  0.5822
  602SOL     OW 5593   9.907   5.941   9.369  0.4313  0.0297 -0.0856
  602SOL    HW1 5594   9.972   5.871   9.369  2.7008  1.8750 -3.4969
  602SOL    HW2 5595   9.954   6.018   9.399 -1.3595  0.6689  1.2524
  603SOL     OW 5596   9.098   2.446   3.979 -0.4659 -0.3262 -0.2672
  603SOL    HW1 5597   9.076   2.405   3.896 -1.1894  1.1920 -0.8535
  603SOL    HW2 5598   9.096   2.374   4.042 -0.9436 -1.3147 -1.3766
  604SOL     OW 5599   8.802   3.056   2.209 -0.0137  0.3502  0.5984
  604SOL    HW1 5600   8.752   3.131   2.241 -0.8175 -1.0114  2.7928
  604SOL    HW2 5601   8.841   3.086   2.127 -4.4763  1.5301 -1.3848
  605SOL     OW 5602   9.686   2.461  10.129 -0.7372 -0.2448  0.2343
  605SOL    HW1 5603   9.700   2.543  10.175 -0.2365  1.8276 -3.2764
  605SOL    HW2 5604   9.774   2.427  10.112 -0.8825 -0.5398  0.0548
  606SOL     OW 5605   1.910   1.575   1.488  0.4339 -0.3310 -0.6030
  606SOL    HW1 5606   1.920   1.558   1.581  0.5446 -1.0760 -0.7448
  606SOL    HW2 5607   1.903   1.488   1.448  1.6082 -0.0713 -1.4187
  607SOL     OW 5608  10.246   3.433   2.592  0.2912 -0.4982 -0.2426
  607SOL    HW1 5609  10.278   3.443   2.503  0.2063 -1.2032 -0.3555
  607SOL    HW2 5610  10.154   3.459   2.588  0.1604 -0.9812 -0.4642
  608SOL     OW 5611   8.314   2.783   1.060  0.5173 -0.4906  0.4262
  608SOL    HW1 5612   8.240   2.730   1.030  2.4688 -1.1377 -3.9289
  608SOL    HW2 5613   8.289   2.873   1.038 -0.0677 -0.3041  1.7136
  609SOL     OW 5614   0.981   5.913  10.108 -0.6446  0.2451  0.6161
  609SOL    HW1 5615   0.982   5.939  10.016 -0.8580  1.3613  0.9140
  609SOL    HW2 5616   1.049   5.846  10.114 -0.0080  0.7973 -0.1801
  610SOL     OW 5617   1.675   2.914   2.856 -0.1279 -0.5948  0.7029
  610SOL    HW1 5618   1.607   2.957   2.907 -0.3119 -0.5786  0.4444
  610SOL    HW2 5619   1.686   2.969   2.779 -1.4630 -1.8133 -0.4131
  611SOL     OW 5620   6.515   0.771   7.207  0.3048  0.0385  0.2059
  611SOL    HW1 5621   6.440   0.712   7.203 -0.0758  0.4496  0.9973
  611SOL    HW2 5622   6.516   0.814   7.122 -0.9474  0.7129  0.5110
  612SOL     OW 5623   8.564   7.939   7.609  0.2851  0.1861  0.0730
  612SOL    HW1 5624   8.478   7.978   7.624  1.1534  2.6605 -0.9247
  612SOL    HW2 5625   8.562   7.910   7.518  0.3551 -0.1491  0.1786
  613SOL     OW 5626   6.521   1.135   6.861 -0.3481 -0.3144 -0.0824
  613SOL    HW1 5627   6.578   1.185   6.919 -1.1972 -0.4889  0.9358
  613SOL    HW2 5628   6.435   1.176   6.870 -0.5128 -0.3760 -1.1921
  614SOL     OW 5629   6.190   2.106   8.129 -0.0286  0.0512 -0.0297
  614SOL    HW1 5630   6.246   2.064   8.064  0.1631  2.7068 -1.7225
  614SOL    HW2 5631   6.124   2.040   8.150  0.3435 -1.1718 -2.3523
  615SOL     OW 5632   4.821   1.865   3.856  0.0197 -0.1929 -0.3302
  615SOL    HW1 5633   4.788   1.953   3.872 -1.4020 -0.7921  0.1791
  615SOL    HW2 5634   4.903   1.861   3.905 -0.5977  0.4014  0.7947
  616SOL     OW 5635   8.365   4.060   1.861 -0.1677  0.2193  0.1237
  616SOL    HW1 5636   8.413   4.002   1.801  1.1458 -0.1906  1.5195
  616SOL    HW2 5637   8.277   4.023   1.864  0.2502 -0.8422 -0.1408
  617SOL     OW 5638   9.428   2.646   9.863 -0.2488  0.1957 -0.3048
  617SOL    HW1 5639   9.339   2.650   9.899 -0.3307 -0.1699 -0.4658
  617SOL    HW2 5640   9.418   2.598   9.781  0.1355 -0.0512 -0.2064
  618SOL     OW 5641   1.149   5.275   1.782  0.1128 -0.8476  0.1988
  618SOL    HW1 5642   1.234   5.312   1.758 -0.4515  0.1224 -0.3446
  618SOL    HW2 5643   1.139   5.200   1.724  0.1555 -0.3717 -0.4306
  619SOL     OW 5644   2.521   3.188   8.440  0.3933 -0.3489 -0.6837
  619SOL    HW1 5645   2.480   3.102   8.437  0.0236 -0.2788  1.2316
  619SOL    HW2 5646   2.452   3.248   8.410 -0.7293 -0.3165  1.7684
  620SOL     OW 5647   5.539   9.217   5.437  0.2030  0.2232 -0.0579
  620SOL    HW1 5648   5.493   9.278   5.495 -1.1828 -0.9595  0.1503
  620SOL    HW2 5649   5.621   9.261   5.416 -0.3586  1.7565  0.8013
  621SOL     OW 5650   1.556   1.813   9.613 -0.2124 -0.1196  0.4519
  621SOL    HW1 5651   1.614   1.887   9.627 -1.3447  0.7792  0.5465
  621SOL    HW2 5652   1.489   1.846   9.553  0.0433 -1.4897 -0.6352
  622SOL     OW 5653   7.517   2.258   9.576  0.2686  0.2840  0.1195
  622SOL    HW1 5654   7.586   2.200   9.544  0.6582  1.5376 -1.5294
  622SOL    HW2 5655   7.506   2.322   9.505  0.2457  2.5262  2.0162
  623SOL     OW 5656   7.013   5.303   0.018  0.7327 -0.2200 -0.1758
  623SOL    HW1 5657   7.090   5.270   0.064 -0.6272 -2.0565  0.9178
  623SOL    HW2 5658   6.944   5.301   0.084 -0.9393 -1.4561 -1.8921
  624SOL     OW 5659   1.053   7.570   8.494  0.0157  0.1809  0.2236
  624SOL    HW1 5660   1.020   7.578   8.584 -0.0108  0.6718  0.1686
  624SOL    HW2 5661   0.994   7.507   8.453  1.8116 -2.4871  1.4156
  625SOL     OW 5662   2.041   8.398   1.751  0.4389 -0.3571  0.4977
  625SOL    HW1 5663   2.122   8.439   1.782  1.2587 -1.4600 -0.0958
  625SOL    HW2 5664   1.987   8.391   1.830  0.7751  0.6875  0.8414
  626SOL     OW 5665   5.532   5.552   1.262  0.0842 -0.2930 -0.2587
  626SOL    HW1 5666   5.487   5.630   1.230  0.5301  0.6438  1.3379
  626SOL    HW2 5667   5.586   5.524   1.188 -0.4619  0.6056 -1.0206
  627SOL     OW 5668   3.304   1.236   7.757 -0.0052  0.3585 -0.1749
  627SOL    HW1 5669   3.302   1.289   7.676 -0.0329 -0.2794 -0.5982
  627SOL    HW2 5670   3.397   1.220   7.772 -0.0825 -1.7462 -1.5761
  628SOL     OW 5671   4.346   7.759   9.350  0.2718 -0.5694 -0.0081
  628SOL    HW1 5672   4.422   7.798   9.309  0.5819  0.0431  1.1124
  628SOL    HW2 5673   4.382   7.691   9.407 -0.0759 -0.7365  0.0143
  629SOL     OW 5674   0.259   1.625   6.925 -0.0679  0.4298 -0.3634
  629SOL    HW1 5675   0.284   1.671   7.005  1.5464  1.2973 -1.3232
  629SOL    HW2 5676   0.342   1.595   6.887 -0.8048 -0.0334 -1.6829
  630SOL     OW 5677   2.240   5.221   1.881 -0.3314  0.1085 -0.1354
  630SOL    HW1 5678   2.330   5.246   1.859 -0.1531 -0.3920  0.0271
  630SOL    HW2 5679   2.192   5.304   1.879  0.4102  0.6046  1.1211
  631SOL     OW 5680   1.895   9.045   9.060 -0.1868 -0.3675 -0.7790
  631SOL    HW1 5681   1.919   8.952   9.051 -1.4326 -0.7430 -0.4429
  631SOL    HW2 5682   1.967   9.092   9.019  0.2604 -1.5105 -1.3626
  632SOL     OW 5683   0.913   2.399   8.522  0.6744  0.2610  0.0909
  632SOL    HW1 5684   0.923   2.330   8.588 -0.7910  0.4490  0.5723
  632SOL    HW2 5685   0.819   2.397   8.501  0.8837  1.1289 -0.9765
  633SOL     OW 5686   7.471   2.727   5.695 -0.2746 -0.2789  0.4191
  633SOL    HW1 5687   7.487   2.788   5.767 -0.2382  0.0067  0.1694
  633SOL    HW2 5688   7.554   2.725   5.646  0.1811 -1.5698  1.2041
  634SOL     OW 5689   8.654   8.354   1.714  0.4133 -0.2052  0.2120
  634SOL    HW1 5690   8.637   8.425   1.652 -0.5025 -1.4267 -0.9770
  634SOL    HW2 5691   8.750   8.351   1.722  0.4505  1.6913  0.9596
  635SOL     OW 5692   0.892   0.074   4.998  0.1155  0.3124 -0.1653
  635SOL    HW1 5693   0.877   0.003   5.059 -1.2512 -0.3937 -1.2576
  635SOL    HW2 5694   0.823   0.138   5.018  0.3752  0.6143 -0.2178
  636SOL     OW 5695   8.585   0.103   4.143 -0.3460 -0.2538  0.2208
  636SOL    HW1 5696   8.579   0.195   4.116 -2.0732 -0.0484  1.1460
  636SOL    HW2 5697   8.670   0.073   4.110  0.1225  1.5878 -0.3361
  637SOL     OW 5698   2.026   2.210   2.179  0.2428  0.0224  0.2974
  637SOL    HW1 5699   1.934   2.196   2.198  0.5108  0.4029  2.0557
  637SOL    HW2 5700   2.027   2.259   2.097 -1.0963 -0.2236  0.1175
  638SOL     OW 5701   1.207   4.142   2.926 -0.0555 -0.1392  0.4172
  638SOL    HW1 5702   1.288   4.091   2.920 -0.4229 -0.7078  0.1975
  638SOL    HW2 5703   1.210   4.202   2.852 -0.2076 -0.7105 -0.0570
  639SOL     OW 5704   3.236   9.028   3.425  0.5131  0.4690  0.1410
  639SOL    HW1 5705   3.293   9.032   3.502 -1.2280  0.6316  1.4715
  639SOL    HW2 5706   3.185   9.109   3.429  1.6032  1.3828 -2.2333
  640SOL     OW 5707   5.533   6.419   0.946 -0.3675  0.6541  0.4068
  640SOL    HW1 5708   5.612   6.462   0.977 -0.4186  0.5349  0.7004
  640SOL    HW2 5709   5.466   6.488   0.948 -0.2967  0.7285  0.2511
  641SOL     OW 5710   6.157   7.126   3.023  0.4144 -0.0577 -0.4735
  641SOL    HW1 5711   6.145   7.142   3.117  1.8243  1.1649 -0.4640
  641SOL    HW2 5712   6.098   7.187   2.980  0.5496  0.1467 -0.3726
  642SOL     OW 5713   7.937   7.569  10.186 -0.6542  0.7541 -0.3044
  642SOL    HW1 5714   8.010   7.536  10.238 -1.1302  0.0967 -0.0354
  642SOL    HW2 5715   7.969   7.567  10.096 -0.9864 -1.4709 -0.4438
  643SOL     OW 5716   6.610   8.500   6.737 -0.6046  0.0246  0.4137
  643SOL    HW1 5717   6.546   8.565   6.765 -0.6697  0.5228 -0.8374
  643SOL    HW2 5718   6.649   8.468   6.819 -1.9666  0.1862  1.1651
  644SOL     OW 5719   7.176   0.259   2.950 -0.1678 -0.3155  0.1972
  644SOL    HW1 5720   7.134   0.197   3.009 -1.1875 -1.4980 -1.6644
  644SOL    HW2 5721   7.138   0.240   2.864  0.5799  1.9095 -0.7152
  645SOL     OW 5722   2.100   4.527   5.730  0.3020 -0.0036 -1.1553
  645SOL    HW1 5723   2.118   4.452   5.786  1.3465  0.0980 -1.3324
  645SOL    HW2 5724   2.158   4.596   5.763 -1.2249  1.0085 -0.4632
  646SOL     OW 5725   2.279   6.185   5.651  0.8152  0.2496 -0.6004
  646SOL    HW1 5726   2.321   6.151   5.572 -1.3268  0.6003 -1.9910
  646SOL    HW2 5727   2.221   6.254   5.619 -0.7948 -0.2062  1.1600
  647SOL     OW 5728   8.068   7.146   2.284  0.4632 -0.9736 -0.1574
  647SOL    HW1 5729   8.034   7.136   2.373 -0.8934  3.8035  0.1381
  647SOL    HW2 5730   7.998   7.112   2.228 -0.7844  0.1873  0.6184
  648SOL     OW 5731   1.063   1.295   1.974  0.5435  0.6840  0.3674
  648SOL    HW1 5732   1.056   1.200   1.965 -0.8892  0.8591 -0.7094
  648SOL    HW2 5733   1.090   1.325   1.888 -1.6186  1.4314 -0.1144
  649SOL     OW 5734   2.156   1.274   6.439 -0.4664  0.2084  0.0342
  649SOL    HW1 5735   2.148   1.195   6.385 -0.7986  0.7675 -0.7532
  649SOL    HW2 5736   2.173   1.344   6.376  1.0192  0.5994  0.8298
  650SOL     OW 5737   2.733   2.323   8.660 -0.6275  0.1607 -0.1376
  650SOL    HW1 5738   2.826   2.336   8.675 -0.4824 -0.0389 -0.8062
  650SOL    HW2 5739   2.720   2.229   8.670 -0.5895  0.0716 -0.8864
  651SOL     OW 5740   5.203   4.505   3.579 -0.0187 -0.2057  0.0466
  651SOL    HW1 5741   5.233   4.584   3.533 -1.1068  0.9069  1.1872
  651SOL    HW2 5742   5.112   4.523   3.603  0.2079 -1.1146  1.7886
  652SOL     OW 5743   4.098   5.382   3.528  0.4169 -0.2039 -0.0912
  652SOL    HW1 5744   4.142   5.301   3.503  0.2325  0.1393 -1.7002
  652SOL    HW2 5745   4.149   5.451   3.485 -0.0011  0.4407  0.4347
  653SOL     OW 5746   3.334   7.410   9.324  0.0924 -0.0947 -0.1613
  653SOL    HW1 5747   3.376   7.335   9.366 -1.3596 -0.5022  0.6287
  653SOL    HW2 5748   3.284   7.372   9.252 -0.3477  0.1503  0.0123
  654SOL     OW 5749   4.862   5.893   4.550 -0.0280 -0.6608 -0.0759
  654SOL    HW1 5750   4.913   5.975   4.547  1.2162 -1.3939  0.0933
  654SOL    HW2 5751   4.773   5.919   4.527  0.4472  0.6630 -0.5266
  655SOL     OW 5752   1.045   0.807   2.151  0.0107 -0.3803  0.0715
  655SOL    HW1 5753   1.041   0.891   2.196 -0.2165  0.5167 -1.5811
  655SOL    HW2 5754   0.964   0.762   2.177  0.3311 -0.2847  1.2839
  656SOL     OW 5755   6.423   7.201   1.257  0.0921  0.2193 -0.4055
  656SOL    HW1 5756   6.395   7.218   1.167  0.9307  1.5712 -0.4455
  656SOL    HW2 5757   6.446   7.288   1.292  0.3417 -0.3477  0.9228
  657SOL     OW 5758   2.022   1.643   7.180  1.0163 -0.0469  0.3836
  657SOL    HW1 5759   2.096   1.684   7.137  1.3251 -0.8630  0.1246
  657SOL    HW2 5760   1.990   1.578   7.117 -1.4290  1.8829 -0.5379
  658SOL     OW 5761   2.791   5.315   6.860 -0.2262 -0.4968  0.4254
  658SOL    HW1 5762   2.722   5.348   6.803 -0.6297 -1.1676  0.5053
  658SOL    HW2 5763   2.744   5.262   6.925  0.3052 -0.4418  0.8620
  659SOL     OW 5764  10.270   9.630   6.927  0.5586 -0.0357 -0.2687
  659SOL    HW1 5765  10.356   9.653   6.893  0.1926  3.0892  0.6106
  659SOL    HW2 5766  10.286   9.600   7.017  0.8429 -1.2826 -0.7126
  660SOL     OW 5767  10.155  10.178   1.643  0.3497 -0.3547  0.3503
  660SOL    HW1 5768  10.223  10.207   1.704  0.4822  0.9996 -0.4040
  660SOL    HW2 5769  10.077  10.171   1.697  1.1240 -2.3278  1.3184
  661SOL     OW 5770   2.340   6.020  10.112 -0.2927 -0.2607 -0.0050
  661SOL    HW1 5771   2.259   6.008  10.162 -1.9580  0.4659 -2.3500
  661SOL    HW2 5772   2.393   5.944  10.135 -0.3650  0.6148  3.7141
  662SOL     OW 5773   2.779   8.369   5.244 -0.4421 -0.0237  0.4600
  662SOL    HW1 5774   2.778   8.351   5.150 -0.6280 -1.3033  0.6856
  662SOL    HW2 5775   2.767   8.464   5.251 -0.4169  0.0829 -0.7999
  663SOL     OW 5776   7.238   1.667   0.421  0.2220  0.1126 -0.4441
  663SOL    HW1 5777   7.280   1.613   0.487  0.7135 -0.0906 -0.9232
  663SOL    HW2 5778   7.160   1.702   0.465 -2.3884 -4.0357 -1.1979
  664SOL     OW 5779   8.476   2.430   0.207  0.6813  0.0110  0.3736
  664SOL    HW1 5780   8.425   2.493   0.258  1.4212 -0.1143  1.2841
  664SOL    HW2 5781   8.449   2.345   0.241  1.5285 -0.0556  0.8977
  665SOL     OW 5782   2.863   0.299  10.055 -0.5494  0.0904  0.4477
  665SOL    HW1 5783   2.945   0.272  10.095  0.2012  1.9176  0.2143
  665SOL    HW2 5784   2.808   0.220  10.058  1.6227 -1.5847 -0.5546
  666SOL     OW 5785   9.349   1.324  10.030 -0.4978  0.5737 -0.0759
  666SOL    HW1 5786   9.426   1.299  10.081 -0.3042  0.0653 -0.6053
  666SOL    HW2 5787   9.275   1.313  10.089 -0.3781 -0.8808 -0.1623
  667SOL     OW 5788   4.291   7.665   4.516 -0.0904  0.2287 -0.8800
  667SOL    HW1 5789   4.309   7.727   4.446  0.8365 -0.1103 -0.9646
  667SOL    HW2 5790   4.328   7.582   4.484  4.2196  0.8892  1.6225
  668SOL     OW 5791   5.293   7.994   4.210 -0.2101  0.3964 -0.0886
  668SOL    HW1 5792   5.321   8.062   4.149 -1.9426  0.0884 -1.3135
  668SOL    HW2 5793   5.343   8.011   4.290  2.1631  0.7959 -1.5679
  669SOL     OW 5794   7.694   4.220   0.860 -0.2334  0.2332 -0.0233
  669SOL    HW1 5795   7.613   4.208   0.810 -0.2818  0.9921 -0.1472
  669SOL    HW2 5796   7.744   4.285   0.809 -0.9330  2.1860  1.6465
  670SOL     OW 5797   1.665   8.277   6.594 -0.1189  0.5151  0.6445
  670SOL    HW1 5798   1.711   8.245   6.672  1.3632 -1.1279 -0.8424
  670SOL    HW2 5799   1.579   8.303   6.627  0.1466 -0.9390  2.6942
  671SOL     OW 5800   4.141   2.982   0.038  0.3173  0.1468 -0.5633
  671SOL    HW1 5801   4.163   2.910   0.096  0.9571  1.2876  0.6475
  671SOL    HW2 5802   4.131   2.941  -0.048 -0.9545 -1.6239  0.3673
  672SOL     OW 5803   6.406   2.629   5.400 -0.3106 -0.1960  0.7384
  672SOL    HW1 5804   6.349   2.555   5.380 -1.7114  1.2922 -1.1523
  672SOL    HW2 5805   6.351   2.706   5.387  1.6829  1.2717  0.4962
  673SOL     OW 5806   6.211   6.685   1.918 -0.1582 -0.1865 -0.3121
  673SOL    HW1 5807   6.168   6.699   2.002 -1.5343 -1.3529 -0.7799
  673SOL    HW2 5808   6.258   6.602   1.929 -0.4335 -0.4003 -0.7210
  674SOL     OW 5809   2.895   8.381   9.643 -0.6408 -0.6833  0.3405
  674SOL    HW1 5810   2.819   8.322   9.642 -0.8828 -0.3752  0.5692
  674SOL    HW2 5811   2.868   8.456   9.591  0.6274 -1.9344 -2.3285
  675SOL     OW 5812   9.606   8.504   7.417 -0.5880 -0.0465  0.2678
  675SOL    HW1 5813   9.562   8.589   7.409 -0.8671 -0.2890 -1.1343
  675SOL    HW2 5814   9.561   8.461   7.489 -1.9303  0.1675 -0.3888
  676SOL     OW 5815   4.835   7.991   0.855  0.2102 -0.1332 -0.0495
  676SOL    HW1 5816   4.876   8.046   0.921 -0.1024  1.4034 -1.0746
  676SOL    HW2 5817   4.903   7.929   0.830  1.5049  1.4647 -0.7016
  677SOL     OW 5818   4.988   4.121  10.191  0.1920 -0.2167  0.2253
  677SOL    HW1 5819   4.986   4.201  10.139  0.7002 -0.4350 -0.1426
  677SOL    HW2 5820   5.034   4.058  10.136  2.2119  0.0114  1.5389
  678SOL     OW 5821   9.539   5.487   1.505 -0.3800  0.4984 -0.5443
  678SOL    HW1 5822   9.482   5.469   1.580  0.0093  0.6449 -0.2038
  678SOL    HW2 5823   9.519   5.577   1.481 -0.0611  0.6669 -0.2064
  679SOL     OW 5824   9.089   4.363   3.318 -0.4725  0.5619 -0.0571
  679SOL    HW1 5825   9.033   4.312   3.377 -0.6905  0.8593 -0.0002
  679SOL    HW2 5826   9.174   4.365   3.362  0.1805 -1.6196 -1.1170
  680SOL     OW 5827   9.111   0.610   8.600 -0.6844  0.6160  0.0482
  680SOL    HW1 5828   9.143   0.549   8.534 -0.7885 -0.1603  0.6969
  680SOL    HW2 5829   9.181   0.615   8.665 -0.5970  1.3382 -0.0958
  681SOL     OW 5830   2.311   5.105   5.870 -0.3228  0.1409  0.5327
  681SOL    HW1 5831   2.338   5.195   5.850 -2.1421  0.3465 -1.4370
  681SOL    HW2 5832   2.229   5.115   5.918 -1.3039 -0.3995 -0.9447
  682SOL     OW 5833   5.055   2.938   5.500  0.0064 -0.2038 -0.1433
  682SOL    HW1 5834   5.034   2.985   5.580  1.3366  0.0472  0.0833
  682SOL    HW2 5835   5.150   2.942   5.494  0.0416 -1.5765 -0.9115
  683SOL     OW 5836   3.094  10.168   9.279  0.5276  0.1602  0.4199
  683SOL    HW1 5837   3.145  10.189   9.200 -1.6393 -1.7926 -1.6789
  683SOL    HW2 5838   3.021  10.230   9.277  0.2653 -0.1405  0.7062
  684SOL     OW 5839   7.779   3.185   4.093  0.0377 -0.6368 -0.3281
  684SOL    HW1 5840   7.856   3.127   4.092  0.1001 -0.5510 -0.7860
  684SOL    HW2 5841   7.759   3.196   4.186 -0.6878 -2.3294 -0.2461
  685SOL     OW 5842   4.319   8.722   8.758 -0.5473  0.0473  0.0849
  685SOL    HW1 5843   4.272   8.687   8.833  1.9420  3.0750  3.4030
  685SOL    HW2 5844   4.394   8.665   8.747 -2.1566 -1.8830 -2.0042
  686SOL     OW 5845   1.670   4.736   5.110  0.6684 -0.1391 -0.2238
  686SOL    HW1 5846   1.584   4.762   5.143 -0.0848 -0.3006 -1.9285
  686SOL    HW2 5847   1.660   4.738   5.014  2.1858 -1.3829 -0.4433
  687SOL     OW 5848   4.299   3.193   7.249 -0.4079  0.2275  0.0349
  687SOL    HW1 5849   4.256   3.272   7.216 -1.5043 -0.4431 -0.1867
  687SOL    HW2 5850   4.306   3.207   7.343 -3.0192 -0.4949  0.4023
  688SOL     OW 5851   2.482   5.666   3.242  0.1669 -0.5928 -0.1711
  688SOL    HW1 5852   2.535   5.624   3.310  0.5753  0.3912  0.1373
  688SOL    HW2 5853   2.400   5.616   3.242  0.7421 -1.5700 -0.0355
  689SOL     OW 5854   2.446   6.099   5.444  0.0802 -0.3186  0.3569
  689SOL    HW1 5855   2.528   6.148   5.448 -0.6476  0.9652  0.1094
  689SOL    HW2 5856   2.441   6.068   5.354 -0.7148  1.5058 -0.2986
  690SOL     OW 5857   9.574   5.678   9.477 -0.0650 -0.4536 -0.3629
  690SOL    HW1 5858   9.609   5.766   9.480 -1.2799  0.0481 -0.2089
  690SOL    HW2 5859   9.602   5.638   9.560  1.6434 -0.7065 -1.0239
  691SOL     OW 5860   4.477   2.977   4.876  0.8580 -0.4075  0.1667
  691SOL    HW1 5861   4.441   3.062   4.903 -2.2730 -2.2246  2.4245
  691SOL    HW2 5862   4.541   2.955   4.944  1.3487 -0.0816 -0.1826
  692SOL     OW 5863   6.465   4.115   1.555  0.4282  0.3417  0.2576
  692SOL    HW1 5864   6.406   4.185   1.580 -0.6887 -0.7020  0.6173
  692SOL    HW2 5865   6.547   4.134   1.601 -0.0579  1.0660  0.8320
  693SOL     OW 5866   0.265   9.956   2.042  0.1464  1.0362  0.4808
  693SOL    HW1 5867   0.315   9.965   1.961  0.3856 -0.5182  0.4148
  693SOL    HW2 5868   0.233  10.044   2.061  2.5889  2.0385  0.3377
  694SOL     OW 5869   3.420   9.067   1.741 -0.1274  0.3366 -0.0746
  694SOL    HW1 5870   3.430   8.984   1.788  0.0379  0.2473 -0.2665
  694SOL    HW2 5871   3.343   9.054   1.686  0.9563 -0.3592 -1.4962
  695SOL     OW 5872   9.622   7.882   9.899 -0.5262 -0.0002  0.0121
  695SOL    HW1 5873   9.673   7.949   9.854  2.2567 -0.6174  2.0063
  695SOL    HW2 5874   9.564   7.931   9.957 -1.9245  0.7021 -1.8796
  696SOL     OW 5875   3.630   4.726   3.908  0.4153  0.2313 -0.1999
  696SOL    HW1 5876   3.666   4.736   3.820  0.5173  2.3208  0.0399
  696SOL    HW2 5877   3.551   4.781   3.908  0.1805 -0.0783  0.8807
  697SOL     OW 5878   8.532   1.672   3.709 -0.1160 -0.0415  0.0165
  697SOL    HW1 5879   8.526   1.670   3.804 -1.0327  1.2259  0.0210
  697SOL    HW2 5880   8.595   1.741   3.690 -0.3046  0.0542 -0.2899
  698SOL     OW 5881   0.198   6.762   9.910 -0.4199  0.2425 -0.5620
  698SOL    HW1 5882   0.247   6.833   9.869 -0.8849  0.5567 -0.5788
  698SOL    HW2 5883   0.120   6.804   9.947  0.7620  0.2548  2.1167
  699SOL     OW 5884   1.955  10.133   8.750  0.0973 -0.0094  0.5471
  699SOL    HW1 5885   1.914  10.162   8.669  0.5571  1.5871  0.8311
  699SOL    HW2 5886   1.886  10.086   8.796 -0.1566 -0.9643 -0.7641
  700SOL     OW 5887   5.494   6.720   8.813  0.2160 -0.3206 -0.3027
  700SOL    HW1 5888   5.556   6.778   8.767  0.7355 -1.6501 -1.3373
  700SOL    HW2 5889   5.413   6.728   8.763  0.1649 -0.1602 -0.1935
  701SOL     OW 5890   7.097   0.391   0.341 -0.0797 -0.4440 -0.4116
  701SOL    HW1 5891   7.156   0.425   0.273  1.4676 -0.2561  0.9705
  701SOL    HW2 5892   7.132   0.426   0.423 -2.4974  0.1746  0.4435
  702SOL     OW 5893   2.981   8.885   8.690  0.4111  0.0530  0.4005
  702SOL    HW1 5894   3.007   8.850   8.775 -1.0698  1.2783  1.4038
  702SOL    HW2 5895   2.886   8.898   8.697  0.0266 -0.9909 -1.8837
  703SOL     OW 5896   6.955  10.116   3.840  0.6939 -1.0477 -0.4925
  703SOL    HW1 5897   6.948  10.211   3.851 -0.9261 -1.0730 -1.0616
  703SOL    HW2 5898   6.994  10.085   3.922 -2.1532 -0.2531  1.3128
  704SOL     OW 5899   6.243   2.405   1.860 -0.1360 -0.6146 -0.0578
  704SOL    HW1 5900   6.192   2.403   1.941 -0.0119 -0.5582  0.0203
  704SOL    HW2 5901   6.195   2.466   1.803 -0.6247 -1.2068 -0.2895
  705SOL     OW 5902   4.629   5.034   6.394  0.2674 -0.1411  0.3933
  705SOL    HW1 5903   4.633   4.946   6.433  1.1387 -0.7060 -0.9021
  705SOL    HW2 5904   4.673   5.090   6.457  0.3887 -0.7739  0.8875
  706SOL     OW 5905   7.011   6.612   7.488 -0.6659 -0.4197  0.5385
  706SOL    HW1 5906   6.952   6.579   7.420 -0.9303  0.9254  0.0898
  706SOL    HW2 5907   7.013   6.542   7.553 -1.0763 -1.3841 -0.4433
  707SOL     OW 5908   9.400   9.252   1.127  0.3433 -0.2634  0.3538
  707SOL    HW1 5909   9.392   9.219   1.037 -0.2451 -4.4392  1.7349
  707SOL    HW2 5910   9.492   9.274   1.136  0.9937 -2.3202 -0.5805
  708SOL     OW 5911   2.975   4.609   2.571  0.0217  0.0850  0.4040
  708SOL    HW1 5912   3.018   4.687   2.536  0.2667  0.2135  0.9836
  708SOL    HW2 5913   2.904   4.591   2.510 -0.0995  0.8174  0.3267
  709SOL     OW 5914   3.476   3.520   6.895  0.0333 -0.1056 -0.4674
  709SOL    HW1 5915   3.558   3.563   6.870  0.0581  0.3337  0.3176
  709SOL    HW2 5916   3.504   3.438   6.936  0.2091  0.7861  1.3136
  710SOL     OW 5917   5.996   5.317   5.235  0.4907 -0.9221  0.5587
  710SOL    HW1 5918   6.065   5.350   5.293  0.6910 -0.8331  0.2743
  710SOL    HW2 5919   5.915   5.351   5.273  0.7857  1.1851 -0.5266
  711SOL     OW 5920   8.391   2.759   7.908  0.3939 -0.0869 -0.1024
  711SOL    HW1 5921   8.365   2.844   7.873  1.8946  0.2465 -0.4725
  711SOL    HW2 5922   8.337   2.696   7.859  0.3557  0.5578 -0.9174
  712SOL     OW 5923   4.794   3.810   9.965 -0.2019 -0.1395  0.9977
  712SOL    HW1 5924   4.843   3.728   9.973  0.1455  0.1363  1.7384
  712SOL    HW2 5925   4.746   3.801   9.883  2.1627  0.1305 -0.5151
  713SOL     OW 5926   2.991   9.184   4.010  0.1092 -0.3524  0.0661
  713SOL    HW1 5927   3.080   9.148   4.005  0.7595  1.1312  0.3800
  713SOL    HW2 5928   2.938   9.111   4.043  1.1072 -1.4022 -0.5645
  714SOL     OW 5929   4.007   8.894  10.251 -0.4063  0.4425 -0.3475
  714SOL    HW1 5930   4.020   8.956  10.180 -1.2734 -0.6420 -1.4960
  714SOL    HW2 5931   3.912   8.886  10.260 -0.3051  0.2239  0.6294
  715SOL     OW 5932   3.508   4.722   8.942 -1.2068  0.4181  0.5325
  715SOL    HW1 5933   3.554   4.756   8.865 -0.2732 -0.4316  0.6931
  715SOL    HW2 5934   3.450   4.655   8.907  1.4509 -2.2338  0.7810
  716SOL     OW 5935   5.929   5.644   9.856 -0.1455  0.2808  0.9406
  716SOL    HW1 5936   5.868   5.670   9.787  1.2344 -1.6294 -1.1639
  716SOL    HW2 5937   5.980   5.573   9.816  4.3477  2.5454  2.0518
  717SOL     OW 5938   3.713   6.299   1.692  0.6883 -0.3434  0.4060
  717SOL    HW1 5939   3.758   6.315   1.775  0.3378  2.4662  0.1309
  717SOL    HW2 5940   3.621   6.287   1.717  0.6199  0.2526  0.4388
  718SOL     OW 5941   2.043   3.521   2.438  0.0512 -0.4444  0.3558
  718SOL    HW1 5942   2.028   3.594   2.378  1.1412 -1.9555 -1.8748
  718SOL    HW2 5943   2.120   3.548   2.489  0.3664  0.0304 -0.3556
  719SOL     OW 5944   3.743   3.274   9.945 -0.3912  0.0252 -0.1601
  719SOL    HW1 5945   3.714   3.358   9.980 -1.7103 -0.9526  1.1922
  719SOL    HW2 5946   3.835   3.288   9.922 -0.5325  1.7677  0.2109
  720SOL     OW 5947   7.244   7.992   0.481  0.1438 -0.1883  0.2293
  720SOL    HW1 5948   7.331   8.013   0.446  0.3935 -0.6362  0.5609
  720SOL    HW2 5949   7.228   8.059   0.548  1.1583 -1.2887  1.6489
  721SOL     OW 5950   9.717   5.015   8.635  0.2459 -0.0252 -0.0527
  721SOL    HW1 5951   9.640   5.017   8.579 -0.7467 -0.7272  1.2377
  721SOL    HW2 5952   9.741   4.922   8.639  1.3604  0.2106 -0.6644
  722SOL     OW 5953   9.142   3.907   7.454 -0.0377 -0.2672  0.1744
  722SOL    HW1 5954   9.168   3.983   7.507  0.7082 -0.7254  0.4834
  722SOL    HW2 5955   9.221   3.884   7.406  0.1073 -1.5918  0.9944
  723SOL     OW 5956   0.586   0.794   0.589 -0.3844  0.0217  0.0422
  723SOL    HW1 5957   0.667   0.770   0.546 -0.4559 -2.2479  1.0537
  723SOL    HW2 5958   0.525   0.722   0.568 -1.1710  0.1301  1.8058
  724SOL     OW 5959   5.833   0.668   7.722  0.1044 -0.3658 -0.2065
  724SOL    HW1 5960   5.798   0.688   7.809  2.0316 -0.7493  0.7189
  724SOL    HW2 5961   5.928   0.664   7.735  0.5180  0.5284 -2.5405
  725SOL     OW 5962   3.983   6.563   3.490 -0.0257 -0.1653  0.0693
  725SOL    HW1 5963   4.061   6.609   3.458  2.4289 -2.3732  2.4233
  725SOL    HW2 5964   3.930   6.632   3.531  1.2790  1.2311 -0.5077
  726SOL     OW 5965   4.060   1.668   0.750 -0.4037  0.1435 -0.2242
  726SOL    HW1 5966   4.151   1.682   0.774  0.0859 -1.3509 -1.0561
  726SOL    HW2 5967   4.035   1.587   0.796 -1.1469  0.2747 -0.3814
  727SOL     OW 5968   0.214   8.107   9.499  0.1058 -0.7723 -0.0499
  727SOL    HW1 5969   0.166   8.179   9.458  0.2475 -0.9031 -0.4528
  727SOL    HW2 5970   0.226   8.135   9.590  1.8164  0.5849 -0.6264
  728SOL     OW 5971   7.132   2.776   0.927  0.0907  0.0538 -0.0133
  728SOL    HW1 5972   7.144   2.686   0.897 -0.4858 -0.4134  1.0968
  728SOL    HW2 5973   7.182   2.829   0.865 -1.1658 -0.8324 -1.8910
  729SOL     OW 5974  10.318   2.999   5.906  0.5805 -0.0804  0.1559
  729SOL    HW1 5975  10.295   2.943   5.832  3.0345 -0.2496 -0.5859
  729SOL    HW2 5976  10.330   3.086   5.867  0.5288  0.1333  0.6126
  730SOL     OW 5977   6.574   8.949   0.105  0.7768 -0.3043 -0.9918
  730SOL    HW1 5978   6.559   8.988   0.019 -2.4177 -0.5142 -0.6610
  730SOL    HW2 5979   6.606   9.022   0.159  2.8416 -0.1811 -2.2943
  731SOL     OW 5980   6.035   0.738   9.757 -0.2624 -0.1239 -0.2148
  731SOL    HW1 5981   5.991   0.656   9.780  0.2694 -0.3563 -0.0188
  731SOL    HW2 5982   6.096   0.754   9.829  1.2925 -0.7555 -1.3385
  732SOL     OW 5983   1.623   4.552   8.729  0.4703 -0.5519  0.2405
  732SOL    HW1 5984   1.684   4.625   8.725 -0.3933  0.1790  0.2760
  732SOL    HW2 5985   1.646   4.506   8.810  1.1389 -0.4317  0.1173
  733SOL     OW 5986  10.303   0.111   2.134  0.5994 -0.2991 -0.1267
  733SOL    HW1 5987  10.304   0.163   2.053 -0.5896  0.7190  0.4781
  733SOL    HW2 5988  10.346   0.167   2.199  0.1590 -0.4593  0.3089
  734SOL     OW 5989   9.969   5.487   5.726  0.3287  0.2622 -0.1809
  734SOL    HW1 5990   9.887   5.455   5.689 -0.0733  0.5793  0.4132
  734SOL    HW2 5991   9.942   5.553   5.790  1.0635  0.5719 -0.1863
  735SOL     OW 5992   0.978   2.590   6.545 -0.6761 -0.1346  0.3975
  735SOL    HW1 5993   0.972   2.593   6.449 -0.3691 -0.5838  0.3640
  735SOL    HW2 5994   1.008   2.502   6.565 -3.5415 -1.0628  1.0625
  736SOL     OW 5995  10.281   1.757   3.642  0.1093  0.6465  0.1398
  736SOL    HW1 5996  10.311   1.688   3.584  0.1922  0.7165  0.0988
  736SOL    HW2 5997  10.262   1.713   3.725 -2.0884  0.1579 -0.5493
  737SOL     OW 5998   0.155   7.608   3.584 -0.4370 -0.1728 -0.8647
  737SOL    HW1 5999   0.238   7.592   3.629 -2.5914 -0.6827  3.3163
  737SOL    HW2 6000   0.160   7.700   3.558  1.1998 -0.0411 -0.2111
  738SOL     OW 6001   1.552   4.540   8.354 -0.0700 -0.2917  0.0873
  738SOL    HW1 6002   1.600   4.605   8.405 -0.4011 -0.6363  0.8564
  738SOL    HW2 6003   1.467   4.534   8.397 -1.1770  0.9632 -1.7846
  739SOL     OW 6004   2.491   2.306   3.312  0.1374 -0.0946  0.7211
  739SOL    HW1 6005   2.430   2.290   3.385  0.1371  1.1628  1.0321
  739SOL    HW2 6006   2.474   2.397   3.288  1.2723 -0.0100  0.2076
  740SOL     OW 6007   5.507   4.878   3.667  0.3794 -0.4993  0.2108
  740SOL    HW1 6008   5.555   4.959   3.650 -0.5034 -0.0197 -0.0154
  740SOL    HW2 6009   5.421   4.907   3.697 -0.3925 -1.3512 -1.1261
  741SOL     OW 6010   5.313  10.187   6.346 -0.1892 -0.1734  0.4817
  741SOL    HW1 6011   5.299  10.094   6.329 -1.8567  0.1275 -0.0077
  741SOL    HW2 6012   5.279  10.231   6.268 -0.2311  0.8782  1.0702
  742SOL     OW 6013   2.007   8.916   1.084 -0.2918 -0.1050  0.1604
  742SOL    HW1 6014   2.098   8.921   1.055 -0.1246 -0.4144  0.6127
  742SOL    HW2 6015   2.009   8.950   1.174 -0.4619 -1.0098  0.5084
  743SOL     OW 6016  10.156   0.485   1.443  0.5842  0.3495 -0.5748
  743SOL    HW1 6017  10.154   0.577   1.414 -2.1685  1.0863  1.5458
  743SOL    HW2 6018  10.080   0.445   1.402  0.3472 -0.3046  0.4637
  744SOL     OW 6019   8.724   3.403   7.354 -0.1545  0.4690 -0.4133
  744SOL    HW1 6020   8.810   3.441   7.370  0.0275 -0.6816  1.7021
  744SOL    HW2 6021   8.663   3.460   7.400 -0.5192  1.0529 -1.5710
  745SOL     OW 6022   2.039   6.275   1.059 -0.0291  0.3690 -1.0276
  745SOL    HW1 6023   1.964   6.215   1.057 -0.4913  0.9353 -2.5445
  745SOL    HW2 6024   2.094   6.246   0.986  1.4186 -0.2274  0.2576
  746SOL     OW 6025   5.103   8.591  10.148 -0.2522 -0.0086 -0.2690
  746SOL    HW1 6026   5.172   8.653  10.170 -0.0169  0.4729 -2.1335
  746SOL    HW2 6027   5.147   8.523  10.097 -0.9233 -0.3620 -0.3920
  747SOL     OW 6028   5.128   9.539   3.252  0.1149  0.4808  0.4671
  747SOL    HW1 6029   5.098   9.619   3.207  3.7448  1.3633 -0.7496
  747SOL    HW2 6030   5.130   9.563   3.345  1.0981  1.8339  0.1232
  748SOL     OW 6031   4.278   6.326   4.816 -0.1496 -0.2398  0.9219
  748SOL    HW1 6032   4.224   6.292   4.744  1.1668 -0.7743  0.1419
  748SOL    HW2 6033   4.218   6.378   4.869 -1.1870  0.0639 -0.5006
  749SOL     OW 6034   5.827   1.616   1.819  0.2293  0.3161  0.7289
  749SOL    HW1 6035   5.768   1.644   1.749  1.8712  1.6662 -0.1856
  749SOL    HW2 6036   5.854   1.527   1.793 -0.3472  0.2154  0.4596
  750SOL     OW 6037   3.279   1.984   0.408  0.0596  0.1823 -0.4637
  750SOL    HW1 6038   3.203   1.957   0.459 -0.4779 -0.8635 -1.7802
  750SOL    HW2 6039   3.311   2.063   0.453 -0.7822 -0.3127  1.0777
  751SOL     OW 6040   1.416   5.357   1.411  0.0572 -0.2391  0.0427
  751SOL    HW1 6041   1.365   5.276   1.402 -0.2154  0.0923 -1.6910
  751SOL    HW2 6042   1.369   5.408   1.477 -1.3887 -0.3056 -0.9024
  752SOL     OW 6043   9.559   8.762   5.745  0.1184  0.2220  0.6005
  752SOL    HW1 6044   9.562   8.666   5.751  1.2426  0.2197  0.3205
  752SOL    HW2 6045   9.650   8.787   5.731 -0.2833  1.2667 -0.2777
  753SOL     OW 6046   6.652   1.595   7.609 -0.3421 -0.4864  0.1725
  753SOL    HW1 6047   6.595   1.651   7.660  0.2041  0.7829 -0.5485
  753SOL    HW2 6048   6.701   1.655   7.553  0.1190 -1.7048 -0.7948
  754SOL     OW 6049   9.798   6.583   9.158  0.6389  0.2027  0.0088
  754SOL    HW1 6050   9.756   6.503   9.126 -0.4837  0.8071 -0.0741
  754SOL    HW2 6051   9.745   6.609   9.234 -0.3109  2.0083 -1.2127
  755SOL     OW 6052   5.271   4.436   0.728 -0.2313 -0.2791  0.2763
  755SOL    HW1 6053   5.321   4.517   0.731 -0.0202 -0.3780 -0.4279
  755SOL    HW2 6054   5.268   4.413   0.636 -1.6160 -0.2592  0.2970
  756SOL     OW 6055   9.686   7.339   1.200 -0.1571 -0.2819 -0.2095
  756SOL    HW1 6056   9.717   7.424   1.168 -0.2011 -0.1614  0.0679
  756SOL    HW2 6057   9.637   7.302   1.126 -0.3546  0.0450 -0.2439
  757SOL     OW 6058   0.694   3.896   1.590 -0.0527 -0.1193 -0.1160
  757SOL    HW1 6059   0.784   3.865   1.596 -0.2765 -0.8018 -0.1823
  757SOL    HW2 6060   0.697   3.967   1.526  0.5959  0.4991  0.5797
  758SOL     OW 6061   4.413   3.621   7.760 -0.4562 -0.3820  0.5203
  758SOL    HW1 6062   4.481   3.648   7.699  0.1877 -1.3263  0.7900
  758SOL    HW2 6063   4.443   3.652   7.845 -0.5521 -0.4677  0.5859
  759SOL     OW 6064   2.627   3.242   6.907  0.1131  0.6767 -0.4346
  759SOL    HW1 6065   2.655   3.154   6.880  0.2172  0.1862  1.1661
  759SOL    HW2 6066   2.538   3.229   6.940  0.9746  0.6648  2.0693
  760SOL     OW 6067   2.636   1.317   2.761 -0.2316 -0.6031  0.0469
  760SOL    HW1 6068   2.690   1.376   2.813 -0.5704 -0.7779  0.6061
  760SOL    HW2 6069   2.547   1.351   2.769 -0.3435 -0.8541 -0.1001
  761SOL     OW 6070   8.506   4.017   2.646 -0.0258  0.3146 -0.4839
  761SOL    HW1 6071   8.512   4.034   2.740 -0.8322  0.0206 -0.3724
  761SOL    HW2 6072   8.580   4.064   2.608 -1.3291  2.8681 -0.0431
  762SOL     OW 6073   2.034   8.161   8.401 -0.4525 -1.0016 -0.3248
  762SOL    HW1 6074   1.990   8.076   8.394 -2.5926 -0.0481  0.5659
  762SOL    HW2 6075   1.963   8.225   8.394  0.3712  0.6190  3.6103
  763SOL     OW 6076   5.400   1.236   6.047  0.2726  0.8531 -0.1416
  763SOL    HW1 6077   5.473   1.213   5.989 -0.0582 -0.5982 -0.0222
  763SOL    HW2 6078   5.326   1.183   6.015 -0.8877  2.6565 -0.5654
  764SOL     OW 6079   9.844   1.248   8.265 -0.0751  0.0552 -0.1259
  764SOL    HW1 6080   9.761   1.292   8.248  1.1807  1.6602 -2.9383
  764SOL    HW2 6081   9.833   1.161   8.227 -1.3036 -0.7922  2.0138
  765SOL     OW 6082   5.029   8.566   1.319  0.1250  0.1616 -0.4036
  765SOL    HW1 6083   5.115   8.604   1.301 -0.9252  1.5900 -2.9749
  765SOL    HW2 6084   4.989   8.555   1.232 -1.1074 -3.4672  0.4561
  766SOL     OW 6085   4.995   9.302   0.493  0.3832 -0.0468 -0.0130
  766SOL    HW1 6086   4.947   9.236   0.544  0.4037 -0.3961 -0.4403
  766SOL    HW2 6087   5.022   9.255   0.414  0.1786  0.5468 -0.4363
  767SOL     OW 6088   1.127   8.544   5.967 -0.4123  0.2664  0.4595
  767SOL    HW1 6089   1.095   8.627   5.931 -1.7222 -0.9265 -1.2800
  767SOL    HW2 6090   1.200   8.520   5.910  0.3699  0.4815  1.3347
  768SOL     OW 6091   2.818   6.259   0.442  0.0119  0.4007 -0.5419
  768SOL    HW1 6092   2.862   6.331   0.397  2.4824 -1.2530 -0.9192
  768SOL    HW2 6093   2.844   6.181   0.394 -2.4146 -0.8326 -0.0044
  769SOL     OW 6094   3.695   7.288   2.656  0.1096  0.4959 -0.0957
  769SOL    HW1 6095   3.742   7.283   2.739  0.4338 -0.9840 -0.3285
  769SOL    HW2 6096   3.615   7.238   2.671  0.2856  0.0029 -0.7324
  770SOL     OW 6097   1.913   7.712   1.232  0.0116  0.5474  0.0142
  770SOL    HW1 6098   1.898   7.770   1.158  0.7081 -0.2397 -0.7643
  770SOL    HW2 6099   2.007   7.717   1.248  0.2728 -1.1863 -0.7820
  771SOL     OW 6100   5.974   5.188   9.712  0.6369 -0.0421 -0.2541
  771SOL    HW1 6101   6.059   5.144   9.714  0.8866  0.4472  0.4297
  771SOL    HW2 6102   5.913   5.126   9.751  0.3374 -1.0380 -2.1804
  772SOL     OW 6103   8.414   8.688   6.195  0.0618 -0.3508  0.2459
  772SOL    HW1 6104   8.347   8.700   6.263 -0.3390 -2.5654  0.2991
  772SOL    HW2 6105   8.494   8.666   6.244 -0.3522 -2.4814  0.0446
  773SOL     OW 6106   3.499   2.565   9.263  0.0272 -0.0428 -0.5508
  773SOL    HW1 6107   3.507   2.469   9.261  0.2266 -0.1399  1.6139
  773SOL    HW2 6108   3.406   2.581   9.272  0.1055 -0.1595  0.7760
  774SOL     OW 6109   2.639   4.229   7.090  0.3166  0.9018 -0.3932
  774SOL    HW1 6110   2.666   4.193   7.005  2.6676 -1.8720  1.3366
  774SOL    HW2 6111   2.548   4.201   7.101  0.2347  0.6229 -1.6647
  775SOL     OW 6112   4.984   3.382   0.580 -0.5868 -0.1068  0.2967
  775SOL    HW1 6113   4.951   3.302   0.620  0.8572 -0.9559 -0.1298
  775SOL    HW2 6114   5.046   3.352   0.514 -1.1675  1.3325 -0.9619
  776SOL     OW 6115   0.320   6.929   1.495  0.4593  0.1604 -0.0010
  776SOL    HW1 6116   0.270   7.005   1.524 -1.2287 -1.4274  1.5114
  776SOL    HW2 6117   0.383   6.913   1.565  0.3399 -0.2410  0.0147
  777SOL     OW 6118   9.671   0.727   2.521  0.1127  0.3267  0.3882
  777SOL    HW1 6119   9.758   0.692   2.538  0.2782  0.4308 -0.2172
  777SOL    HW2 6120   9.687   0.817   2.491 -0.1294  0.0505 -0.6237
  778SOL     OW 6121   7.487   6.732   1.953  0.2736 -0.1964 -0.3176
  778SOL    HW1 6122   7.547   6.714   1.881  1.0376  0.0374  0.2465
  778SOL    HW2 6123   7.410   6.678   1.934  0.6096 -0.4139 -1.1102
  779SOL     OW 6124   1.030   6.293   2.471 -0.1383  0.5493  0.7391
  779SOL    HW1 6125   0.997   6.224   2.414  0.5216 -0.4457  1.5370
  779SOL    HW2 6126   1.022   6.373   2.418  0.9693 -0.4166 -0.9853
  780SOL     OW 6127   3.592   1.541   3.130  0.9842 -0.4662  1.1099
  780SOL    HW1 6128   3.685   1.522   3.122  0.8078 -0.7819 -0.4864
  780SOL    HW2 6129   3.548   1.458   3.113  0.3880 -0.1163  0.8895
  781SOL     OW 6130   7.890   1.743   9.354  0.0795 -0.0607 -1.0154
  781SOL    HW1 6131   7.875   1.649   9.350  2.4241 -0.4941 -0.8466
  781SOL    HW2 6132   7.921   1.766   9.266 -0.2942  0.5373 -1.0002
  782SOL     OW 6133   2.639  10.232   4.807  0.8692  0.0705 -0.0566
  782SOL    HW1 6134   2.559  10.285   4.807 -0.3175 -1.6286 -0.7141
  782SOL    HW2 6135   2.648  10.202   4.897  0.6253  0.1085 -0.0181
  783SOL     OW 6136   1.940   1.712   3.498  0.1551 -0.3807 -0.2833
  783SOL    HW1 6137   1.975   1.624   3.515  3.1722  0.6958 -0.2432
  783SOL    HW2 6138   1.997   1.746   3.429  0.5470  2.3279  1.2540
  784SOL     OW 6139   6.420   8.367   3.015 -0.0492  0.1583 -0.4897
  784SOL    HW1 6140   6.429   8.277   2.983 -0.8631 -1.1778  2.5791
  784SOL    HW2 6141   6.328   8.374   3.041  0.1369  1.7036 -0.1431
  785SOL     OW 6142  10.260   3.854   0.833  0.0045 -0.0106  0.2232
  785SOL    HW1 6143  10.201   3.797   0.883 -1.5098 -0.0260 -1.4711
  785SOL    HW2 6144  10.247   3.941   0.871 -0.7619 -0.1062  0.1998
  786SOL     OW 6145   8.251   9.222   1.986  0.1968 -0.7032 -0.2212
  786SOL    HW1 6146   8.237   9.300   2.039  0.2847 -1.3950  0.8419
  786SOL    HW2 6147   8.297   9.161   2.044 -0.5804 -1.8507 -0.7673
  787SOL     OW 6148   2.859   3.256   2.274 -0.2291 -0.7253 -0.2823
  787SOL    HW1 6149   2.901   3.339   2.295  0.2128 -0.8192 -0.7563
  787SOL    HW2 6150   2.766   3.277   2.267  0.0993  0.2678 -2.8005
  788SOL     OW 6151   6.370   4.041   0.670  0.3074  0.0449  0.2186
  788SOL    HW1 6152   6.432   4.069   0.602 -0.6939  1.9905  0.0411
  788SOL    HW2 6153   6.415   4.057   0.752  0.3761  0.6085  0.0730
  789SOL     OW 6154   7.242   8.523   0.374 -0.2244  0.0472 -0.3287
  789SOL    HW1 6155   7.187   8.540   0.450  0.8935 -0.7128  0.6869
  789SOL    HW2 6156   7.277   8.609   0.350 -0.3830  0.2590  0.1879
  790SOL     OW 6157   1.857  10.325   7.013  0.3277  0.1706  0.2151
  790SOL    HW1 6158   1.826  10.235   6.999 -2.2190  0.5552  2.4386
  790SOL    HW2 6159   1.900  10.322   7.099  0.2650  1.0561  0.2826
  791SOL     OW 6160   4.774   7.070   8.658 -0.8807  0.1542 -0.3054
  791SOL    HW1 6161   4.690   7.042   8.696 -1.0442  0.2529 -0.5905
  791SOL    HW2 6162   4.776   7.164   8.673 -0.5628  0.0685  0.2006
  792SOL     OW 6163   0.647   0.258   3.341  0.1215  0.1937  0.0956
  792SOL    HW1 6164   0.731   0.278   3.299  0.2531 -1.4367 -0.4532
  792SOL    HW2 6165   0.659   0.172   3.381 -1.1128  0.1910  0.5080
  793SOL     OW 6166   8.224   4.606   3.735 -0.1372  0.4210  0.0682
  793SOL    HW1 6167   8.216   4.663   3.811 -1.0067  1.6771 -0.9018
  793SOL    HW2 6168   8.150   4.631   3.679  0.4640 -0.4570 -1.1696
  794SOL     OW 6169   9.360   0.870   7.684  0.5660 -0.4500  0.5291
  794SOL    HW1 6170   9.432   0.902   7.737  0.8495 -0.1756 -0.0084
  794SOL    HW2 6171   9.369   0.917   7.600 -0.6023  0.0671  0.6671
  795SOL     OW 6172   7.456   1.702   8.567  0.1376 -0.0367 -0.3593
  795SOL    HW1 6173   7.544   1.666   8.561 -0.0929 -0.5915 -0.4856
  795SOL    HW2 6174   7.433   1.725   8.477 -0.4900 -1.4851 -0.6020
  796SOL     OW 6175   1.524   2.909   7.663  0.2531 -0.0939  0.3362
  796SOL    HW1 6176   1.504   2.954   7.745 -2.9308  1.1595 -0.9714
  796SOL    HW2 6177   1.495   2.819   7.678 -0.7397  0.2344  0.4924
  797SOL     OW 6178   0.647   2.818   9.070  0.0174  0.2300 -0.5329
  797SOL    HW1 6179   0.698   2.742   9.042 -0.4682 -0.0323 -0.7019
  797SOL    HW2 6180   0.697   2.854   9.143 -0.7928 -1.4461  0.9062
  798SOL     OW 6181   0.301   3.677   8.190  0.4725  0.1323  0.0318
  798SOL    HW1 6182   0.248   3.747   8.152 -0.4286  0.9823  2.6194
  798SOL    HW2 6183   0.329   3.624   8.115 -0.8936  1.8304 -1.7732
  799SOL     OW 6184   4.263   1.992   0.933  0.0281 -0.2618 -0.1349
  799SOL    HW1 6185   4.199   2.000   0.862  0.3934 -0.0648 -0.4448
  799SOL    HW2 6186   4.334   1.940   0.895  0.2516 -0.1046  0.0707
  800SOL     OW 6187   9.197   2.309   9.919 -0.6641  0.0148  0.2668
  800SOL    HW1 6188   9.171   2.396   9.887  0.4431  0.2465 -0.0307
  800SOL    HW2 6189   9.289   2.319   9.943 -0.2758 -1.2851 -0.5776
  801SOL     OW 6190   1.578   5.076   9.425 -0.0388  0.2266 -0.7431
  801SOL    HW1 6191   1.644   5.025   9.472  0.3279  2.2793  1.1843
  801SOL    HW2 6192   1.628   5.129   9.363  0.0487  0.9139 -0.1110
  802SOL     OW 6193   9.572   7.522   4.096 -0.1007 -0.2615 -0.6748
  802SOL    HW1 6194   9.606   7.610   4.107 -1.7342  0.3382 -0.1428
  802SOL    HW2 6195   9.518   7.506   4.174 -3.7852  0.2148 -2.8557
  803SOL     OW 6196   4.418   9.211   2.248 -0.3305  0.6051 -0.3553
  803SOL    HW1 6197   4.422   9.295   2.293  1.3946  1.1747 -1.4497
  803SOL    HW2 6198   4.458   9.149   2.309  2.0905  1.3887 -1.0256
  804SOL     OW 6199   8.473   3.733   7.397  0.5772  0.5377  0.0151
  804SOL    HW1 6200   8.477   3.652   7.448  0.8640  0.0313 -0.8074
  804SOL    HW2 6201   8.382   3.737   7.366  0.7396  0.1683 -0.5204
  805SOL     OW 6202   0.770   7.494   5.826 -0.2010  0.3758  0.6192
  805SOL    HW1 6203   0.691   7.461   5.784 -0.0155 -1.2369  1.4432
  805SOL    HW2 6204   0.739   7.557   5.891 -0.6345  1.2976 -0.4588
  806SOL     OW 6205   3.851   9.893   4.198  0.1751  0.6598 -0.1552
  806SOL    HW1 6206   3.943   9.903   4.225 -0.5894  2.4566  2.0962
  806SOL    HW2 6207   3.801   9.900   4.279 -1.9536 -1.5534 -1.1475
  807SOL     OW 6208   2.684   1.310   2.103  0.0200 -0.2795 -0.3665
  807SOL    HW1 6209   2.643   1.231   2.068 -0.0699 -0.1970 -0.4479
  807SOL    HW2 6210   2.709   1.286   2.193  0.2816 -0.5019 -0.4976
  808SOL     OW 6211   0.428   2.293   7.892  0.2762  0.7535  0.0599
  808SOL    HW1 6212   0.517   2.325   7.908 -0.0643  1.8039 -0.0464
  808SOL    HW2 6213   0.397   2.343   7.816  0.0907 -0.6148 -0.7868
  809SOL     OW 6214   6.540  10.099   9.955  0.0019 -0.3494 -0.0465
  809SOL    HW1 6215   6.543  10.189   9.923  0.3228 -0.2036  0.3855
  809SOL    HW2 6216   6.447  10.077   9.957 -0.0498 -0.1918 -0.6032
  810SOL     OW 6217   6.312   4.462   5.615 -0.3847 -0.3781  0.3626
  810SOL    HW1 6218   6.233   4.436   5.663  0.8713 -0.8784  2.2928
  810SOL    HW2 6219   6.378   4.398   5.642  1.0500  0.8511 -0.1051
  811SOL     OW 6220   0.673   0.516   6.972 -0.2268  1.1841 -0.4356
  811SOL    HW1 6221   0.743   0.580   6.982 -0.4157  1.2987  0.1470
  811SOL    HW2 6222   0.597   0.556   7.013 -1.1087  1.7925 -2.5449
  812SOL     OW 6223   7.359   6.330   9.114  0.5085  0.1481  0.0451
  812SOL    HW1 6224   7.285   6.309   9.170  1.5169 -1.6270  0.7690
  812SOL    HW2 6225   7.329   6.406   9.063 -1.4990 -0.0352  0.8541
  813SOL     OW 6226   0.023   4.328   8.955  0.1432 -0.1079  0.7802
  813SOL    HW1 6227   0.104   4.315   9.004  1.0214  1.4061 -0.2099
  813SOL    HW2 6228   0.049   4.319   8.863 -0.7407  0.7468  0.4337
  814SOL     OW 6229   8.267   2.448   6.238 -0.7937  0.0440  0.2165
  814SOL    HW1 6230   8.339   2.476   6.296 -2.0506 -1.6291  2.7448
  814SOL    HW2 6231   8.227   2.530   6.209  1.0076  0.9690  0.1924
  815SOL     OW 6232   8.983   8.689   6.104  0.3272  0.7376  0.0527
  815SOL    HW1 6233   9.059   8.722   6.055  0.5947 -1.2394 -0.9762
  815SOL    HW2 6234   8.989   8.733   6.189  1.2853  2.3855 -0.7906
  816SOL     OW 6235   7.885   7.258   0.091 -0.0923  0.0929  0.2767
  816SOL    HW1 6236   7.915   7.232   0.178  1.1019 -0.5316 -0.2861
  816SOL    HW2 6237   7.963   7.296   0.050 -0.6667  0.4763 -0.4786
  817SOL     OW 6238   9.435  10.279   2.434 -0.2032  0.3084 -0.0833
  817SOL    HW1 6239   9.484  10.313   2.509  1.2703 -4.8553  1.7760
  817SOL    HW2 6240   9.358  10.237   2.474 -0.5005 -0.7750 -1.7154
  818SOL     OW 6241   4.408   6.796   3.726 -0.3946 -0.2758  0.1839
  818SOL    HW1 6242   4.498   6.773   3.749  0.1347  1.2059 -0.2698
  818SOL    HW2 6243   4.361   6.713   3.728  0.9505 -1.0663  0.5651
  819SOL     OW 6244  10.087   1.617   6.500 -0.1018  0.1615 -0.0000
  819SOL    HW1 6245  10.178   1.601   6.478 -0.1709  2.3998 -2.4869
  819SOL    HW2 6246  10.088   1.698   6.551 -0.6633 -0.3246  0.8206
  820SOL     OW 6247   2.013   1.861   8.396  0.1547 -0.4682 -0.0266
  820SOL    HW1 6248   2.049   1.865   8.307 -0.9796 -0.3634 -0.5000
  820SOL    HW2 6249   2.020   1.769   8.421 -0.9220 -0.7823 -0.8377
  821SOL     OW 6250   6.632   1.588   3.132  0.0045 -0.7348  0.0926
  821SOL    HW1 6251   6.642   1.502   3.173 -3.8115 -1.0575  0.7227
  821SOL    HW2 6252   6.617   1.569   3.040  1.5873 -0.5115 -0.2336
  822SOL     OW 6253   5.306   2.537   1.950  0.0384  0.0025  0.3954
  822SOL    HW1 6254   5.307   2.493   2.035  0.5931 -2.1923 -0.6844
  822SOL    HW2 6255   5.398   2.559   1.934  0.2054 -1.1481 -0.3573
  823SOL     OW 6256   0.545   1.785   9.556 -0.0630 -0.4452 -0.2125
  823SOL    HW1 6257   0.640   1.799   9.553 -0.0012 -1.0356 -1.6203
  823SOL    HW2 6258   0.519   1.818   9.643  0.8634  3.1980 -1.1340
  824SOL     OW 6259   0.662   4.645   5.678  0.5709  0.5189  0.1406
  824SOL    HW1 6260   0.585   4.652   5.734 -0.0976  1.5086 -0.8695
  824SOL    HW2 6261   0.683   4.735   5.653  0.3740  0.0743 -1.8002
  825SOL     OW 6262   1.058   7.361   0.529  0.1230 -0.3211  0.4988
  825SOL    HW1 6263   1.082   7.445   0.570  1.5886 -1.3275  1.8089
  825SOL    HW2 6264   0.987   7.328   0.584  0.1956 -0.3851  0.5535
  826SOL     OW 6265   0.656   2.385   5.267 -0.2118  0.1512 -0.5844
  826SOL    HW1 6266   0.620   2.302   5.235  0.9231 -0.4443 -0.3746
  826SOL    HW2 6267   0.640   2.382   5.362  0.6822 -0.2756 -0.4411
  827SOL     OW 6268   1.291   9.560   4.903  0.1457 -0.1539 -0.2525
  827SOL    HW1 6269   1.250   9.497   4.844 -1.4578  0.1450  0.5031
  827SOL    HW2 6270   1.374   9.519   4.928  0.1259 -0.9775 -1.4541
  828SOL     OW 6271   9.222   8.515   3.684 -0.1169  0.4020  0.0446
  828SOL    HW1 6272   9.269   8.473   3.756 -1.1014  0.1454  0.5548
  828SOL    HW2 6273   9.193   8.598   3.720 -0.5968  0.2821 -0.0634
  829SOL     OW 6274   0.725   0.868   5.549  0.4667  0.1435  0.0404
  829SOL    HW1 6275   0.777   0.930   5.600  2.5210 -1.3867 -0.0329
  829SOL    HW2 6276   0.714   0.910   5.464  0.0364  1.2465  0.6225
  830SOL     OW 6277   7.663   0.783   1.363  0.2624 -0.3400 -0.1921
  830SOL    HW1 6278   7.737   0.824   1.320  0.7504 -0.6397  0.3386
  830SOL    HW2 6279   7.639   0.844   1.433  0.4543 -0.5610  0.0697
  831SOL     OW 6280   8.965   9.623   9.984 -0.2503 -0.2607  0.2422
  831SOL    HW1 6281   8.926   9.603  10.069  0.5225 -0.5127  0.5381
  831SOL    HW2 6282   9.000   9.539   9.953  1.1541  0.1940  0.5417
  832SOL     OW 6283   9.119   4.607   0.882 -0.6411  0.1373 -0.0521
  832SOL    HW1 6284   9.213   4.621   0.891 -0.2456 -1.0201 -1.8225
  832SOL    HW2 6285   9.097   4.641   0.795 -2.0089  1.0024  0.6017
  833SOL     OW 6286   2.995  10.228   1.657  0.1616 -0.3249 -0.0403
  833SOL    HW1 6287   2.963  10.221   1.567  1.5036 -0.5960 -0.5255
  833SOL    HW2 6288   2.932  10.179   1.710 -0.4055 -0.5340 -0.9033
  834SOL     OW 6289   3.389   0.005   1.654 -0.4982  0.2738 -0.0865
  834SOL    HW1 6290   3.470   0.036   1.695 -1.0928  0.7284  0.7727
  834SOL    HW2 6291   3.320   0.050   1.702 -1.3329 -1.3706  0.3070
  835SOL     OW 6292   2.028   6.638   6.781  0.6135 -0.0423 -0.3253
  835SOL    HW1 6293   2.045   6.587   6.701  0.5109  0.6754 -0.8158
  835SOL    HW2 6294   1.940   6.671   6.769  0.3977 -0.3680  0.3401
  836SOL     OW 6295   5.563   1.548   2.204  0.1791 -0.0747  0.4835
  836SOL    HW1 6296   5.501   1.607   2.245  1.0454  0.8149  0.5600
  836SOL    HW2 6297   5.557   1.567   2.110 -0.3476 -0.6723  0.3909
  837SOL     OW 6298   0.057   9.839   2.815  0.0105  0.0449  0.1513
  837SOL    HW1 6299  -0.011   9.823   2.751  0.9341  1.5953 -1.2999
  837SOL    HW2 6300   0.010   9.852   2.898 -1.3227 -0.3519 -0.5200
  838SOL     OW 6301   9.087   8.151   7.839 -0.2288 -0.2718 -0.1107
  838SOL    HW1 6302   9.041   8.228   7.807 -1.0050  0.8157  3.1934
  838SOL    HW2 6303   9.175   8.158   7.803 -0.5342  1.7336 -0.5622
  839SOL     OW 6304   4.485   0.509  10.129  0.2276 -0.2823 -0.1804
  839SOL    HW1 6305   4.436   0.552  10.200  0.2885 -0.2888 -0.1338
  839SOL    HW2 6306   4.440   0.426  10.115 -0.2791  0.0759 -0.7111
  840SOL     OW 6307   7.389   7.647   9.702  0.1433  0.8213  0.3110
  840SOL    HW1 6308   7.339   7.574   9.666 -0.0452  0.9551  0.3018
  840SOL    HW2 6309   7.433   7.611   9.779  0.5585  0.5295 -0.0568
  841SOL     OW 6310   6.496   5.626   2.674 -0.6852 -0.0467  0.3615
  841SOL    HW1 6311   6.431   5.568   2.713 -0.7768 -1.2709 -1.4807
  841SOL    HW2 6312   6.566   5.567   2.645 -0.3149  0.8582 -0.6545
  842SOL     OW 6313   1.298   4.806   9.534  0.0629 -0.4055 -0.5360
  842SOL    HW1 6314   1.295   4.876   9.599 -0.8238 -0.5359 -0.4248
  842SOL    HW2 6315   1.210   4.803   9.498 -0.0313 -1.7332 -0.2545
  843SOL     OW 6316   8.495   1.045   0.543  0.4734 -0.9490 -0.5687
  843SOL    HW1 6317   8.436   1.011   0.610  0.2670  0.2710 -0.0916
  843SOL    HW2 6318   8.550   0.971   0.519 -1.3750 -2.1955 -1.1929
  844SOL     OW 6319   5.237   4.662   1.221 -0.0024 -0.0617  0.3228
  844SOL    HW1 6320   5.249   4.589   1.281  0.1538 -0.1527  0.1816
  844SOL    HW2 6321   5.165   4.635   1.165 -1.8181  1.0329  2.0128
  845SOL     OW 6322   5.926   2.803   7.661 -0.1986  0.3722 -0.4918
  845SOL    HW1 6323   5.868   2.755   7.602  0.7321  0.5826 -1.6062
  845SOL    HW2 6324   5.896   2.779   7.749 -0.1501 -1.7487 -1.0176
  846SOL     OW 6325   1.784   2.844   2.491  0.3147 -0.6357 -0.1989
  846SOL    HW1 6326   1.830   2.928   2.488  0.9445 -1.0021 -1.0979
  846SOL    HW2 6327   1.812   2.805   2.574  0.7507 -0.3569 -0.2093
  847SOL     OW 6328   2.377   6.592   8.806 -0.2796  0.2183 -0.0473
  847SOL    HW1 6329   2.455   6.625   8.849 -2.2623  5.0511  0.4957
  847SOL    HW2 6330   2.404   6.576   8.715  1.8807 -1.1905  0.7679
  848SOL     OW 6331   8.615   0.966   1.003 -0.1677 -0.1177  0.3539
  848SOL    HW1 6332   8.524   0.936   0.994 -0.6892  1.1654  1.0917
  848SOL    HW2 6333   8.644   0.981   0.913 -0.5089 -1.0014  0.0823
  849SOL     OW 6334   5.173   5.650   5.658  0.3675 -0.3995 -0.3280
  849SOL    HW1 6335   5.111   5.717   5.631 -1.1927 -1.5064  0.3123
  849SOL    HW2 6336   5.227   5.692   5.725 -1.2624 -0.0484  0.8147
  850SOL     OW 6337   7.868   1.085   4.066  0.2941  0.3318 -0.2114
  850SOL    HW1 6338   7.846   1.100   3.974  0.5607 -0.8430 -0.4875
  850SOL    HW2 6339   7.944   1.026   4.062  0.4751  0.4902  0.7628
  851SOL     OW 6340   4.476   5.071   7.794 -0.2084 -0.0639 -0.1771
  851SOL    HW1 6341   4.434   5.157   7.796 -0.2567 -0.0958  0.1843
  851SOL    HW2 6342   4.431   5.021   7.862  0.5643 -0.0339  0.3661
  852SOL     OW 6343   0.985   5.020   1.921  0.1558  0.1648  0.1326
  852SOL    HW1 6344   1.035   4.940   1.903  0.9301  0.3343  1.3744
  852SOL    HW2 6345   1.032   5.089   1.875 -0.2141 -0.0099 -0.5139
  853SOL     OW 6346   7.881   4.821   8.054  0.2079 -0.0824 -0.0499
  853SOL    HW1 6347   7.921   4.900   8.017  2.4992 -1.8803 -1.7504
  853SOL    HW2 6348   7.857   4.846   8.143  4.6326  1.5049  0.9872
  854SOL     OW 6349   3.184   9.541   2.088 -0.5401  0.2726 -0.1232
  854SOL    HW1 6350   3.267   9.493   2.086  0.3118  1.6953 -1.4756
  854SOL    HW2 6351   3.209   9.633   2.091 -2.1268  0.7088  1.8062
  855SOL     OW 6352   8.457   7.650   4.058 -0.6495  0.1314  0.0819
  855SOL    HW1 6353   8.463   7.598   4.138  1.1905 -0.5597 -0.4546
  855SOL    HW2 6354   8.498   7.734   4.081 -0.0979 -0.0765 -0.1397
  856SOL     OW 6355  10.126  10.344   3.042  0.2778  0.8704 -0.2471
  856SOL    HW1 6356  10.084  10.388   3.115 -0.6952  1.9841 -1.4326
  856SOL    HW2 6357  10.189  10.408   3.008 -1.2917  1.5146 -2.1151
  857SOL     OW 6358   5.083  10.179   1.534 -0.0438 -0.1361  0.5865
  857SOL    HW1 6359   5.095  10.251   1.471  2.5161 -0.4123  0.6681
  857SOL    HW2 6360   5.023  10.119   1.490 -0.8421  1.1892 -0.2150
  858SOL     OW 6361   2.431   3.836   9.356 -0.0403 -0.1191  0.1802
  858SOL    HW1 6362   2.472   3.850   9.271  0.0807 -1.0731  0.0713
  858SOL    HW2 6363   2.360   3.900   9.360  0.5740  0.5989 -0.2165
  859SOL     OW 6364   6.545   5.444   6.099  0.0949  0.3357 -0.2622
  859SOL    HW1 6365   6.591   5.517   6.058  1.3243 -0.1766  0.1512
  859SOL    HW2 6366   6.554   5.372   6.037 -2.3299  0.8412 -1.3299
  860SOL     OW 6367   3.293   6.965   8.700 -0.0481  0.2532 -0.4519
  860SOL    HW1 6368   3.254   6.880   8.678 -0.3249  0.7884 -2.2354
  860SOL    HW2 6369   3.222   7.015   8.738 -0.4621  0.3811 -1.3700
  861SOL     OW 6370   6.080   2.887   1.308 -0.3794 -0.7905  0.2471
  861SOL    HW1 6371   6.032   2.967   1.289  1.6112  0.4533  0.1203
  861SOL    HW2 6372   6.020   2.834   1.360 -1.6606  0.9153  0.5897
  862SOL     OW 6373   4.861   5.357   6.515 -0.0819  0.0198 -0.1009
  862SOL    HW1 6374   4.943   5.310   6.505 -0.8494 -1.4498  0.2426
  862SOL    HW2 6375   4.795   5.289   6.524 -1.2859  1.1683  0.1254
  863SOL     OW 6376   4.727   8.962   4.078  0.2249  0.0534 -0.2765
  863SOL    HW1 6377   4.752   8.894   4.140 -2.1641 -1.2199 -0.6145
  863SOL    HW2 6378   4.803   8.969   4.019  1.3838 -0.7078  1.0504
  864SOL     OW 6379   1.940   1.109   1.733 -0.0864 -0.2940  0.1592
  864SOL    HW1 6380   1.906   1.186   1.778 -0.1284 -1.8348  2.9308
  864SOL    HW2 6381   1.873   1.042   1.745  1.7148 -1.9665  1.5426
  865SOL     OW 6382   9.284   8.691  10.104 -0.2429 -0.3421 -0.4360
  865SOL    HW1 6383   9.236   8.717  10.026 -1.8212  0.5387  0.7879
  865SOL    HW2 6384   9.219   8.690  10.174  1.1096 -1.1766  0.8812
  866SOL     OW 6385   8.654   0.518   0.259 -0.0494  0.1628 -0.1836
  866SOL    HW1 6386   8.666   0.589   0.322  0.0136 -1.4071  1.6594
  866SOL    HW2 6387   8.571   0.539   0.216  0.4079  1.8000 -0.3666
  867SOL     OW 6388   1.165   0.724   7.555  0.5117  0.5189  0.0728
  867SOL    HW1 6389   1.074   0.739   7.580  0.9893  0.0371  2.2805
  867SOL    HW2 6390   1.181   0.787   7.484 -1.1418  1.5783  0.5845
  868SOL     OW 6391   7.500   3.933   8.061 -0.5615  0.0993 -0.1598
  868SOL    HW1 6392   7.540   3.892   7.985 -2.3937 -0.2331 -1.0034
  868SOL    HW2 6393   7.481   4.023   8.032  0.2711  0.5028  0.5021
  869SOL     OW 6394   3.771   6.240   7.254 -0.0074 -0.0387 -0.6916
  869SOL    HW1 6395   3.794   6.325   7.294 -1.0371 -0.5094  0.9841
  869SOL    HW2 6396   3.804   6.247   7.164  1.2685  1.5652 -0.1653
  870SOL     OW 6397   0.342   1.670   4.316 -0.2918 -0.5511  0.1680
  870SOL    HW1 6398   0.339   1.616   4.395  0.8730  0.9506  1.2717
  870SOL    HW2 6399   0.410   1.630   4.262 -0.5658 -1.1264  0.2362
  871SOL     OW 6400   9.360   9.810   5.457 -0.1481 -0.2197  0.6683
  871SOL    HW1 6401   9.297   9.737   5.451 -0.8857  0.5331 -2.7150
  871SOL    HW2 6402   9.307   9.884   5.488 -1.4467  0.7088 -3.2511
  872SOL     OW 6403   4.656   4.407   1.717  0.2059 -0.5417  0.5720
  872SOL    HW1 6404   4.609   4.483   1.751  1.5412  0.9300 -0.7035
  872SOL    HW2 6405   4.699   4.438   1.638  1.7298 -2.3270  0.6018
  873SOL     OW 6406   7.428   6.347   1.551  0.5526  0.0002  0.1858
  873SOL    HW1 6407   7.496   6.312   1.494 -0.5111 -0.6418 -0.7298
  873SOL    HW2 6408   7.466   6.345   1.638  1.0540 -2.1169 -0.0321
  874SOL     OW 6409   0.171   2.582   3.790 -0.1171 -0.1518  0.0070
  874SOL    HW1 6410   0.175   2.493   3.824 -1.3513 -0.5732 -0.8838
  874SOL    HW2 6411   0.176   2.638   3.868  0.0307 -1.0031  0.6211
  875SOL     OW 6412   3.133   4.843   1.496 -0.8149 -0.5720 -0.1490
  875SOL    HW1 6413   3.082   4.773   1.455 -0.9106 -0.2047 -0.6721
  875SOL    HW2 6414   3.197   4.868   1.430  1.1318 -2.1012  1.0543
  876SOL     OW 6415   4.046   5.101   1.453  0.2983  0.2001 -0.1459
  876SOL    HW1 6416   4.008   5.189   1.454 -0.2216 -0.0046 -0.9028
  876SOL    HW2 6417   3.972   5.043   1.472  0.2793 -0.1768 -1.2764
  877SOL     OW 6418   7.012   2.222   7.491 -0.5989  0.3675  0.2386
  877SOL    HW1 6419   6.964   2.209   7.410 -0.0199 -2.5136  0.2646
  877SOL    HW2 6420   7.064   2.301   7.476  0.1236 -0.5463 -2.5500
  878SOL     OW 6421   5.763   5.368   9.242  0.0893  0.0599 -0.0309
  878SOL    HW1 6422   5.793   5.323   9.321 -2.3856  0.7076  1.3874
  878SOL    HW2 6423   5.709   5.440   9.275 -1.8145 -0.2291 -2.3122
  879SOL     OW 6424   1.076   6.009   0.104 -0.4732  0.3752  0.1853
  879SOL    HW1 6425   1.162   6.025   0.064 -0.5820  1.0719  0.2116
  879SOL    HW2 6426   1.087   5.928   0.152 -0.3724 -0.5722 -1.3625
  880SOL     OW 6427   4.515   0.546   2.375  0.2532  0.2601  0.0488
  880SOL    HW1 6428   4.511   0.453   2.397  0.0559  0.4588  0.8430
  880SOL    HW2 6429   4.601   0.556   2.333  0.9187 -0.0024  1.2951
  881SOL     OW 6430   1.858   2.884   4.227 -0.1323  0.2172 -0.0570
  881SOL    HW1 6431   1.836   2.891   4.134  2.9729  0.8686 -0.8633
  881SOL    HW2 6432   1.890   2.794   4.237  2.1778  0.9366 -0.3699
  882SOL     OW 6433   1.991   6.820   8.420  0.1249  0.1096  0.2440
  882SOL    HW1 6434   2.033   6.811   8.506  1.3910 -1.0708 -0.4388
  882SOL    HW2 6435   2.044   6.886   8.374  0.0843 -0.0064  0.0275
  883SOL     OW 6436   6.269   0.454   5.417 -0.0992  0.3953  0.4504
  883SOL    HW1 6437   6.356   0.420   5.439 -0.4256 -0.0950  0.9986
  883SOL    HW2 6438   6.214   0.376   5.406  0.3158  0.4633 -3.5824
  884SOL     OW 6439   3.438   9.638   1.455 -0.3716  0.8611 -0.4988
  884SOL    HW1 6440   3.429   9.732   1.441 -1.4780  0.6501 -1.4148
  884SOL    HW2 6441   3.355   9.601   1.424  0.2222 -0.4573 -0.6094
  885SOL     OW 6442   8.333   7.102   5.868 -0.5147 -0.8486  0.5398
  885SOL    HW1 6443   8.256   7.073   5.918 -0.3420 -0.1950  1.2080
  885SOL    HW2 6444   8.335   7.045   5.792 -2.8494  0.4258 -0.5688
  886SOL     OW 6445   5.024   5.838   9.663  0.2736 -0.9786 -0.4562
  886SOL    HW1 6446   5.095   5.776   9.647  1.3762  0.2245 -0.3795
  886SOL    HW2 6447   4.998   5.824   9.754  2.3386  0.4230  0.4214
  887SOL     OW 6448   1.040   0.576   6.986  0.0191  0.0108 -0.1638
  887SOL    HW1 6449   1.032   0.496   6.934 -1.0480 -0.6320  0.9598
  887SOL    HW2 6450   0.994   0.557   7.068  2.4626  0.6587  1.4643
  888SOL     OW 6451   2.199   3.055   6.685  0.6876  0.4467 -0.6107
  888SOL    HW1 6452   2.161   3.004   6.757  1.5445  1.5476  0.6831
  888SOL    HW2 6453   2.269   3.000   6.650  1.3223  0.5243  0.4930
  889SOL     OW 6454   5.173   2.028   8.661  0.1794  0.4572 -0.1395
  889SOL    HW1 6455   5.166   1.939   8.626 -0.7328  0.3870  0.2037
  889SOL    HW2 6456   5.101   2.076   8.619 -0.3667  0.6044  0.9373
  890SOL     OW 6457   1.014   2.271   4.050  0.2534  0.2330 -0.1648
  890SOL    HW1 6458   0.928   2.262   4.010  0.1038  0.4054  0.1221
  890SOL    HW2 6459   0.999   2.318   4.132  0.5801 -0.0113  0.0367
  891SOL     OW 6460   2.036   2.265   9.224 -0.7303  0.0550 -0.5436
  891SOL    HW1 6461   1.987   2.270   9.142 -0.3401  1.3338 -0.7252
  891SOL    HW2 6462   1.970   2.245   9.290 -1.0336 -1.0626 -1.1722
  892SOL     OW 6463   5.853   0.799   5.050  0.6713 -0.1116 -0.1951
  892SOL    HW1 6464   5.777   0.776   5.103  0.6818  0.1381 -0.0728
  892SOL    HW2 6465   5.927   0.759   5.095  0.7543  0.5929  0.2959
  893SOL     OW 6466   2.538   6.138   1.078 -0.2775  0.3812 -0.4340
  893SOL    HW1 6467   2.510   6.073   1.014  0.8333 -0.6777  0.1338
  893SOL    HW2 6468   2.540   6.220   1.029 -1.6255  0.0100 -1.1767
  894SOL     OW 6469   8.573   9.977   5.967 -0.3774  0.0238 -0.4942
  894SOL    HW1 6470   8.664   9.953   5.986 -0.8126 -0.6744  0.7381
  894SOL    HW2 6471   8.578  10.021   5.882  0.9560 -1.0068 -0.9830
  895SOL     OW 6472   1.800   7.022   1.952 -0.2290 -1.1250 -0.0031
  895SOL    HW1 6473   1.877   6.983   1.995 -1.0646 -2.8909 -0.0414
  895SOL    HW2 6474   1.729   7.011   2.015 -0.4994  0.3886 -0.0162
  896SOL     OW 6475   9.433   1.772   1.657 -0.2556  0.6691 -0.3587
  896SOL    HW1 6476   9.474   1.735   1.734 -0.2207  2.8096  0.7373
  896SOL    HW2 6477   9.503   1.772   1.591  0.4063  0.8730  0.3230
  897SOL     OW 6478   3.499   1.004   6.203 -0.2976  0.0560 -0.4834
  897SOL    HW1 6479   3.518   1.007   6.297 -2.4465  2.1721  0.0053
  897SOL    HW2 6480   3.585   1.001   6.161  0.8770  1.9410  1.5407
  898SOL     OW 6481   7.632   3.405   1.725  0.2789  0.3957 -0.5899
  898SOL    HW1 6482   7.634   3.324   1.775  0.2939  0.9869  0.3868
  898SOL    HW2 6483   7.617   3.377   1.635 -2.8900 -0.5527  0.1196
  899SOL     OW 6484   9.247   7.608  10.278 -0.3538 -0.2586  0.2356
  899SOL    HW1 6485   9.254   7.622  10.372  0.7209 -1.0407  0.2890
  899SOL    HW2 6486   9.310   7.669  10.240 -1.9569  1.2612 -0.1219
  900SOL     OW 6487   4.517   3.180   3.513 -0.1280  0.9910  0.5966
  900SOL    HW1 6488   4.591   3.133   3.551 -0.4720 -1.2450 -1.2139
  900SOL    HW2 6489   4.443   3.158   3.570 -0.3982 -1.3072 -0.5187
  901SOL     OW 6490   9.726   3.940   9.206  0.3335 -0.3746 -0.6798
  901SOL    HW1 6491   9.814   3.902   9.208  0.5198  0.0064 -1.3531
  901SOL    HW2 6492   9.711   3.961   9.114  0.2297  1.1609 -0.3399
  902SOL     OW 6493   8.288   6.577   6.713  0.6772 -0.0916  0.0592
  902SOL    HW1 6494   8.361   6.564   6.773 -0.1014  0.1051  1.0920
  902SOL    HW2 6495   8.219   6.519   6.746  1.2112 -2.3997 -2.5238
  903SOL     OW 6496   4.872   6.560   2.002  0.8793 -0.2565  0.0795
  903SOL    HW1 6497   4.928   6.486   1.980  1.8469  0.6325 -0.4891
  903SOL    HW2 6498   4.929   6.619   2.051  0.8606  1.2910 -1.6783
  904SOL     OW 6499   9.813   9.446   5.535 -0.4948  0.3889  0.5516
  904SOL    HW1 6500   9.842   9.537   5.544 -1.3213  0.9880 -1.9928
  904SOL    HW2 6501   9.796   9.418   5.624 -1.5375  3.1954  1.3605
  905SOL     OW 6502   0.569   6.208   5.902  0.0527  0.3420  0.6712
  905SOL    HW1 6503   0.540   6.296   5.928 -3.4245 -0.3015 -0.4804
  905SOL    HW2 6504   0.501   6.150   5.936  0.6884 -1.5818 -1.1568
  906SOL     OW 6505   5.492   4.350   6.823  0.1291  0.0255  0.5335
  906SOL    HW1 6506   5.455   4.266   6.797  1.2480 -0.3573  0.1126
  906SOL    HW2 6507   5.571   4.359   6.770  0.6208  0.8276  1.3632
  907SOL     OW 6508   8.787   0.227   0.683  0.0112  0.2927 -0.3600
  907SOL    HW1 6509   8.820   0.271   0.604 -1.8594  1.2305 -0.6762
  907SOL    HW2 6510   8.753   0.144   0.651  0.4565  0.0856 -0.3082
  908SOL     OW 6511   8.502   5.007   7.487  0.5150 -0.1413  0.0417
  908SOL    HW1 6512   8.475   5.091   7.449  0.2759 -0.4918 -0.5742
  908SOL    HW2 6513   8.598   5.009   7.485  0.5277  0.4551  0.7925
  909SOL     OW 6514   2.733   9.363   0.051  0.8868 -0.6101 -0.5712
  909SOL    HW1 6515   2.669   9.399   0.112  1.4352 -0.1994 -0.2227
  909SOL    HW2 6516   2.734   9.269   0.069  2.3609 -0.2902  1.3795
  910SOL     OW 6517   9.970   9.341   5.321 -0.0243  0.6967  0.1750
  910SOL    HW1 6518   9.956   9.246   5.325  2.4606  0.2716  0.1842
  910SOL    HW2 6519   9.925   9.375   5.398 -0.7154 -0.5033  0.3283
  911SOL     OW 6520   7.499   7.601   5.193 -0.7325  0.6252  0.4929
  911SOL    HW1 6521   7.468   7.627   5.280  1.0205 -0.1075  1.3972
  911SOL    HW2 6522   7.471   7.510   5.184 -0.8661  0.6847  0.3191
  912SOL     OW 6523   5.918   7.531  10.358  0.1735 -0.1716 -0.6934
  912SOL    HW1 6524   5.879   7.491  10.436  1.0381  0.3491  0.0193
  912SOL    HW2 6525   5.864   7.498  10.286 -0.1287 -1.3254  0.0252
  913SOL     OW 6526   5.275   6.772   1.528 -0.1548 -0.4509 -0.0774
  913SOL    HW1 6527   5.191   6.757   1.571 -0.9667  0.9620 -1.1029
  913SOL    HW2 6528   5.305   6.856   1.562  0.5472 -0.6409 -0.2050
  914SOL     OW 6529   0.875   5.042   4.731 -0.3788 -0.5646 -0.4302
  914SOL    HW1 6530   0.888   5.095   4.809 -2.3168  0.2773 -0.6164
  914SOL    HW2 6531   0.883   5.103   4.658 -2.4260 -0.4774 -0.6567
  915SOL     OW 6532   9.965   7.808   5.409  0.7812 -0.4829 -0.0148
  915SOL    HW1 6533   9.872   7.809   5.430  0.2207 -0.3089 -2.2598
  915SOL    HW2 6534   9.989   7.901   5.400  0.8454 -0.5519 -0.6391
  916SOL     OW 6535   3.610   0.374   4.838 -0.1315 -0.2803  0.1404
  916SOL    HW1 6536   3.607   0.397   4.745  1.5707  0.4371  0.2199
  916SOL    HW2 6537   3.624   0.279   4.839  1.0248 -0.1374 -0.3948
  917SOL     OW 6538   0.067   1.774   3.278 -0.1532 -0.0831 -0.0993
  917SOL    HW1 6539  -0.006   1.830   3.248  0.0553 -0.2625 -0.9762
  917SOL    HW2 6540   0.099   1.733   3.198  2.4827  1.8147 -0.1388
  918SOL     OW 6541   6.130   4.914   1.231  0.3943  0.3181 -0.1645
  918SOL    HW1 6542   6.097   4.984   1.288 -1.0714 -0.5582  0.1214
  918SOL    HW2 6543   6.053   4.883   1.184  0.5952 -2.2732  1.0082
  919SOL     OW 6544   0.417   5.287   0.122  0.1651  0.7145 -0.7283
  919SOL    HW1 6545   0.479   5.284   0.050  0.9166  1.3366 -0.1240
  919SOL    HW2 6546   0.342   5.235   0.092  2.0240 -2.3453 -0.4414
  920SOL     OW 6547   6.241   5.238   7.061 -0.3860  0.1740  0.5537
  920SOL    HW1 6548   6.147   5.254   7.074  0.0282  1.7352  1.9631
  920SOL    HW2 6549   6.265   5.177   7.131 -0.6773 -1.7646 -0.9552
  921SOL     OW 6550   3.067   1.765   3.684 -0.3036  0.5576 -0.0211
  921SOL    HW1 6551   3.137   1.699   3.681  0.1340  1.0492 -0.9216
  921SOL    HW2 6552   3.070   1.808   3.599 -2.5207 -0.2289 -0.5767
  922SOL     OW 6553   3.152   6.100   2.093 -0.2585 -0.3317  0.1023
  922SOL    HW1 6554   3.070   6.060   2.064 -1.4677  1.3517  1.0164
  922SOL    HW2 6555   3.140   6.112   2.188  0.8374  0.4301  0.1625
  923SOL     OW 6556   8.821   8.989   4.284 -0.0034  0.2129 -0.1170
  923SOL    HW1 6557   8.802   9.037   4.365  0.7338  0.5493 -0.1379
  923SOL    HW2 6558   8.765   9.031   4.218 -0.1473  0.3447  0.0869
  924SOL     OW 6559   8.886   3.932   3.335  0.0774 -0.4432  0.3178
  924SOL    HW1 6560   8.974   3.894   3.340  0.1376 -0.1956  1.1572
  924SOL    HW2 6561   8.899   4.016   3.291  0.5929  0.5599  2.2901
  925SOL     OW 6562   5.738   5.432   2.497 -0.1258  0.5576 -0.3449
  925SOL    HW1 6563   5.755   5.362   2.433 -1.4114  0.2809 -0.3924
  925SOL    HW2 6564   5.696   5.388   2.570  1.5078  0.8421  0.8213
  926SOL     OW 6565   8.493   6.049   2.484 -0.1580  1.0853  0.0045
  926SOL    HW1 6566   8.437   5.979   2.451  0.3385  1.3315 -1.4064
  926SOL    HW2 6567   8.432   6.109   2.528 -0.6613  0.1040  0.6974
  927SOL     OW 6568   4.951   2.399   2.221 -0.4036  0.7053 -0.3900
  927SOL    HW1 6569   5.019   2.364   2.278 -0.7840  0.8464  0.1612
  927SOL    HW2 6570   4.875   2.343   2.237 -1.0018  1.7262  0.4646
  928SOL     OW 6571   0.711   0.252   8.745  0.6162 -0.3109 -0.1692
  928SOL    HW1 6572   0.787   0.224   8.693  0.6990  0.4231 -0.4451
  928SOL    HW2 6573   0.736   0.234   8.836  1.2728  0.2866 -0.2292
  929SOL     OW 6574   8.760   1.594  10.180  0.3272 -0.4699 -0.4389
  929SOL    HW1 6575   8.730   1.685  10.191  1.1591 -0.0926 -1.1666
  929SOL    HW2 6576   8.742   1.553  10.264 -0.6356  0.2016 -0.2977
  930SOL     OW 6577   4.347   9.927   8.559  0.2440 -0.0662 -0.4035
  930SOL    HW1 6578   4.341   9.831   8.555  0.2138 -0.0694 -0.2644
  930SOL    HW2 6579   4.272   9.957   8.508  0.1673 -0.1159 -0.3206
  931SOL     OW 6580   9.059   4.868   6.632 -0.4482 -0.6536  0.6634
  931SOL    HW1 6581   8.969   4.863   6.665 -0.1299 -0.4680  1.6178
  931SOL    HW2 6582   9.084   4.960   6.645 -0.5423 -0.4121 -0.7829
  932SOL     OW 6583   4.553   4.008   2.299  0.2190 -0.2842 -0.3709
  932SOL    HW1 6584   4.467   4.038   2.271 -1.0667 -0.6544  2.7186
  932SOL    HW2 6585   4.536   3.929   2.350  2.2456  0.0753  1.0104
  933SOL     OW 6586   6.645   2.866   3.792  0.4215  0.0358 -0.9456
  933SOL    HW1 6587   6.603   2.784   3.816 -2.0718  1.6354  0.6679
  933SOL    HW2 6588   6.582   2.910   3.735 -0.0468  2.2982  1.1274
  934SOL     OW 6589   7.704   7.420   8.738  0.2095  0.0035  0.5792
  934SOL    HW1 6590   7.673   7.404   8.827 -2.0984  0.4205 -0.0871
  934SOL    HW2 6591   7.727   7.333   8.705 -0.3900 -0.3466  1.0652
  935SOL     OW 6592   8.778   2.429   1.252 -0.0246  0.1468  0.2309
  935SOL    HW1 6593   8.721   2.363   1.213  0.1723 -0.0571  0.2811
  935SOL    HW2 6594   8.780   2.407   1.345 -1.1656  1.1405  0.5025
  936SOL     OW 6595   0.558   7.707   0.981  0.5639 -0.2050 -0.3703
  936SOL    HW1 6596   0.509   7.696   0.899  0.7450 -1.7238 -0.3021
  936SOL    HW2 6597   0.604   7.624   0.993  0.0543 -0.2505  1.6080
  937SOL     OW 6598   4.414   5.698   9.844 -0.3500  0.0981  0.2866
  937SOL    HW1 6599   4.488   5.724   9.789 -0.6344  0.5714  0.1207
  937SOL    HW2 6600   4.407   5.768   9.909 -1.6294  0.8848 -0.6499
  938SOL     OW 6601   9.673   5.916   9.542  0.2093 -0.0214 -0.1344
  938SOL    HW1 6602   9.682   5.991   9.600 -0.2444  1.0712 -1.4258
  938SOL    HW2 6603   9.757   5.910   9.497  0.7829 -1.2461  1.0229
  939SOL     OW 6604   3.659   6.028   6.022  0.5921  0.2806  0.5185
  939SOL    HW1 6605   3.564   6.023   6.030  0.6975 -1.8747  1.0099
  939SOL    HW2 6606   3.676   6.022   5.928  0.2678 -0.0429  0.4791
  940SOL     OW 6607  10.049   2.728   8.472  0.1949 -0.6787  0.1610
  940SOL    HW1 6608  10.028   2.795   8.537  1.4120 -0.6861  0.5891
  940SOL    HW2 6609  10.055   2.776   8.389 -0.6674 -0.5520  0.1704
  941SOL     OW 6610   4.530   8.442  10.359 -0.7688  0.4891  0.6073
  941SOL    HW1 6611   4.495   8.505  10.422 -2.4311  0.1388  0.0898
  941SOL    HW2 6612   4.515   8.481  10.273 -0.8331 -0.1200  0.3299
  942SOL     OW 6613   4.583   3.016   6.632  0.2691  0.1793 -0.8546
  942SOL    HW1 6614   4.595   3.109   6.646 -0.0847 -0.2022  2.9866
  942SOL    HW2 6615   4.502   2.994   6.679  1.0037 -2.2341 -0.5561
  943SOL     OW 6616   1.362   2.210   1.990 -0.0626  0.3018 -0.2916
  943SOL    HW1 6617   1.390   2.121   1.972 -0.0050  0.0814  0.8116
  943SOL    HW2 6618   1.288   2.201   2.050 -1.5044  0.9339 -1.8783
  944SOL     OW 6619   8.584   4.261   9.342 -0.0126 -0.2707  0.4772
  944SOL    HW1 6620   8.629   4.185   9.305 -1.6016 -0.7675 -0.5443
  944SOL    HW2 6621   8.518   4.224   9.401 -0.0691  0.3674  0.8267
  945SOL     OW 6622   1.836   5.549   1.961 -0.4736  0.1906 -0.1233
  945SOL    HW1 6623   1.863   5.568   1.872  0.1555  0.4060  0.1062
  945SOL    HW2 6624   1.836   5.453   1.967  2.5307  0.1292  0.5046
  946SOL     OW 6625   7.062   3.230   8.569 -0.5520 -0.4143  0.0556
  946SOL    HW1 6626   7.016   3.160   8.523 -0.7354  0.9346 -1.9944
  946SOL    HW2 6627   7.036   3.310   8.522  0.4025  0.9222  1.6698
  947SOL     OW 6628   2.412   6.395   7.496  0.1665  0.6085 -0.3774
  947SOL    HW1 6629   2.451   6.328   7.553  0.8399 -0.8997 -2.5157
  947SOL    HW2 6630   2.338   6.429   7.547 -1.0926 -2.7609  0.3230
  948SOL     OW 6631   7.204   7.931   1.655 -0.0621  0.2271 -0.1687
  948SOL    HW1 6632   7.258   7.984   1.714  0.0062 -1.2778  1.1874
  948SOL    HW2 6633   7.198   7.983   1.575  2.2847  1.0379  0.1055
  949SOL     OW 6634   1.621   9.399   9.431  0.6552  0.5457  0.3191
  949SOL    HW1 6635   1.639   9.337   9.501  1.2944 -0.1237 -0.4103
  949SOL    HW2 6636   1.681   9.472   9.448  0.1007  0.8501  1.0192
  950SOL     OW 6637   4.344   2.632   4.864  0.2468  0.2494 -0.7812
  950SOL    HW1 6638   4.379   2.719   4.887 -2.1460  0.5588  2.1680
  950SOL    HW2 6639   4.276   2.650   4.800 -0.6153  0.6643  0.2254
  951SOL     OW 6640   5.105   6.450   4.591  0.3864  0.3163 -0.2784
  951SOL    HW1 6641   5.158   6.371   4.598 -1.7652 -1.2744 -0.8753
  951SOL    HW2 6642   5.056   6.453   4.674  1.2338  1.7048  0.2229
  952SOL     OW 6643   6.665   6.825   0.959  0.3404  0.4220  0.0004
  952SOL    HW1 6644   6.656   6.898   1.020 -2.3368  0.0042  0.2152
  952SOL    HW2 6645   6.591   6.836   0.898  1.5037 -0.5753 -1.6648
  953SOL     OW 6646   9.464   8.793   2.157  0.3958  0.1037 -0.1526
  953SOL    HW1 6647   9.551   8.802   2.197 -0.0208  0.5970  0.6740
  953SOL    HW2 6648   9.421   8.725   2.207 -0.1805  0.8193  0.3477
  954SOL     OW 6649   7.261   6.093   0.006  0.4555 -0.1943 -0.1184
  954SOL    HW1 6650   7.257   6.003   0.038  1.7991  0.3536  1.7666
  954SOL    HW2 6651   7.261   6.085  -0.089  0.6122 -2.1878  0.0169
  955SOL     OW 6652  10.346   0.538   6.490 -0.8510  0.4375 -0.6498
  955SOL    HW1 6653  10.361   0.632   6.480 -0.5131  0.4922  0.2242
  955SOL    HW2 6654  10.432   0.503   6.516 -1.5269  0.3184  1.6982
  956SOL     OW 6655   4.414   2.543   5.493  0.1305 -0.0551  0.0957
  956SOL    HW1 6656   4.410   2.623   5.439  0.0418 -0.1385 -0.0213
  956SOL    HW2 6657   4.498   2.549   5.538  0.6566 -0.4770 -0.8105
  957SOL     OW 6658   6.305   2.317   0.598  0.0224  0.2607 -0.0093
  957SOL    HW1 6659   6.300   2.384   0.666  0.0356  0.2549 -0.0028
  957SOL    HW2 6660   6.325   2.236   0.645 -0.3693  0.1814  0.0259
  958SOL     OW 6661   4.922   2.155   6.594  0.4108 -0.5195  0.0181
  958SOL    HW1 6662   4.885   2.103   6.523  0.6518 -0.2668 -0.2942
  958SOL    HW2 6663   4.979   2.094   6.641  0.0424 -0.7592  0.1609
  959SOL     OW 6664   7.947   6.410   9.269  0.1910  0.5197 -0.5504
  959SOL    HW1 6665   8.034   6.442   9.245  1.1685 -0.8556  1.0108
  959SOL    HW2 6666   7.905   6.486   9.311  1.6277  0.4789  1.0472
  960SOL     OW 6667   1.546   4.319   2.149 -0.2025 -0.1180  0.3224
  960SOL    HW1 6668   1.472   4.283   2.101 -0.4065 -0.0976  0.6178
  960SOL    HW2 6669   1.584   4.383   2.090  1.3787 -2.1852 -1.0249
  961SOL     OW 6670   9.946   7.777   4.169  0.1477 -0.3873 -0.0188
  961SOL    HW1 6671  10.000   7.727   4.231  1.9820 -0.1380 -1.3344
  961SOL    HW2 6672  10.002   7.850   4.143 -0.6885 -0.3212 -1.7101
  962SOL     OW 6673   7.356   2.205   5.848  0.2926  0.2228  0.0452
  962SOL    HW1 6674   7.304   2.258   5.788  0.4291 -1.6475 -1.8170
  962SOL    HW2 6675   7.399   2.140   5.793  1.8368 -0.5017  1.9656
  963SOL     OW 6676   2.848   5.098   6.553 -0.5356  0.0344  0.0775
  963SOL    HW1 6677   2.921   5.129   6.607  1.0595 -1.7206 -0.9254
  963SOL    HW2 6678   2.829   5.010   6.588 -0.3113 -0.6204 -1.3921
  964SOL     OW 6679   2.263   1.569   4.613 -0.2480  0.1009  0.2187
  964SOL    HW1 6680   2.237   1.630   4.682 -0.6875 -0.2640  0.3799
  964SOL    HW2 6681   2.197   1.500   4.616  0.1511 -0.2969 -0.0735
  965SOL     OW 6682   4.373   1.042   1.515  0.0441  0.2785 -0.0213
  965SOL    HW1 6683   4.300   0.995   1.474  0.8796 -0.9322 -0.1946
  965SOL    HW2 6684   4.332   1.111   1.566 -1.2227 -0.3984 -0.0803
  966SOL     OW 6685   2.389   2.012   8.603 -0.9612 -0.3413  0.2954
  966SOL    HW1 6686   2.465   1.986   8.550  0.3720  2.4612  0.6716
  966SOL    HW2 6687   2.359   2.093   8.563 -2.8366 -0.5835  1.1140
  967SOL     OW 6688   0.479   1.863   8.247 -0.2149  0.6582  0.3692
  967SOL    HW1 6689   0.474   1.788   8.306  0.8240 -0.3735 -0.8161
  967SOL    HW2 6690   0.438   1.834   8.166 -1.3244  1.9515  0.4210
  968SOL     OW 6691   6.054   3.190   1.265  0.2888  0.0471 -0.4539
  968SOL    HW1 6692   6.032   3.194   1.172  0.5862 -0.4913 -0.5467
  968SOL    HW2 6693   5.979   3.233   1.308  0.4031  0.7925 -0.9700
  969SOL     OW 6694   1.784   2.988   9.345 -0.1417 -0.2275  0.4038
  969SOL    HW1 6695   1.805   3.011   9.255  1.9357 -0.5163  0.7720
  969SOL    HW2 6696   1.756   2.897   9.341  1.4573 -0.7384  0.2090
  970SOL     OW 6697   9.615   1.107   5.688  0.3387 -0.2355  0.4924
  970SOL    HW1 6698   9.710   1.104   5.682  0.2779 -0.3478 -0.6977
  970SOL    HW2 6699   9.597   1.166   5.761  1.3263 -1.6835  1.9702
  971SOL     OW 6700   3.207  10.140   0.148  0.0158  0.3520  0.3641
  971SOL    HW1 6701   3.182  10.081   0.077 -0.6860 -0.9907  1.6741
  971SOL    HW2 6702   3.224  10.082   0.222  1.6646  1.6447  1.0592
  972SOL     OW 6703   3.816   3.363   0.776 -0.3753  0.3902  0.0757
  972SOL    HW1 6704   3.730   3.347   0.815  0.0135  0.7143  1.0841
  972SOL    HW2 6705   3.814   3.312   0.695 -1.3970  0.1372  0.2359
  973SOL     OW 6706   5.646   9.067   6.506  0.0133  0.2483 -0.0699
  973SOL    HW1 6707   5.694   9.144   6.535  0.4652  0.5823 -1.6509
  973SOL    HW2 6708   5.712   8.998   6.498 -0.1335  0.1135 -0.1450
  974SOL     OW 6709   7.959   0.773   6.138 -0.1243 -0.0226  0.0892
  974SOL    HW1 6710   8.004   0.800   6.058  0.0760 -0.1933  0.1443
  974SOL    HW2 6711   8.028   0.765   6.203 -0.1079 -1.1040 -0.0345
  975SOL     OW 6712   1.016   5.744   7.811 -0.1115  0.2499  0.3253
  975SOL    HW1 6713   0.997   5.776   7.899  0.7459  1.7863 -0.0206
  975SOL    HW2 6714   1.010   5.821   7.755  1.4413 -0.2767 -0.6464
  976SOL     OW 6715   3.569   1.555   3.732  0.5068 -0.0699 -0.1861
  976SOL    HW1 6716   3.594   1.464   3.750 -2.3337 -1.0185 -0.5049
  976SOL    HW2 6717   3.578   1.564   3.637 -0.6144 -0.5572 -0.3620
  977SOL     OW 6718   8.482   8.097   6.550 -0.3654 -0.1429 -0.2509
  977SOL    HW1 6719   8.559   8.080   6.605 -0.7056  0.0479  0.2953
  977SOL    HW2 6720   8.420   8.140   6.609 -0.7793 -0.0305 -0.7645
  978SOL     OW 6721   8.472   7.390  10.084  0.3028 -0.0082 -0.4357
  978SOL    HW1 6722   8.481   7.473  10.130  0.5711 -0.4739  0.3887
  978SOL    HW2 6723   8.378   7.382  10.067 -0.0233 -0.4759  1.3431
  979SOL     OW 6724   4.645   8.281   0.631 -0.2177  0.3194 -0.2143
  979SOL    HW1 6725   4.672   8.206   0.685  0.8805  1.2256  0.5266
  979SOL    HW2 6726   4.710   8.348   0.648 -0.9108  1.2932 -1.2543
  980SOL     OW 6727   2.366   6.843   2.931  0.2181  0.4215 -0.3478
  980SOL    HW1 6728   2.440   6.881   2.978  0.7844  0.0894 -0.9703
  980SOL    HW2 6729   2.310   6.807   3.000  1.0665 -0.1125  0.0781
  981SOL     OW 6730   1.240   9.209   8.884 -0.1820 -0.1337  0.7335
  981SOL    HW1 6731   1.182   9.133   8.877 -1.1478  0.6808 -1.2614
  981SOL    HW2 6732   1.219   9.248   8.969  0.8856 -2.4480  2.1368
  982SOL     OW 6733   0.824   1.347   2.089  0.5090  0.0032  0.0557
  982SOL    HW1 6734   0.905   1.324   2.044 -0.0400 -0.4878 -0.7017
  982SOL    HW2 6735   0.828   1.300   2.173  1.6013  1.0423  0.6077
  983SOL     OW 6736   6.784   3.920   0.842 -0.0948 -0.7758  0.2557
  983SOL    HW1 6737   6.716   3.985   0.862  2.4152  1.8052  1.0955
  983SOL    HW2 6738   6.781   3.911   0.747 -0.9398  0.0975  0.1847
  984SOL     OW 6739   6.474   6.307   7.148 -0.2738 -0.5083  0.7767
  984SOL    HW1 6740   6.483   6.400   7.171 -0.3021 -0.1836 -0.4587
  984SOL    HW2 6741   6.555   6.267   7.178  1.0030  0.4714 -1.2022
  985SOL     OW 6742   3.194   0.935   4.135 -0.3096  0.0941 -0.0531
  985SOL    HW1 6743   3.171   0.944   4.228 -1.6375  2.8338 -0.5164
  985SOL    HW2 6744   3.111   0.915   4.092  0.3246 -1.3279 -0.6769
  986SOL     OW 6745   1.727   9.441   6.984  0.6600  0.3364 -0.2634
  986SOL    HW1 6746   1.742   9.350   6.955  0.0811 -0.1208  0.8284
  986SOL    HW2 6747   1.810   9.485   6.965  1.2858 -0.6566  0.0510
  987SOL     OW 6748   1.090   5.072   4.212  0.3012  0.5255  0.1071
  987SOL    HW1 6749   1.019   5.054   4.151  0.3232  1.9476 -0.3921
  987SOL    HW2 6750   1.062   5.032   4.294 -0.8494  0.6348 -0.2099
  988SOL     OW 6751   4.442   6.251   2.881 -0.0746 -0.2304 -0.0115
  988SOL    HW1 6752   4.430   6.176   2.823  1.0599 -1.0271  0.7397
  988SOL    HW2 6753   4.515   6.300   2.842 -0.1002 -0.1187  0.0805
  989SOL     OW 6754   6.450   4.473   7.145  0.0226  0.1871  0.0719
  989SOL    HW1 6755   6.509   4.425   7.087  0.3369  1.6572 -0.8783
  989SOL    HW2 6756   6.498   4.554   7.166 -0.5455  0.1869  1.4899
  990SOL     OW 6757   8.505   8.237   1.012 -0.0287  0.2706 -1.0521
  990SOL    HW1 6758   8.514   8.309   0.949 -1.6414  0.1322 -1.4816
  990SOL    HW2 6759   8.430   8.187   0.980 -0.4175 -0.2316  0.5803
  991SOL     OW 6760   0.117   1.497  10.229  0.0166 -0.0866 -0.4614
  991SOL    HW1 6761   0.067   1.438  10.285  1.9124 -2.2016 -0.8458
  991SOL    HW2 6762   0.207   1.489  10.260  0.4092  2.3460 -0.8183
  992SOL     OW 6763   9.725   9.247   8.951  0.5808  0.1180  0.7277
  992SOL    HW1 6764   9.819   9.230   8.949  0.5701  0.0993 -1.4085
  992SOL    HW2 6765   9.687   9.172   8.905 -0.1222  1.8902 -1.7932
  993SOL     OW 6766   1.181   5.395  10.261  0.7179  0.0346 -0.2281
  993SOL    HW1 6767   1.163   5.474  10.313 -0.6328 -1.6343  2.0226
  993SOL    HW2 6768   1.121   5.402  10.186 -0.0968  0.7028  0.4564
  994SOL     OW 6769   4.609   6.595   0.598  0.1251 -0.6861 -0.2457
  994SOL    HW1 6770   4.618   6.526   0.663  1.2211 -1.4679 -1.1904
  994SOL    HW2 6771   4.547   6.560   0.534 -0.0315 -0.4146 -0.2438
  995SOL     OW 6772   2.200   5.303   0.918  0.3829  0.1049  0.0232
  995SOL    HW1 6773   2.158   5.223   0.948  0.5906 -0.4026 -1.0044
  995SOL    HW2 6774   2.286   5.274   0.885  1.1373  0.9743  1.1371
  996SOL     OW 6775   4.567   5.575   1.303 -0.0566 -0.0871 -0.1856
  996SOL    HW1 6776   4.627   5.568   1.228  1.1890 -0.3263  0.7995
  996SOL    HW2 6777   4.573   5.666   1.330  0.8508 -0.3861  0.6809
  997SOL     OW 6778   4.688   1.438   1.279  0.0654  0.0758 -0.5938
  997SOL    HW1 6779   4.659   1.527   1.301 -0.5693  0.1522 -1.6433
  997SOL    HW2 6780   4.778   1.448   1.249 -0.4852  0.6363 -2.1968
  998SOL     OW 6781   7.884   1.110   1.279 -0.2689 -0.5589 -0.6567
  998SOL    HW1 6782   7.914   1.038   1.224 -0.8088 -1.9266  0.7633
  998SOL    HW2 6783   7.964   1.146   1.317  0.0232 -0.2434 -1.5457
  999SOL     OW 6784   2.793   4.679  10.112  0.0194 -0.3858 -0.2023
  999SOL    HW1 6785   2.771   4.615  10.180  1.3831 -1.1518 -0.4452
  999SOL    HW2 6786   2.789   4.764  10.156 -1.7966 -0.6091  0.1307
 1000SOL     OW 6787  10.291   4.796   0.210 -0.1424  0.0552  0.0112
 1000SOL    HW1 6788  10.200   4.768   0.205 -0.0692 -0.1097 -0.4514
 1000SOL    HW2 6789  10.329   4.743   0.280 -0.2894 -0.1930 -0.0961
 1001SOL     OW 6790   1.523   2.041   5.456  0.4400  0.2991 -0.2604
 1001SOL    HW1 6791   1.577   1.962   5.456  1.0088  0.6785 -0.3952
 1001SOL    HW2 6792   1.488   2.046   5.545  1.0682  0.3304 -0.0069
 1002SOL     OW 6793   2.718   8.200   9.524 -0.2205 -0.2305 -0.3631
 1002SOL    HW1 6794   2.676   8.225   9.442  1.3319  0.0983 -1.0811
 1002SOL    HW2 6795   2.695   8.108   9.535 -1.3644  0.0146 -0.5741
 1003SOL     OW 6796   8.792   8.017  10.022 -0.3774  0.2645  0.2745
 1003SOL    HW1 6797   8.780   7.922  10.016 -1.7182  0.4113  0.4378
 1003SOL    HW2 6798   8.743   8.052   9.948 -1.3895  0.9325  1.2426
 1004SOL     OW 6799   6.282   4.457  10.045  0.4104  0.2013 -0.0981
 1004SOL    HW1 6800   6.233   4.377  10.063  1.2029 -0.4673 -0.8317
 1004SOL    HW2 6801   6.356   4.428   9.992  1.4813  1.2238  0.8020
 1005SOL     OW 6802   6.218   2.974   9.736  0.5455  0.1927  0.2615
 1005SOL    HW1 6803   6.147   3.025   9.774 -0.0258  0.0283 -0.5447
 1005SOL    HW2 6804   6.211   2.989   9.642  0.4835 -1.1842  0.0130
 1006SOL     OW 6805   9.862   0.976   8.163 -0.3899  0.1340  0.0961
 1006SOL    HW1 6806   9.791   0.949   8.221 -1.4366  1.2395 -0.6390
 1006SOL    HW2 6807   9.875   0.901   8.105 -0.6197 -0.2596  0.5476
 1007SOL     OW 6808   7.561   1.935   1.220  0.9123  0.4445  0.4693
 1007SOL    HW1 6809   7.540   1.968   1.132  1.6846 -1.7528 -0.6264
 1007SOL    HW2 6810   7.480   1.894   1.250  0.5742  1.4193  0.9088
 1008SOL     OW 6811   5.966   5.144   2.107  0.0421 -0.1950  0.0825
 1008SOL    HW1 6812   6.053   5.108   2.094  0.4666  0.4353  1.0602
 1008SOL    HW2 6813   5.924   5.139   2.021  1.3150  0.2441 -0.5823
 1009SOL     OW 6814   9.001   3.721   9.513  0.4027  0.3469  0.0518
 1009SOL    HW1 6815   8.968   3.676   9.591  0.7768  1.0606  0.6331
 1009SOL    HW2 6816   9.019   3.651   9.450  0.9491 -0.3105  0.9264
 1010SOL     OW 6817   0.525   5.635   9.637  0.0729  0.2235 -0.2637
 1010SOL    HW1 6818   0.440   5.632   9.680  0.5923 -0.8651  0.7320
 1010SOL    HW2 6819   0.528   5.556   9.583  0.1551  0.6537 -0.9043
 1011SOL     OW 6820   0.431   6.670   8.999  0.1848 -0.5076 -0.3068
 1011SOL    HW1 6821   0.449   6.585   9.039 -2.0792 -0.9994 -0.2354
 1011SOL    HW2 6822   0.475   6.666   8.914  0.2469 -1.6798 -0.2320
 1012SOL     OW 6823   0.298   6.662   1.095 -0.5720  0.2360 -0.7476
 1012SOL    HW1 6824   0.265   6.701   1.176  0.8523 -0.7034  0.3190
 1012SOL    HW2 6825   0.219   6.636   1.047 -1.4452  1.1276  0.1576
 1013SOL     OW 6826   6.754   0.480   5.302 -0.3412  0.1120  0.0285
 1013SOL    HW1 6827   6.686   0.500   5.367  0.6013 -0.4735  1.2299
 1013SOL    HW2 6828   6.835   0.476   5.353  0.1098 -2.7244 -0.7526
 1014SOL     OW 6829   5.150   4.855   3.934 -0.3030 -0.0210  0.6104
 1014SOL    HW1 6830   5.205   4.918   3.980  0.1992  0.2570 -0.3340
 1014SOL    HW2 6831   5.203   4.775   3.931  0.5252  0.5416 -1.1884
 1015SOL     OW 6832   4.011   2.077   2.978 -0.3335 -0.6837  0.2397
 1015SOL    HW1 6833   4.075   2.015   2.944  0.9287  0.3390  0.6673
 1015SOL    HW2 6834   3.947   2.023   3.024  0.7136 -1.6702  0.5862
 1016SOL     OW 6835   5.151   3.984   3.989 -0.3869  0.4450 -0.2611
 1016SOL    HW1 6836   5.229   4.034   3.964  0.1313  0.2958  0.9777
 1016SOL    HW2 6837   5.097   4.047   4.037  0.7128 -0.3349  2.1775
 1017SOL     OW 6838   2.784   0.337   4.062  0.4799  0.2460 -0.0303
 1017SOL    HW1 6839   2.813   0.259   4.108  1.3720  0.9647  0.6569
 1017SOL    HW2 6840   2.704   0.310   4.017  1.5351 -1.4634 -0.9843
 1018SOL     OW 6841   7.810   9.935   4.591  0.4061  0.1318 -0.0430
 1018SOL    HW1 6842   7.868   9.950   4.516  1.2451  1.0445  0.7767
 1018SOL    HW2 6843   7.867   9.937   4.667 -0.7967  2.0629  0.8830
 1019SOL     OW 6844   1.344   7.823   6.507 -0.2602  0.2692  0.4814
 1019SOL    HW1 6845   1.353   7.906   6.552 -0.3014  0.9845 -0.7960
 1019SOL    HW2 6846   1.428   7.809   6.462  0.4633 -1.3275  2.1805
 1020SOL     OW 6847   7.198   0.597   8.478  0.5834  0.1986  0.0435
 1020SOL    HW1 6848   7.229   0.660   8.414 -0.4445  1.3632  0.6575
 1020SOL    HW2 6849   7.147   0.534   8.427  2.6656 -0.9296 -0.7589
 1021SOL     OW 6850   6.982   1.565   0.236  0.0004  0.4898 -0.0457
 1021SOL    HW1 6851   6.948   1.508   0.304  1.5081  0.5907  0.8336
 1021SOL    HW2 6852   7.056   1.610   0.276  0.3453  1.2662 -1.4583
 1022SOL     OW 6853   0.498   3.270   6.854  0.7751  0.2995 -0.0016
 1022SOL    HW1 6854   0.591   3.287   6.865  1.3584 -1.5988 -1.4261
 1022SOL    HW2 6855   0.494   3.192   6.798 -1.6672  0.6273 -0.4115
 1023SOL     OW 6856   2.524   5.686   2.668 -0.0034 -0.3158 -0.1986
 1023SOL    HW1 6857   2.494   5.750   2.732  0.5171 -1.7294  1.5670
 1023SOL    HW2 6858   2.516   5.602   2.713  1.3281 -1.2852 -1.6409
 1024SOL     OW 6859   7.627   4.648   4.749  0.2903  0.3867 -0.1573
 1024SOL    HW1 6860   7.669   4.702   4.817  1.1817 -1.9929  1.3087
 1024SOL    HW2 6861   7.699   4.603   4.706 -0.5085 -1.7210  0.5750
 1025SOL     OW 6862   2.607   2.052   1.723  0.4903  0.2249 -0.6624
 1025SOL    HW1 6863   2.656   1.979   1.684  1.3230  1.0360 -1.1840
 1025SOL    HW2 6864   2.541   2.010   1.778  0.5201 -0.9239 -1.4737
 1026SOL     OW 6865   0.658   9.286   8.252  0.2882 -0.6829  0.1637
 1026SOL    HW1 6866   0.600   9.353   8.216  3.0019  2.5907  1.2986
 1026SOL    HW2 6867   0.610   9.250   8.326 -1.0958  0.3979 -0.1675
 1027SOL     OW 6868   7.490   5.955   9.680  0.2884  0.1454 -0.2678
 1027SOL    HW1 6869   7.453   5.946   9.592  0.9298  0.9295 -0.6342
 1027SOL    HW2 6870   7.582   5.976   9.665  0.1376  1.5078  0.5519
 1028SOL     OW 6871  10.183   0.073   7.562 -0.5491 -0.2044  0.1609
 1028SOL    HW1 6872  10.269   0.074   7.605  0.1190 -0.6510 -1.1019
 1028SOL    HW2 6873  10.189   0.143   7.496 -1.9147  1.1725  1.4021
 1029SOL     OW 6874   5.395   2.953   1.004 -0.1484  0.4484 -0.2174
 1029SOL    HW1 6875   5.332   3.016   0.969 -0.1158 -0.2034 -1.5043
 1029SOL    HW2 6876   5.412   2.893   0.931  0.6092 -0.4366  0.6592
 1030SOL     OW 6877   4.385   2.504   3.918 -0.1286  0.1257 -0.1479
 1030SOL    HW1 6878   4.400   2.409   3.919  1.6632  0.3724 -0.7559
 1030SOL    HW2 6879   4.367   2.524   3.826  2.3417  0.7271 -0.5625
 1031SOL     OW 6880   0.527   8.196   2.217 -0.3189  0.0834 -0.8432
 1031SOL    HW1 6881   0.569   8.245   2.287 -2.4008 -0.1401  0.6569
 1031SOL    HW2 6882   0.544   8.248   2.138 -1.2293  2.5283  0.4486
 1032SOL     OW 6883   8.247   9.436   3.085 -0.0874 -0.3085  0.3670
 1032SOL    HW1 6884   8.162   9.411   3.122  0.5750  0.3185  2.4780
 1032SOL    HW2 6885   8.241   9.530   3.072  0.0935 -0.3497 -0.0084
 1033SOL     OW 6886   2.984   1.856   0.069  0.0279 -0.4175 -0.3378
 1033SOL    HW1 6887   2.896   1.882   0.098  0.4692  1.6933 -0.6998
 1033SOL    HW2 6888   3.003   1.916  -0.004  0.4712 -3.0374 -2.5257
 1034SOL     OW 6889   4.674   1.666   7.756 -0.0712 -0.2515  0.0814
 1034SOL    HW1 6890   4.666   1.593   7.817  1.0224  0.0815  0.6570
 1034SOL    HW2 6891   4.633   1.740   7.801 -0.5247 -0.3382 -0.1889
 1035SOL     OW 6892   7.173   0.491   1.684  0.0349  0.2334  0.2213
 1035SOL    HW1 6893   7.126   0.492   1.601 -1.0208  1.5179  0.7990
 1035SOL    HW2 6894   7.247   0.432   1.669 -0.5318 -0.1143 -1.3969
 1036SOL     OW 6895   0.901   6.367   3.795  0.0774 -0.4377  0.1925
 1036SOL    HW1 6896   0.895   6.459   3.770  0.8528 -0.7276 -1.1417
 1036SOL    HW2 6897   0.919   6.369   3.889  1.2861  0.8167 -0.0342
 1037SOL     OW 6898   9.071   2.000   4.980 -0.6948 -0.5587  0.1398
 1037SOL    HW1 6899   9.148   1.980   4.927 -2.3014  0.2240 -2.6974
 1037SOL    HW2 6900   9.035   2.080   4.941 -1.3517  0.8241  3.2503
 1038SOL     OW 6901   8.157   2.397   4.534 -0.2636 -0.0158 -0.4688
 1038SOL    HW1 6902   8.180   2.439   4.617  1.5179 -2.2126  0.2383
 1038SOL    HW2 6903   8.157   2.468   4.471  0.6483  1.3602  0.9973
 1039SOL     OW 6904   8.749   8.536   5.038 -0.2983  0.2875  0.1299
 1039SOL    HW1 6905   8.748   8.619   5.086 -0.4488 -0.1556  0.9236
 1039SOL    HW2 6906   8.842   8.519   5.021  0.0300 -0.7193  2.4351
 1040SOL     OW 6907   4.755   9.755   3.579  0.3942  0.4038 -0.1567
 1040SOL    HW1 6908   4.706   9.829   3.544 -0.0352  0.0016 -0.4150
 1040SOL    HW2 6909   4.786   9.707   3.502  1.3226  0.7269 -0.0006
 1041SOL     OW 6910   4.310   2.071   5.105 -0.3252  0.5463 -0.1555
 1041SOL    HW1 6911   4.250   2.022   5.050  0.4341  0.4287 -0.8960
 1041SOL    HW2 6912   4.347   2.005   5.165  1.4476 -0.0485 -1.8002
 1042SOL     OW 6913   0.831   9.219   6.993 -0.3006  0.3836  0.1359
 1042SOL    HW1 6914   0.762   9.271   7.034 -0.1240 -0.6111  1.8004
 1042SOL    HW2 6915   0.799   9.129   6.999  0.9685 -0.0634  0.6553
 1043SOL     OW 6916   3.459   3.842   3.020  0.1360 -0.7022 -1.2929
 1043SOL    HW1 6917   3.406   3.851   2.941 -0.1019  0.9415 -0.9717
 1043SOL    HW2 6918   3.404   3.876   3.090  1.6397  1.2764 -0.9927
 1044SOL     OW 6919   7.878   5.629   3.144 -0.2786  0.2881 -0.8769
 1044SOL    HW1 6920   7.966   5.639   3.179 -0.6016  0.5316 -0.1133
 1044SOL    HW2 6921   7.890   5.579   3.063  0.4415 -0.7694 -0.1506
 1045SOL     OW 6922   9.993   0.369   8.452  0.1023 -0.2032  0.1662
 1045SOL    HW1 6923  10.068   0.317   8.479 -1.8074 -1.9821  2.4667
 1045SOL    HW2 6924   9.919   0.308   8.454 -1.6928  1.8058 -0.4643
 1046SOL     OW 6925   0.001   4.121   0.451 -0.0883 -0.4132 -0.2405
 1046SOL    HW1 6926  -0.078   4.075   0.424 -0.2499  1.0766 -2.5505
 1046SOL    HW2 6927   0.025   4.175   0.376  1.7767  0.9974  1.2499
 1047SOL     OW 6928   4.619   2.684   1.913 -0.0692  0.5890 -0.1721
 1047SOL    HW1 6929   4.636   2.746   1.983 -0.4179 -0.9297  1.3149
 1047SOL    HW2 6930   4.536   2.643   1.937  0.8223 -1.4170 -0.3489
 1048SOL     OW 6931   0.450   3.706   7.950  0.0668  0.0638 -0.2055
 1048SOL    HW1 6932   0.446   3.622   7.906  0.0141 -0.3604  0.5811
 1048SOL    HW2 6933   0.531   3.747   7.918  1.4879 -1.3989  1.3151
 1049SOL     OW 6934   9.044   0.608   2.867 -0.0615 -0.4215 -0.2231
 1049SOL    HW1 6935   8.983   0.677   2.843  0.0551 -0.5537 -0.9370
 1049SOL    HW2 6936   9.029   0.593   2.960  0.2826  0.9216  0.0695
 1050SOL     OW 6937   4.398   4.387   3.929 -0.7101 -0.2003  0.0879
 1050SOL    HW1 6938   4.484   4.344   3.925  0.6777  2.4447 -0.9569
 1050SOL    HW2 6939   4.394   4.425   4.016 -0.3739  0.4843 -0.1893
 1051SOL     OW 6940   2.776   6.328   1.356 -0.4155 -0.0914 -0.8092
 1051SOL    HW1 6941   2.760   6.364   1.269 -1.5185  1.5893  0.0228
 1051SOL    HW2 6942   2.765   6.403   1.415  0.5513 -1.1202  0.7590
 1052SOL     OW 6943   7.226   2.465   2.437 -0.2737 -0.3168 -0.1389
 1052SOL    HW1 6944   7.238   2.408   2.361  0.3718  1.5427 -1.5178
 1052SOL    HW2 6945   7.212   2.552   2.400 -1.1628  0.4714  1.8747
 1053SOL     OW 6946   6.618   9.272   9.482 -0.2835 -0.0798 -0.4154
 1053SOL    HW1 6947   6.590   9.206   9.545  0.3618  0.2309  0.2047
 1053SOL    HW2 6948   6.541   9.327   9.468 -0.5505 -0.4036 -0.2238
 1054SOL     OW 6949   5.504   3.599   7.652  0.5219  0.2018 -0.4796
 1054SOL    HW1 6950   5.418   3.623   7.685  0.7787  0.2196  0.2028
 1054SOL    HW2 6951   5.487   3.531   7.586  0.0946 -1.4680  1.2454
 1055SOL     OW 6952   4.618   3.220   5.373 -0.3617 -0.2712  0.1167
 1055SOL    HW1 6953   4.670   3.145   5.403  0.3188  0.2635  0.3172
 1055SOL    HW2 6954   4.564   3.244   5.448 -0.8154 -0.7545 -0.0513
 1056SOL     OW 6955   8.242  10.348   1.299 -0.3413  0.0181  0.3477
 1056SOL    HW1 6956   8.240  10.265   1.251 -1.6142  0.8703 -1.1526
 1056SOL    HW2 6957   8.173  10.400   1.259 -0.8331  1.1325  2.5232
 1057SOL     OW 6958   7.533   3.128   2.037  0.2039 -0.5270 -0.7170
 1057SOL    HW1 6959   7.456   3.082   2.073  0.8654 -1.2466 -0.1613
 1057SOL    HW2 6960   7.505   3.157   1.951 -0.9552 -0.0730 -0.2122
 1058SOL     OW 6961   4.247   5.518   7.730  0.0185  0.0528  0.0085
 1058SOL    HW1 6962   4.229   5.440   7.784 -0.1478  0.2438  0.2287
 1058SOL    HW2 6963   4.205   5.590   7.777  0.7461  0.3874  0.1627
 1059SOL     OW 6964   4.884   8.169   2.534 -0.3848 -0.4464  0.6535
 1059SOL    HW1 6965   4.941   8.199   2.464 -0.7729 -3.6878 -1.2778
 1059SOL    HW2 6966   4.836   8.247   2.562  2.7527  1.7851  0.2979
 1060SOL     OW 6967   9.297   8.018   5.007 -0.4901 -0.3703 -0.2543
 1060SOL    HW1 6968   9.383   8.056   4.985  0.3968 -1.5253  1.0634
 1060SOL    HW2 6969   9.238   8.093   5.011  0.4848  0.4667 -1.0090
 1061SOL     OW 6970   7.697   3.627   5.105  0.2938 -0.0842 -0.4768
 1061SOL    HW1 6971   7.748   3.696   5.148  0.5314 -0.3917 -0.2600
 1061SOL    HW2 6972   7.623   3.673   5.066  1.2846  0.5274 -1.7020
 1062SOL     OW 6973   3.517   1.456   5.169 -0.1895  0.5362 -0.2676
 1062SOL    HW1 6974   3.457   1.388   5.198  0.5616  0.4323  1.1230
 1062SOL    HW2 6975   3.465   1.536   5.172 -0.4509  0.3547  0.2969
 1063SOL     OW 6976   1.325   8.906   9.239 -0.0201  0.4958  0.2402
 1063SOL    HW1 6977   1.405   8.933   9.193  0.3297 -1.1997 -0.2185
 1063SOL    HW2 6978   1.357   8.858   9.316 -0.5741 -0.4931 -0.1274
 1064SOL     OW 6979   5.579  10.091   8.279  0.4700 -0.2249 -0.3681
 1064SOL    HW1 6980   5.589   9.996   8.274  1.6298 -0.2038  0.8982
 1064SOL    HW2 6981   5.653  10.120   8.332 -1.3704  1.0661  1.7104
 1065SOL     OW 6982   0.821   2.492   2.364 -0.0938 -0.0172  0.4491
 1065SOL    HW1 6983   0.804   2.543   2.285  0.7608 -0.8998 -0.3189
 1065SOL    HW2 6984   0.806   2.554   2.436 -0.5155  0.8974 -0.4049
 1066SOL     OW 6985   9.256   0.025   8.542 -0.0672  0.0404 -0.0850
 1066SOL    HW1 6986   9.305   0.066   8.613  0.8866 -1.8912  0.4353
 1066SOL    HW2 6987   9.207   0.097   8.502 -1.1617  1.1092  2.9039
 1067SOL     OW 6988   0.685   8.949  10.022  0.6599  0.2743  0.1429
 1067SOL    HW1 6989   0.639   8.894  10.086  0.7212 -1.1501 -0.9619
 1067SOL    HW2 6990   0.757   8.989  10.071 -1.6591  2.5497  1.9201
 1068SOL     OW 6991   0.441   8.157   2.830 -0.1997 -0.0063 -0.0684
 1068SOL    HW1 6992   0.441   8.075   2.780 -1.9601 -0.4090  0.5131
 1068SOL    HW2 6993   0.522   8.153   2.882 -0.4515 -1.5970  0.2691
 1069SOL     OW 6994   0.617   7.057   8.137 -0.1895  0.0646  0.5494
 1069SOL    HW1 6995   0.604   7.143   8.177 -1.0633  0.0898  0.2340
 1069SOL    HW2 6996   0.597   6.994   8.207 -0.1961  0.1140  0.5913
 1070SOL     OW 6997   0.409   4.722   5.461 -0.1211 -0.4134 -0.1807
 1070SOL    HW1 6998   0.360   4.770   5.528  0.3715 -0.7859  0.4595
 1070SOL    HW2 6999   0.433   4.639   5.503 -0.0274 -0.7653 -0.9088
 1071SOL     OW 7000   9.916   0.414   8.879  0.3480  0.1422 -0.4458
 1071SOL    HW1 7001  10.001   0.457   8.885  0.1460  0.3959  0.9112
 1071SOL    HW2 7002   9.854   0.485   8.861  0.4816 -0.1409 -2.2563
 1072SOL     OW 7003   2.897   0.802   3.079 -0.0912  0.1419 -0.5024
 1072SOL    HW1 7004   2.805   0.825   3.062  0.1925  0.7449 -1.2775
 1072SOL    HW2 7005   2.928   0.764   2.997  0.3289 -0.1472 -0.2110
 1073SOL     OW 7006   4.978   3.524   2.639  0.4995 -0.3217 -0.7773
 1073SOL    HW1 7007   4.961   3.430   2.645  0.4278 -0.2568  0.1757
 1073SOL    HW2 7008   5.026   3.544   2.719  1.0063  0.3532 -1.2447
 1074SOL     OW 7009   2.177   6.174   6.654 -0.4533  0.0330 -0.5888
 1074SOL    HW1 7010   2.134   6.110   6.598  0.5385 -1.0415 -0.1448
 1074SOL    HW2 7011   2.269   6.151   6.653 -0.1818  0.9722  0.2083
 1075SOL     OW 7012   4.659   3.673   2.223 -0.1079  0.2577 -0.5120
 1075SOL    HW1 7013   4.596   3.709   2.285 -0.3609 -0.8054 -0.1427
 1075SOL    HW2 7014   4.744   3.702   2.256 -0.3724  1.8595 -1.1207
 1076SOL     OW 7015   6.117   7.606   8.395 -0.0592  0.2444  0.5182
 1076SOL    HW1 7016   6.048   7.665   8.424  1.3624  3.2327 -1.6304
 1076SOL    HW2 7017   6.158   7.575   8.476 -1.7779  1.0789  1.7546
 1077SOL     OW 7018   9.952   0.545   1.946 -0.3009  0.1908  0.6749
 1077SOL    HW1 7019  10.044   0.561   1.965 -0.9685  1.2374  3.4563
 1077SOL    HW2 7020   9.910   0.631   1.953 -1.8455 -0.6122  1.9387
 1078SOL     OW 7021   4.321   1.199   9.759 -0.5202 -0.3872  0.5700
 1078SOL    HW1 7022   4.374   1.247   9.822  1.3750  1.2860 -2.1116
 1078SOL    HW2 7023   4.329   1.248   9.678  0.8815 -4.7051 -2.2534
 1079SOL     OW 7024   8.601   1.796   4.716  0.3634 -0.0397  0.0862
 1079SOL    HW1 7025   8.658   1.853   4.767  0.2959  0.2323 -0.1391
 1079SOL    HW2 7026   8.599   1.836   4.629 -2.3819  1.5639  0.7816
 1080SOL     OW 7027   5.189   7.790   1.004  0.2928 -0.0328 -0.4578
 1080SOL    HW1 7028   5.115   7.780   1.064  0.0669  2.2890 -0.2716
 1080SOL    HW2 7029   5.260   7.823   1.060  0.6228  0.4165 -1.1317
 1081SOL     OW 7030   8.249   4.645   6.164  0.2463  0.6294  0.4001
 1081SOL    HW1 7031   8.240   4.552   6.145 -1.8807  1.3036 -2.7651
 1081SOL    HW2 7032   8.329   4.652   6.215  1.7788 -2.7063 -1.2643
 1082SOL     OW 7033   6.542   3.756   3.103 -0.1463 -0.2344 -0.2566
 1082SOL    HW1 7034   6.615   3.714   3.058  0.5992 -0.4080  1.0681
 1082SOL    HW2 7035   6.575   3.842   3.129 -0.5023 -0.1963  0.0896
 1083SOL     OW 7036   1.441   1.395   3.429  0.0307  0.0493  0.1650
 1083SOL    HW1 7037   1.454   1.462   3.362  0.4132 -0.0202  0.1673
 1083SOL    HW2 7038   1.423   1.444   3.509 -0.6319  0.1279 -0.0286
 1084SOL     OW 7039   0.166   8.757   8.501 -0.0703 -0.4657 -0.0899
 1084SOL    HW1 7040   0.129   8.677   8.463 -1.9691  0.1711  0.3166
 1084SOL    HW2 7041   0.183   8.813   8.426 -1.0573 -0.3319 -0.2279
 1085SOL     OW 7042   7.435   6.528   8.690 -0.2967 -0.7282 -0.0672
 1085SOL    HW1 7043   7.370   6.524   8.761  0.9057  0.1726  1.1608
 1085SOL    HW2 7044   7.411   6.607   8.641 -0.9973 -1.2209 -0.5188
 1086SOL     OW 7045   0.825   1.042   8.288  0.1132 -0.0319  0.2254
 1086SOL    HW1 7046   0.885   1.006   8.224 -0.8586 -1.6573  0.1681
 1086SOL    HW2 7047   0.830   1.137   8.275 -0.0885 -0.2907 -2.2962
 1087SOL     OW 7048   4.825   2.491   5.629 -0.2058  0.0147 -0.0601
 1087SOL    HW1 7049   4.791   2.512   5.542 -1.5351 -1.3829  0.0703
 1087SOL    HW2 7050   4.750   2.499   5.687  0.3057 -0.5296  0.7036
 1088SOL     OW 7051   4.364   6.760   6.764 -0.3643 -0.4217 -0.1262
 1088SOL    HW1 7052   4.368   6.838   6.708 -0.3013 -1.5781 -1.7892
 1088SOL    HW2 7053   4.399   6.689   6.710 -1.3342 -1.8087  0.9962
 1089SOL     OW 7054   5.579   3.808   4.338 -0.2090 -0.4682  0.4919
 1089SOL    HW1 7055   5.519   3.740   4.368 -0.9879  0.0270  0.0686
 1089SOL    HW2 7056   5.533   3.851   4.266  0.1511  0.6980  0.9452
 1090SOL     OW 7057   4.762   9.043  10.306 -0.5294  0.2464  0.0752
 1090SOL    HW1 7058   4.848   9.031  10.266 -1.0072 -0.5930 -0.7369
 1090SOL    HW2 7059   4.764   8.990  10.386 -0.7552 -0.9165 -0.6681
 1091SOL     OW 7060   1.577   7.269   2.763  0.0957  0.2023 -0.1552
 1091SOL    HW1 7061   1.540   7.250   2.677  1.5303  0.3547 -0.8308
 1091SOL    HW2 7062   1.614   7.357   2.754  1.5165 -0.3339  0.1625
 1092SOL     OW 7063   5.128   1.144   7.627 -0.4858 -0.0156  0.3487
 1092SOL    HW1 7064   5.155   1.227   7.666 -0.5588  1.0230 -1.6690
 1092SOL    HW2 7065   5.038   1.131   7.655 -0.1941  0.1112  1.3865
 1093SOL     OW 7066   5.686   0.490   3.354 -0.0372  0.2324 -0.1581
 1093SOL    HW1 7067   5.635   0.565   3.384  0.5859  0.5373  0.1660
 1093SOL    HW2 7068   5.627   0.441   3.297 -2.0527 -1.4851  3.0466
 1094SOL     OW 7069   4.224   0.284   3.199 -0.2042  0.1429  0.0734
 1094SOL    HW1 7070   4.133   0.265   3.175 -0.1629  0.7494 -0.5848
 1094SOL    HW2 7071   4.245   0.364   3.151  1.3274 -1.0719 -1.3872
 1095SOL     OW 7072   5.680   4.912   7.504 -0.1740 -0.0125  0.4062
 1095SOL    HW1 7073   5.639   4.978   7.448 -0.3900  1.4362  2.1934
 1095SOL    HW2 7074   5.620   4.838   7.501 -0.7087  0.4324 -0.4382
 1096SOL     OW 7075   7.102   6.758   1.115  0.0051 -0.0385 -0.2054
 1096SOL    HW1 7076   7.114   6.772   1.021 -0.4364 -1.3122 -0.4661
 1096SOL    HW2 7077   7.109   6.663   1.126 -1.9372 -0.1005  0.7619
 1097SOL     OW 7078   1.519   8.965   1.471  0.5200 -0.0603 -0.0349
 1097SOL    HW1 7079   1.515   9.059   1.487  0.9467 -0.5637  4.0911
 1097SOL    HW2 7080   1.428   8.936   1.478  0.6486 -0.2102  1.2613
 1098SOL     OW 7081   5.695  10.221   0.293 -0.2808  0.3861  0.4377
 1098SOL    HW1 7082   5.731  10.154   0.351 -3.9799 -2.0665  0.2433
 1098SOL    HW2 7083   5.649  10.281   0.352 -0.2459  0.5105  0.3375
 1099SOL     OW 7084   0.021   7.729   8.712 -0.1342 -0.4481  0.6884
 1099SOL    HW1 7085   0.082   7.747   8.641 -0.4387  0.3485  0.6187
 1099SOL    HW2 7086  -0.036   7.660   8.678 -0.1575 -0.2055  0.2333
 1100SOL     OW 7087   5.274   2.047   9.774  0.0455  0.4701  0.0756
 1100SOL    HW1 7088   5.269   2.130   9.821  1.4255 -0.3349  1.7366
 1100SOL    HW2 7089   5.359   2.048   9.731 -0.6398  0.6083 -1.3416
 1101SOL     OW 7090   6.883   2.983   7.468  0.1504  0.6349 -0.2031
 1101SOL    HW1 7091   6.897   2.934   7.550  1.0332  0.2149 -0.5879
 1101SOL    HW2 7092   6.912   3.071   7.489 -0.6727  0.8104  0.2542
 1102SOL     OW 7093   9.354   9.886   9.469 -0.5517  0.0473  0.4745
 1102SOL    HW1 7094   9.407   9.810   9.443 -0.5855 -0.2842  1.3268
 1102SOL    HW2 7095   9.352   9.881   9.565 -2.9480 -0.5387  0.4643
 1103SOL     OW 7096   1.243   0.167   7.368  0.2049 -0.5268  0.0940
 1103SOL    HW1 7097   1.170   0.207   7.415 -0.5213 -0.0767 -1.3602
 1103SOL    HW2 7098   1.214   0.078   7.349 -0.5275  0.0449 -1.6003
 1104SOL     OW 7099   5.299   2.330   9.757 -0.1161  0.3018  0.3297
 1104SOL    HW1 7100   5.342   2.369   9.681 -1.2211  0.5258 -0.2003
 1104SOL    HW2 7101   5.338   2.374   9.832  0.4510  0.6175 -0.1405
 1105SOL     OW 7102   7.316   6.189   4.905 -0.0912  0.2416  0.6733
 1105SOL    HW1 7103   7.369   6.140   4.968 -0.8644 -0.8153  0.5233
 1105SOL    HW2 7104   7.236   6.138   4.896 -1.4597  2.1563  1.4170
 1106SOL     OW 7105   1.804   4.379   2.412  0.4899  0.4911 -0.1637
 1106SOL    HW1 7106   1.771   4.377   2.502  1.1257  2.4457  0.1674
 1106SOL    HW2 7107   1.729   4.411   2.360  0.5768  0.8085 -0.0930
 1107SOL     OW 7108   0.593   0.378  10.318  0.7332 -0.0282 -0.2320
 1107SOL    HW1 7109   0.591   0.414  10.406  0.8193  0.7087 -0.5236
 1107SOL    HW2 7110   0.536   0.301  10.322  0.3402  0.2857  0.3383
 1108SOL     OW 7111   6.363   4.694   6.909  0.0010 -0.2183  0.1144
 1108SOL    HW1 7112   6.414   4.661   6.835 -0.3731  0.5072 -0.4787
 1108SOL    HW2 7113   6.327   4.777   6.878 -1.0424 -0.4299  0.7303
 1109SOL     OW 7114   6.690   6.019   2.880  0.1159 -0.0876 -0.0534
 1109SOL    HW1 7115   6.691   5.927   2.854  1.2131  0.1163 -0.7807
 1109SOL    HW2 7116   6.750   6.062   2.819 -0.8149  1.2126 -0.0697
 1110SOL     OW 7117   7.654   3.268   7.862 -0.3835 -0.1633  0.4838
 1110SOL    HW1 7118   7.659   3.345   7.805 -1.2573  0.4332  1.1831
 1110SOL    HW2 7119   7.735   3.220   7.845 -0.1368  0.5672 -0.4539
 1111SOL     OW 7120   3.310   7.762   8.191  0.4107 -0.4746  0.3416
 1111SOL    HW1 7121   3.289   7.755   8.098  1.0343 -0.6892  0.2079
 1111SOL    HW2 7122   3.226   7.761   8.236  0.1490 -1.8263 -0.1312
 1112SOL     OW 7123   6.667  10.344   8.803  0.3189 -0.3664  0.2913
 1112SOL    HW1 7124   6.591  10.290   8.827 -0.5249  1.1951  1.3177
 1112SOL    HW2 7125   6.743  10.288   8.818 -0.4901 -1.0771  1.8948
 1113SOL     OW 7126   3.642   8.070   1.396 -0.1094  0.0510  0.2744
 1113SOL    HW1 7127   3.625   8.026   1.313 -0.6976 -0.3420  0.5902
 1113SOL    HW2 7128   3.576   8.034   1.456 -1.9903  2.8703  0.0448
 1114SOL     OW 7129   8.107   5.448   6.889 -0.3787  0.5883 -0.3353
 1114SOL    HW1 7130   8.137   5.412   6.805  1.0631  0.9115  0.0166
 1114SOL    HW2 7131   8.086   5.371   6.942  0.8937  0.2986 -0.2289
 1115SOL     OW 7132   6.839   1.204   5.270 -0.4407  0.2578  0.0340
 1115SOL    HW1 7133   6.807   1.178   5.357 -0.9817 -1.9976 -0.7761
 1115SOL    HW2 7134   6.781   1.160   5.209  0.8396  0.5929 -1.4922
 1116SOL     OW 7135   5.725   0.594   0.874  0.2707  0.3933  0.5210
 1116SOL    HW1 7136   5.731   0.563   0.784 -0.0450  0.1149  0.5915
 1116SOL    HW2 7137   5.722   0.513   0.926  1.3088  0.5422  0.8451
 1117SOL     OW 7138   2.432   0.321   6.289  0.0456 -0.5642 -0.0606
 1117SOL    HW1 7139   2.450   0.279   6.372 -0.6593 -0.8816 -0.0564
 1117SOL    HW2 7140   2.336   0.330   6.287  0.0269 -0.8259 -0.9547
 1118SOL     OW 7141  10.329   2.993   4.039  0.2649  0.4658 -0.4207
 1118SOL    HW1 7142  10.312   3.050   3.964  0.8267 -1.5246 -2.1555
 1118SOL    HW2 7143  10.249   2.940   4.046  0.3132  0.4831  0.2507
 1119SOL     OW 7144   9.335   8.795   9.387 -0.1717  0.3661  0.6011
 1119SOL    HW1 7145   9.335   8.703   9.414 -0.3439  0.1378 -0.1625
 1119SOL    HW2 7146   9.288   8.796   9.304  2.4832  0.6664 -0.9980
 1120SOL     OW 7147   5.596   2.304   6.437  0.0352  0.1589 -0.4543
 1120SOL    HW1 7148   5.664   2.237   6.429 -0.0175  0.1177 -0.5555
 1120SOL    HW2 7149   5.515   2.260   6.411  0.1875  0.5929 -1.7297
 1121SOL     OW 7150   8.032   4.082   2.519 -0.5158 -0.0709  0.0976
 1121SOL    HW1 7151   8.011   4.112   2.607  2.5901  1.9214  0.2922
 1121SOL    HW2 7152   8.023   4.160   2.464 -0.7476 -0.8920 -1.0751
 1122SOL     OW 7153   8.669   9.611   1.932  0.3081 -0.1822 -0.1207
 1122SOL    HW1 7154   8.696   9.611   2.024  0.6093 -1.2756 -0.2005
 1122SOL    HW2 7155   8.612   9.535   1.924 -0.1401  0.2101 -0.7299
 1123SOL     OW 7156   5.877   9.940   8.247 -0.4574  0.8137  0.1403
 1123SOL    HW1 7157   5.912   9.851   8.257  0.1555  1.0244 -0.0274
 1123SOL    HW2 7158   5.880   9.977   8.335 -0.6589  0.6888  0.2006
 1124SOL     OW 7159   0.995   4.074   0.269  0.6271 -0.0501 -0.1329
 1124SOL    HW1 7160   0.953   4.084   0.183 -0.4584 -1.6719  0.1571
 1124SOL    HW2 7161   0.952   4.138   0.325  0.0966 -0.1834 -0.3850
 1125SOL     OW 7162   3.968   4.717   5.841 -0.1723  0.1242  0.1559
 1125SOL    HW1 7163   4.047   4.741   5.793 -0.5075  3.3168  1.0148
 1125SOL    HW2 7164   3.951   4.790   5.900 -3.3219 -0.8115  0.6333
 1126SOL     OW 7165   1.220   6.919   2.884  0.3552 -0.3084 -0.0867
 1126SOL    HW1 7166   1.275   6.967   2.946  0.1387  2.3188 -1.7951
 1126SOL    HW2 7167   1.211   6.832   2.923  2.4762  0.3705  2.1637
 1127SOL     OW 7168   3.227   3.758   2.422 -0.4730  0.4467 -1.2781
 1127SOL    HW1 7169   3.278   3.678   2.434  0.3239  0.7724 -2.3612
 1127SOL    HW2 7170   3.176   3.742   2.343 -2.0357  0.1603 -0.2680
 1128SOL     OW 7171   4.303   8.975   4.546 -0.2651  0.7095 -0.3270
 1128SOL    HW1 7172   4.297   9.067   4.570  0.5016  0.7511 -0.2709
 1128SOL    HW2 7173   4.362   8.937   4.612  1.0062  0.5979 -1.4908
 1129SOL     OW 7174   0.588   5.333   5.056 -0.2525 -0.2018 -0.0484
 1129SOL    HW1 7175   0.621   5.252   5.094 -1.6599 -0.8569 -0.1593
 1129SOL    HW2 7176   0.645   5.401   5.092  2.0452 -1.3630 -1.2968
 1130SOL     OW 7177   7.005   4.198   5.093 -0.2304 -0.0577 -0.1601
 1130SOL    HW1 7178   6.951   4.211   5.015 -1.1890 -0.0689  0.4773
 1130SOL    HW2 7179   7.082   4.252   5.078 -1.2284  1.3985 -0.3484
 1131SOL     OW 7180   1.481   4.318   6.167 -0.0341 -0.3891  0.0155
 1131SOL    HW1 7181   1.459   4.243   6.221  1.2441 -2.6880 -2.3873
 1131SOL    HW2 7182   1.401   4.337   6.118 -0.1792 -0.6178  0.1611
 1132SOL     OW 7183   9.985   1.460   7.588 -0.4686  0.1767  0.0185
 1132SOL    HW1 7184  10.006   1.509   7.509 -1.5228  1.2798  0.3875
 1132SOL    HW2 7185   9.920   1.396   7.560  1.0500 -1.1900 -0.5040
 1133SOL     OW 7186   9.005  10.113   4.597 -0.4216 -0.0680  0.1729
 1133SOL    HW1 7187   8.956  10.104   4.515  1.0376 -1.0821 -0.6272
 1133SOL    HW2 7188   8.959  10.056   4.659 -1.4992  0.6564  0.0626
 1134SOL     OW 7189   8.804   6.054   3.837 -0.5600 -0.2199  0.3295
 1134SOL    HW1 7190   8.884   6.093   3.873 -0.3223  1.2427 -1.6314
 1134SOL    HW2 7191   8.734   6.090   3.891 -0.1653  1.4000 -0.1947
 1135SOL     OW 7192   7.932   7.648   0.554 -0.1683 -0.1151 -0.3273
 1135SOL    HW1 7193   7.928   7.564   0.508 -0.6292 -1.8696  2.6633
 1135SOL    HW2 7194   8.014   7.688   0.524 -1.0506 -0.4489 -3.5650
 1136SOL     OW 7195   7.164   1.472   8.584 -1.0096 -0.1376  0.0883
 1136SOL    HW1 7196   7.155   1.560   8.622  0.7497 -0.9118  2.5808
 1136SOL    HW2 7197   7.151   1.413   8.658  1.4604 -1.8297 -0.7049
 1137SOL     OW 7198   0.936   7.002   9.359 -0.3815  0.1039 -0.2073
 1137SOL    HW1 7199   0.943   6.928   9.420 -0.9432  1.3506  1.4205
 1137SOL    HW2 7200   0.850   6.991   9.319 -0.9271  0.4374  0.8296
 1138SOL     OW 7201   3.452   5.175   8.457  0.3487 -0.2282  0.0636
 1138SOL    HW1 7202   3.458   5.108   8.525  0.8379 -1.0026 -0.7215
 1138SOL    HW2 7203   3.519   5.240   8.482  0.2013 -0.2676  0.5684
 1139SOL     OW 7204   9.007   9.501   1.560 -0.1382  0.4952  0.1410
 1139SOL    HW1 7205   9.045   9.570   1.507  0.7099  1.3380  1.7630
 1139SOL    HW2 7206   8.916   9.528   1.574  0.0223  0.9642  0.2648
 1140SOL     OW 7207   2.996   2.762   2.359 -0.1533  0.2656 -0.2134
 1140SOL    HW1 7208   2.960   2.841   2.319 -0.2028 -0.0470 -0.7942
 1140SOL    HW2 7209   2.954   2.690   2.313 -1.0938 -0.1228  1.1927
 1141SOL     OW 7210  10.239   6.303   9.546  0.6812  0.3513  0.4889
 1141SOL    HW1 7211  10.260   6.378   9.490 -0.3575 -0.0846 -0.5297
 1141SOL    HW2 7212  10.277   6.325   9.631  2.2163  1.0852 -0.3412
 1142SOL     OW 7213   9.090   7.165   2.992  0.2869 -0.4711 -0.2701
 1142SOL    HW1 7214   9.049   7.116   3.063 -0.1541  0.2011 -0.0519
 1142SOL    HW2 7215   9.165   7.208   3.034 -0.4740  0.6257  0.0068
 1143SOL     OW 7216   1.901   4.169   0.091  0.5077 -0.6215 -0.1200
 1143SOL    HW1 7217   1.944   4.254   0.096  1.3135 -1.1010  2.3970
 1143SOL    HW2 7218   1.833   4.172   0.158  2.0127 -2.6808  1.6060
 1144SOL     OW 7219   9.230   8.671   6.390  0.3017 -0.5099  0.1507
 1144SOL    HW1 7220   9.151   8.716   6.423  0.6918 -1.2720  2.2991
 1144SOL    HW2 7221   9.298   8.738   6.392 -0.0873 -0.0640 -0.9304
 1145SOL     OW 7222   3.807   4.386   3.050 -0.6707 -0.1853 -0.4596
 1145SOL    HW1 7223   3.762   4.351   2.973 -0.2486 -1.3344 -0.2035
 1145SOL    HW2 7224   3.805   4.314   3.113  0.1007  0.3088  0.1392
 1146SOL     OW 7225   2.718   9.663   7.677 -0.0635  0.1073 -0.5383
 1146SOL    HW1 7226   2.685   9.738   7.628  2.1419  1.6723  0.2108
 1146SOL    HW2 7227   2.698   9.683   7.768  1.6649  0.4483 -0.2051
 1147SOL     OW 7228   5.552   3.458   4.699 -0.9119 -0.6280 -0.2173
 1147SOL    HW1 7229   5.618   3.517   4.733  1.3956 -2.2243 -1.6188
 1147SOL    HW2 7230   5.474   3.475   4.751 -0.4807  3.7121 -0.6784
 1148SOL     OW 7231   9.858   9.113   2.377 -0.1170  0.1019 -0.1872
 1148SOL    HW1 7232   9.914   9.136   2.451  1.3620  0.4903 -1.3911
 1148SOL    HW2 7233   9.915   9.064   2.317 -1.7101 -1.7290 -0.3275
 1149SOL     OW 7234   1.848  10.276   8.529  0.1929  0.2213  0.4109
 1149SOL    HW1 7235   1.756  10.266   8.508 -0.2118  2.1726  1.0057
 1149SOL    HW2 7236   1.894  10.258   8.447 -0.7746 -0.0517 -0.0812
 1150SOL     OW 7237   1.661   3.808   9.042  0.5421  0.6393 -0.5818
 1150SOL    HW1 7238   1.701   3.788   8.958  2.0841 -0.6136  0.4061
 1150SOL    HW2 7239   1.693   3.741   9.102 -0.5183  1.4753  1.0310
 1151SOL     OW 7240   1.905   3.257   9.108 -0.4300 -0.0117 -0.4490
 1151SOL    HW1 7241   1.970   3.251   9.178  0.5006 -1.2985 -1.3996
 1151SOL    HW2 7242   1.913   3.347   9.076  0.2272  0.1161  0.0487
 1152SOL     OW 7243   3.837   7.042   1.187 -0.3846  0.0815  0.0552
 1152SOL    HW1 7244   3.880   7.086   1.113  0.9641 -0.4933  0.4704
 1152SOL    HW2 7245   3.864   7.093   1.263 -0.1692 -0.4614  0.3505
 1153SOL     OW 7246   2.570   5.026   8.218 -0.4417  0.7051  0.5708
 1153SOL    HW1 7247   2.584   5.094   8.285  0.3500 -1.2636  2.5163
 1153SOL    HW2 7248   2.497   4.975   8.250 -0.9548  0.5314 -0.8174
 1154SOL     OW 7249   1.963   0.113   6.000  0.1284  0.0678 -1.0323
 1154SOL    HW1 7250   2.029   0.122   5.931 -0.4612  0.8769 -1.5230
 1154SOL    HW2 7251   1.893   0.173   5.973  0.0126  0.6278  0.4349
 1155SOL     OW 7252   8.751   6.991   2.487  0.0472  0.0843 -0.4501
 1155SOL    HW1 7253   8.830   7.018   2.441  0.3314 -0.9761 -0.6097
 1155SOL    HW2 7254   8.680   7.037   2.443  0.5881  1.1865 -0.1852
 1156SOL     OW 7255   4.552   0.783   4.895 -0.2008  0.5758 -0.3292
 1156SOL    HW1 7256   4.597   0.788   4.811 -0.6298  0.0216 -0.6018
 1156SOL    HW2 7257   4.511   0.869   4.905  0.0294  0.7179 -0.5863
 1157SOL     OW 7258   6.289   6.641   8.548  0.2961 -0.0017  0.4234
 1157SOL    HW1 7259   6.384   6.642   8.555  0.5416 -1.4787 -1.7923
 1157SOL    HW2 7260   6.270   6.569   8.488 -2.1505  1.0158 -0.1417
 1158SOL     OW 7261   6.987   8.699   6.731  0.3798 -0.1474 -0.1035
 1158SOL    HW1 7262   6.910   8.677   6.678 -0.5368  0.9021  0.7521
 1158SOL    HW2 7263   6.969   8.660   6.817  1.3430 -0.8612 -0.1958
 1159SOL     OW 7264   4.637   4.243   6.464  0.6881 -0.3428  0.2847
 1159SOL    HW1 7265   4.621   4.167   6.520 -0.3704 -1.2741 -1.2392
 1159SOL    HW2 7266   4.671   4.207   6.383 -1.1001  0.6680 -0.9710
 1160SOL     OW 7267   5.722   3.262   2.151 -0.3321  0.0616  0.4324
 1160SOL    HW1 7268   5.751   3.333   2.094  1.2022  0.4239  1.5930
 1160SOL    HW2 7269   5.688   3.196   2.091  0.0363  0.9601 -0.8090
 1161SOL     OW 7270   3.255   6.955   0.225  0.2852  0.1207  0.2295
 1161SOL    HW1 7271   3.287   6.865   0.221  3.0560  0.8885  2.0854
 1161SOL    HW2 7272   3.163   6.947   0.250  0.4387 -2.1815  0.2525
 1162SOL     OW 7273   5.295   6.329   8.163  0.3488  0.4163  0.1574
 1162SOL    HW1 7274   5.218   6.384   8.148 -0.6365 -0.8443  0.4740
 1162SOL    HW2 7275   5.281   6.293   8.251  0.6796 -0.8052 -0.2790
 1163SOL     OW 7276   9.451   7.291   2.784 -0.4261  0.0823 -0.1284
 1163SOL    HW1 7277   9.464   7.208   2.739  1.9901 -0.5183  1.4911
 1163SOL    HW2 7278   9.477   7.358   2.720  0.5283 -0.6074 -0.4848
 1164SOL     OW 7279   9.525   2.085   6.644  0.8523  0.0098 -0.0924
 1164SOL    HW1 7280   9.526   2.010   6.584 -0.6800 -0.5119  0.4943
 1164SOL    HW2 7281   9.546   2.048   6.730 -2.4397 -0.2975  0.6997
 1165SOL     OW 7282   9.217   6.437  10.174 -0.1328 -0.0655  0.0291
 1165SOL    HW1 7283   9.166   6.417  10.096  0.1040  2.0352 -0.7387
 1165SOL    HW2 7284   9.289   6.373  10.173 -0.1041 -0.0365 -1.5238
 1166SOL     OW 7285   4.846   4.543   8.844  0.3169 -0.0792  0.3911
 1166SOL    HW1 7286   4.927   4.569   8.801 -0.4050  1.3573 -0.1397
 1166SOL    HW2 7287   4.784   4.527   8.773 -0.5726  1.2800  0.8204
 1167SOL     OW 7288   0.986   3.106   2.242 -0.1081  0.3243  0.2414
 1167SOL    HW1 7289   1.007   3.133   2.152 -1.9455  0.6148 -0.1322
 1167SOL    HW2 7290   0.905   3.055   2.234 -0.3124  0.3680  1.7436
 1168SOL     OW 7291   8.454   5.296   6.158 -0.3209  0.3049 -0.0465
 1168SOL    HW1 7292   8.521   5.284   6.225 -0.4010 -0.3943 -0.0868
 1168SOL    HW2 7293   8.453   5.213   6.109 -0.2091  0.8240 -0.9631
 1169SOL     OW 7294   7.390   5.476   1.372 -0.5196  0.3010  0.1524
 1169SOL    HW1 7295   7.405   5.395   1.324  0.1829 -0.2321  1.2243
 1169SOL    HW2 7296   7.440   5.542   1.325  0.0292 -0.1800  0.0568
 1170SOL     OW 7297   2.466   3.063   9.783 -0.3913 -0.3631  0.2150
 1170SOL    HW1 7298   2.402   3.032   9.848 -1.2228 -2.2339 -1.4021
 1170SOL    HW2 7299   2.519   2.986   9.764  0.5851  0.4664 -0.4884
 1171SOL     OW 7300   2.033   7.880   0.413  0.0280 -0.6223  0.1953
 1171SOL    HW1 7301   1.994   7.804   0.370 -0.4252  0.1431 -0.8036
 1171SOL    HW2 7302   2.102   7.909   0.353  0.2461 -0.2860  0.6019
 1172SOL     OW 7303   2.484   3.716   1.151 -0.4020  0.2514  0.1669
 1172SOL    HW1 7304   2.461   3.639   1.203  2.4501 -2.0027 -1.5687
 1172SOL    HW2 7305   2.439   3.703   1.068 -0.0113  0.4848 -0.0856
 1173SOL     OW 7306   1.615   4.074   6.940 -0.4380 -0.0365  0.0792
 1173SOL    HW1 7307   1.629   3.988   6.899  0.9333 -0.1921  0.8249
 1173SOL    HW2 7308   1.593   4.054   7.030 -1.7561  0.3652 -0.1369
 1174SOL     OW 7309   5.376   4.576   5.602 -0.0153  0.0587 -0.0578
 1174SOL    HW1 7310   5.414   4.489   5.617 -1.6631 -0.5290  0.8869
 1174SOL    HW2 7311   5.289   4.558   5.566  0.7402  1.3762 -2.8566
 1175SOL     OW 7312   0.478   1.227   3.396 -0.3190  0.5479  0.3243
 1175SOL    HW1 7313   0.470   1.145   3.346  1.0593  0.1971  0.6515
 1175SOL    HW2 7314   0.465   1.296   3.330 -0.4588  0.0791 -0.1470
 1176SOL     OW 7315   9.873   7.860   0.352 -0.3509  0.1746 -0.4596
 1176SOL    HW1 7316   9.929   7.895   0.283  1.8197 -1.7073  0.2117
 1176SOL    HW2 7317   9.840   7.777   0.317  0.1403 -0.4176  0.4321
 1177SOL     OW 7318   8.399   7.811   8.458 -0.2731 -0.3034  0.0312
 1177SOL    HW1 7319   8.328   7.870   8.483  0.2224  0.5477 -0.5049
 1177SOL    HW2 7320   8.404   7.748   8.529  0.3651  1.3800  1.5656
 1178SOL     OW 7321   9.777   0.745   0.158 -0.2306 -0.4930 -0.5177
 1178SOL    HW1 7322   9.712   0.716   0.094 -0.1899  0.7627 -1.1644
 1178SOL    HW2 7323   9.752   0.700   0.239 -1.4662 -0.6001 -0.9283
 1179SOL     OW 7324   0.876   8.831   2.003 -0.5266  0.1544 -0.1015
 1179SOL    HW1 7325   0.781   8.846   2.002 -0.4677  0.5390 -0.3172
 1179SOL    HW2 7326   0.891   8.771   1.930 -0.4454  1.1984 -0.9866
 1180SOL     OW 7327   0.089   8.319  10.032  0.6285 -0.3315 -0.2748
 1180SOL    HW1 7328   0.037   8.387  10.073 -0.4757  0.0777 -2.2284
 1180SOL    HW2 7329   0.145   8.285  10.102 -0.2888  1.1291  1.2171
 1181SOL     OW 7330   2.875   4.013   8.811 -0.2016  0.3906 -0.1144
 1181SOL    HW1 7331   2.912   3.925   8.811 -0.8664  0.1012 -0.3653
 1181SOL    HW2 7332   2.946   4.070   8.780  1.4117  0.4825  3.2790
 1182SOL     OW 7333   8.115   9.454   9.943 -0.2997 -0.8420  0.5792
 1182SOL    HW1 7334   8.124   9.475  10.036  0.7329 -1.0947  0.5476
 1182SOL    HW2 7335   8.124   9.358   9.940  0.5047 -0.7594  0.1356
 1183SOL     OW 7336   4.315   4.754   3.921  1.0089 -0.5083  0.5805
 1183SOL    HW1 7337   4.350   4.718   4.003  1.6352 -1.3084 -0.0216
 1183SOL    HW2 7338   4.389   4.753   3.861  0.5104 -0.0753 -0.0554
 1184SOL     OW 7339   9.302   7.486   5.138  0.6155  0.8049  0.0086
 1184SOL    HW1 7340   9.289   7.409   5.194  0.7527  1.1632  0.5435
 1184SOL    HW2 7341   9.263   7.462   5.054 -1.7051  1.0773  0.9174
 1185SOL     OW 7342   9.755   8.881   9.155  0.1585 -0.1232 -0.1642
 1185SOL    HW1 7343   9.816   8.849   9.221  1.5586  0.6756 -1.0187
 1185SOL    HW2 7344   9.809   8.895   9.077 -1.5207 -1.6257 -1.7137
 1186SOL     OW 7345   6.812   3.905   1.955  0.0233  0.1461  0.2357
 1186SOL    HW1 7346   6.904   3.919   1.931 -0.2139  1.7276  0.1374
 1186SOL    HW2 7347   6.785   3.831   1.901  1.0149  0.1932 -0.3635
 1187SOL     OW 7348   0.375   2.257   0.021 -0.2544 -0.4559 -0.2314
 1187SOL    HW1 7349   0.407   2.269   0.111 -0.0849 -0.9404 -0.2226
 1187SOL    HW2 7350   0.430   2.314  -0.032  0.6412 -1.2741 -0.2119
 1188SOL     OW 7351   6.052   3.499   8.103  0.1829  0.1587 -0.1044
 1188SOL    HW1 7352   6.090   3.434   8.044 -1.2115 -0.5113 -0.3264
 1188SOL    HW2 7353   6.039   3.576   8.049 -0.4970 -0.2448 -0.5437
 1189SOL     OW 7354   3.252   9.201   3.758  0.0516  0.0749 -0.1906
 1189SOL    HW1 7355   3.264   9.108   3.775 -0.2463 -0.0041 -0.4149
 1189SOL    HW2 7356   3.159   9.211   3.740 -0.2232  0.6487  1.3209
 1190SOL     OW 7357   7.094   7.071   3.850 -0.0510  0.1349  0.1164
 1190SOL    HW1 7358   7.033   7.034   3.914  0.8697 -0.8625  0.4461
 1190SOL    HW2 7359   7.177   7.027   3.868  0.1188 -0.5752 -2.0886
 1191SOL     OW 7360   5.151   5.014   6.803 -0.6099  0.2501 -0.5416
 1191SOL    HW1 7361   5.204   4.961   6.862 -2.9893 -0.0770  1.4783
 1191SOL    HW2 7362   5.162   4.973   6.717  1.4025 -0.4892  0.0125
 1192SOL     OW 7363   6.144   5.524   2.979  0.3161 -0.0006  0.0165
 1192SOL    HW1 7364   6.083   5.458   3.011 -0.2891 -0.5274 -2.0919
 1192SOL    HW2 7365   6.230   5.491   3.005  0.1183 -2.2057 -1.8263
 1193SOL     OW 7366   8.831   3.842   9.117  0.0180  0.5914  0.6185
 1193SOL    HW1 7367   8.898   3.776   9.136  0.9145  1.4439  0.5409
 1193SOL    HW2 7368   8.867   3.892   9.044 -1.5005 -0.0100 -0.5853
 1194SOL     OW 7369   2.851   0.500   3.022  0.4563  0.6352 -0.2632
 1194SOL    HW1 7370   2.866   0.580   2.972  0.3084 -0.3719 -2.0007
 1194SOL    HW2 7371   2.900   0.433   2.974 -0.4190 -0.5332  0.4503
 1195SOL     OW 7372   1.914   9.102   0.256  0.6674 -0.3791  0.4888
 1195SOL    HW1 7373   1.992   9.047   0.247  1.3215  0.6464 -0.4145
 1195SOL    HW2 7374   1.931   9.156   0.333  1.2724  0.4361 -0.1839
 1196SOL     OW 7375   6.840   5.902   4.204 -0.1894 -0.3319  0.0813
 1196SOL    HW1 7376   6.882   5.910   4.290 -0.5125  1.7060  0.0906
 1196SOL    HW2 7377   6.788   5.822   4.211  0.2580 -0.5291  1.5713
 1197SOL     OW 7378   4.974   3.008   7.501  0.1117  0.2196 -0.3295
 1197SOL    HW1 7379   4.940   3.095   7.519 -0.6358 -0.2115  0.4323
 1197SOL    HW2 7380   4.910   2.949   7.541  0.1419 -0.7066 -1.5782
 1198SOL     OW 7381   3.775   5.190   3.080  0.0202 -0.3542  0.4380
 1198SOL    HW1 7382   3.702   5.251   3.090 -0.0713 -0.3656 -0.1439
 1198SOL    HW2 7383   3.838   5.217   3.147  0.6885  1.4109 -0.8394
 1199SOL     OW 7384  10.285  10.133   8.598  0.1429  0.1325  0.3691
 1199SOL    HW1 7385  10.338  10.110   8.674 -0.7931 -0.1726  0.9509
 1199SOL    HW2 7386  10.302  10.226   8.583  1.7148 -0.2062 -0.1830
 1200SOL     OW 7387  10.315   8.187   5.610  0.6499 -0.1798 -0.2879
 1200SOL    HW1 7388  10.338   8.160   5.521  1.2947 -0.2350 -0.1097
 1200SOL    HW2 7389  10.395   8.227   5.644 -0.3080  2.2483 -0.6322
 1201SOL     OW 7390   7.652   1.825   4.943 -0.0821 -0.1009  0.4606
 1201SOL    HW1 7391   7.618   1.735   4.947  0.6494 -0.4848 -1.0350
 1201SOL    HW2 7392   7.710   1.825   4.866 -0.1302  1.6771  0.3877
 1202SOL     OW 7393   3.267   7.114  10.344  0.3701 -1.1217 -0.3089
 1202SOL    HW1 7394   3.232   7.067  10.420 -1.2719 -1.0515 -0.9800
 1202SOL    HW2 7395   3.239   7.062  10.269  2.8421 -1.7562 -0.8738
 1203SOL     OW 7396   8.647   5.246   5.331 -0.4096  0.7433 -0.4115
 1203SOL    HW1 7397   8.575   5.210   5.383  1.6843 -0.6181  1.7491
 1203SOL    HW2 7398   8.678   5.172   5.279 -0.7078  1.3901 -1.5369
 1204SOL     OW 7399   0.639   9.725   7.233  0.0004  0.4931  0.1343
 1204SOL    HW1 7400   0.655   9.814   7.264  0.0221  1.0968 -1.5006
 1204SOL    HW2 7401   0.607   9.678   7.310  0.2201  1.8458  1.0851
 1205SOL     OW 7402   3.646   9.081   9.442 -0.2741  0.2234  0.4266
 1205SOL    HW1 7403   3.600   9.107   9.522 -0.3477 -0.1336  0.5000
 1205SOL    HW2 7404   3.599   9.004   9.410 -1.4092  1.4307 -0.9755
 1206SOL     OW 7405   4.766   2.910   0.979 -0.0374 -0.3847  0.5463
 1206SOL    HW1 7406   4.746   2.994   0.938 -0.8695 -0.7819  0.0952
 1206SOL    HW2 7407   4.858   2.917   1.004  0.2503  0.2206 -0.5627
 1207SOL     OW 7408   0.971   3.401   5.133 -0.2349 -0.4544  0.1200
 1207SOL    HW1 7409   0.993   3.378   5.223 -1.3226  0.5612  0.6717
 1207SOL    HW2 7410   1.055   3.402   5.087  0.5388  0.6377  1.5064
 1208SOL     OW 7411   6.459   5.171   7.786  0.2912 -0.2063  0.0958
 1208SOL    HW1 7412   6.510   5.226   7.726 -0.0581 -0.9757 -0.9191
 1208SOL    HW2 7413   6.496   5.084   7.776  0.2552 -0.3422  1.0492
 1209SOL     OW 7414   8.689   4.087   6.762  0.3342  0.1304 -0.0008
 1209SOL    HW1 7415   8.729   4.039   6.690 -0.6649 -0.9966  0.1513
 1209SOL    HW2 7416   8.761   4.134   6.803  1.3460 -1.1166 -0.2722
 1210SOL     OW 7417   2.466  10.120   7.742  0.1114  0.2020  0.9105
 1210SOL    HW1 7418   2.559  10.141   7.755 -0.2507  1.8315  1.0692
 1210SOL    HW2 7419   2.422  10.163   7.815 -0.9698  1.2773 -0.3367
 1211SOL     OW 7420   0.270   3.998   6.153 -0.0077  0.0188  0.4113
 1211SOL    HW1 7421   0.294   4.075   6.101  1.5949 -0.4589  0.4043
 1211SOL    HW2 7422   0.246   4.034   6.239 -0.6239  0.6313 -0.0044
 1212SOL     OW 7423   7.273   8.008   9.572  0.0657  0.0914  0.2796
 1212SOL    HW1 7424   7.205   7.945   9.596  1.4410 -1.4844  0.1972
 1212SOL    HW2 7425   7.347   7.954   9.544  0.9598  1.7781 -0.7463
 1213SOL     OW 7426   8.473   2.615   9.611 -0.4652 -0.1938 -0.5684
 1213SOL    HW1 7427   8.498   2.527   9.583 -0.6810 -0.3211 -0.3679
 1213SOL    HW2 7428   8.451   2.605   9.703 -1.5680 -0.1581 -0.8136
 1214SOL     OW 7429  10.327   9.300   6.155  0.7857  0.0114  0.5180
 1214SOL    HW1 7430  10.412   9.343   6.162  0.7422  0.1155  0.4007
 1214SOL    HW2 7431  10.287   9.338   6.077  0.3702  0.4225  0.9337
 1215SOL     OW 7432   9.258   5.515   1.347  0.5193  0.0121 -0.1056
 1215SOL    HW1 7433   9.339   5.546   1.306 -0.2017 -0.3240 -1.8949
 1215SOL    HW2 7434   9.204   5.594   1.356  0.9162  0.1866  0.8014
 1216SOL     OW 7435   4.529   2.016   1.750 -0.0982  0.4537 -0.1861
 1216SOL    HW1 7436   4.457   2.011   1.813 -0.6564 -0.1520 -0.8587
 1216SOL    HW2 7437   4.514   2.098   1.703 -0.7507  0.0145 -0.7756
 1217SOL     OW 7438   2.672   5.543   0.553 -0.1633  0.3167 -0.4849
 1217SOL    HW1 7439   2.598   5.489   0.579  0.6145 -1.0422 -1.0142
 1217SOL    HW2 7440   2.747   5.503   0.595  0.4822  0.7594 -1.1889
 1218SOL     OW 7441   7.822   7.821   8.333  0.0535 -0.4926  0.0394
 1218SOL    HW1 7442   7.824   7.734   8.372 -0.3978 -0.0530  1.1015
 1218SOL    HW2 7443   7.867   7.812   8.249  1.4384 -1.3876  0.8482
 1219SOL     OW 7444   9.276   1.080   3.816 -0.2549  0.2332  0.1026
 1219SOL    HW1 7445   9.298   1.079   3.909 -1.3674 -0.7011  0.3745
 1219SOL    HW2 7446   9.277   1.173   3.792  1.1353  0.4086  0.7654
 1220SOL     OW 7447   1.860   7.162   2.464  0.1020  0.4397  0.1913
 1220SOL    HW1 7448   1.818   7.087   2.505  0.0167  1.0251  1.2288
 1220SOL    HW2 7449   1.922   7.194   2.531  1.7537 -0.0227 -1.0482
 1221SOL     OW 7450   3.867   8.823   8.427 -0.7119 -0.3436 -0.3381
 1221SOL    HW1 7451   3.870   8.796   8.519 -0.3783  2.0480  0.4137
 1221SOL    HW2 7452   3.780   8.860   8.416  0.2442  2.1684 -0.0672
 1222SOL     OW 7453   8.060   5.484  10.026 -0.5773  0.4859 -0.2948
 1222SOL    HW1 7454   8.031   5.416   9.965 -0.6876  0.6608 -0.4364
 1222SOL    HW2 7455   8.090   5.556   9.970 -0.5821  0.6045 -0.1450
 1223SOL     OW 7456   1.056   3.883  10.117  0.2932 -0.2149 -0.8541
 1223SOL    HW1 7457   0.963   3.881  10.093 -0.1938 -0.8084  0.9030
 1223SOL    HW2 7458   1.096   3.943  10.053 -1.4430  0.7111 -1.1497
 1224SOL     OW 7459   5.472   1.114   2.803  0.3569 -0.6846  0.1164
 1224SOL    HW1 7460   5.513   1.201   2.799  0.6381 -0.8518 -1.2694
 1224SOL    HW2 7461   5.410   1.120   2.875 -0.2637  0.9577 -0.5001
 1225SOL     OW 7462   7.458   5.500   6.598 -0.2424  0.3511  0.6129
 1225SOL    HW1 7463   7.488   5.422   6.644 -0.5886 -0.4744 -0.5189
 1225SOL    HW2 7464   7.445   5.472   6.507 -0.7183  1.6312  0.2493
 1226SOL     OW 7465   4.331   9.077   7.700  0.3020 -0.1424  0.0455
 1226SOL    HW1 7466   4.281   9.157   7.688  0.0016 -0.6106 -2.1170
 1226SOL    HW2 7467   4.422   9.104   7.687  0.1275 -0.2890 -1.6668
 1227SOL     OW 7468   5.990   9.717   8.352  0.5591  0.3584 -0.2099
 1227SOL    HW1 7469   6.030   9.734   8.437  1.0426  0.0158 -0.3617
 1227SOL    HW2 7470   6.007   9.625   8.336 -0.6230  0.1133 -0.1226
 1228SOL     OW 7471   0.465   0.644   1.695 -0.1294  0.2000  0.4493
 1228SOL    HW1 7472   0.401   0.688   1.639 -1.3300 -0.2893  1.3970
 1228SOL    HW2 7473   0.547   0.648   1.645 -0.7461  1.3654 -0.5345
 1229SOL     OW 7474   5.350   1.881   7.019 -0.1493  0.8458 -0.4711
 1229SOL    HW1 7475   5.416   1.951   7.010  1.9638 -0.6322  1.9485
 1229SOL    HW2 7476   5.296   1.910   7.093 -0.1907  0.5901 -0.4028
 1230SOL     OW 7477   3.592   3.052   8.783 -0.4985 -0.1951  0.0086
 1230SOL    HW1 7478   3.566   2.979   8.726 -0.1526 -0.5226  0.2590
 1230SOL    HW2 7479   3.533   3.046   8.858  0.6291 -1.2913  0.8496
 1231SOL     OW 7480   7.096   2.337   9.476  0.0810 -0.9348  0.0183
 1231SOL    HW1 7481   7.104   2.361   9.568 -0.5345  1.0874 -0.4066
 1231SOL    HW2 7482   7.025   2.273   9.474  1.5632 -2.7039  1.1722
 1232SOL     OW 7483   1.367   5.727   5.526  0.2156  0.0489 -0.0869
 1232SOL    HW1 7484   1.357   5.822   5.535 -0.1068 -0.0836  1.0450
 1232SOL    HW2 7485   1.453   5.708   5.562  0.4215 -0.0586 -0.6220
 1233SOL     OW 7486   6.532   4.212   2.679  0.3492 -0.0714 -0.1735
 1233SOL    HW1 7487   6.598   4.200   2.747 -0.8076 -0.9205  0.8460
 1233SOL    HW2 7488   6.485   4.129   2.677  1.6395 -0.8620 -3.4911
 1234SOL     OW 7489   2.956   0.134   1.118  0.0840 -0.3662  0.1732
 1234SOL    HW1 7490   2.950   0.093   1.205  0.1154  2.3267  1.5533
 1234SOL    HW2 7491   2.960   0.060   1.057  0.9912 -2.3816  2.5002
 1235SOL     OW 7492   3.452   1.449   4.908  0.4751 -0.3668 -0.8675
 1235SOL    HW1 7493   3.499   1.523   4.870 -1.3575  0.7440 -1.1035
 1235SOL    HW2 7494   3.472   1.455   5.002 -0.6055  1.2215 -0.6914
 1236SOL     OW 7495   2.106   6.770   9.315 -0.4903 -0.2797 -0.0990
 1236SOL    HW1 7496   2.128   6.853   9.273 -0.5370 -0.0529  0.3208
 1236SOL    HW2 7497   2.178   6.753   9.375 -0.9805 -0.0222  0.5733
 1237SOL     OW 7498   9.759   1.468   3.575 -0.2979  0.1790  0.7543
 1237SOL    HW1 7499   9.767   1.467   3.671 -0.9293 -0.6197  0.8112
 1237SOL    HW2 7500   9.689   1.405   3.557  0.0377  0.0919 -0.2561
 1238SOL     OW 7501   7.064   0.817   5.116  0.0321 -0.1545  0.1118
 1238SOL    HW1 7502   7.113   0.749   5.070 -1.2687 -0.8764 -0.2815
 1238SOL    HW2 7503   6.989   0.834   5.059 -0.9568 -0.1505  1.3755
 1239SOL     OW 7504   0.912   9.161   7.626  0.2498  0.0417  0.0830
 1239SOL    HW1 7505   0.920   9.209   7.544  0.9917  0.2930  0.2993
 1239SOL    HW2 7506   1.002   9.141   7.651  0.0985  0.8441  1.3488
 1240SOL     OW 7507   5.895   9.057   5.692  0.0698  0.0200 -0.2881
 1240SOL    HW1 7508   5.909   9.151   5.680 -0.1793  0.3096  1.4885
 1240SOL    HW2 7509   5.841   9.050   5.771 -0.3381 -1.6029 -0.6690
 1241SOL     OW 7510   1.238   9.725   3.710  0.1604 -0.1006 -0.5546
 1241SOL    HW1 7511   1.287   9.651   3.746  0.1139  0.2558  0.2556
 1241SOL    HW2 7512   1.276   9.738   3.623  0.4959 -0.7689 -0.5183
 1242SOL     OW 7513   0.198   9.437   6.143  0.2197  0.1220  0.6116
 1242SOL    HW1 7514   0.246   9.445   6.226 -0.3052  1.9375  0.7952
 1242SOL    HW2 7515   0.203   9.524   6.104  3.0665 -1.3565 -2.8478
 1243SOL     OW 7516  10.268   2.654   6.893  0.3042 -0.4176 -0.2593
 1243SOL    HW1 7517  10.222   2.666   6.976  0.3225 -0.2793 -0.2684
 1243SOL    HW2 7518  10.291   2.743   6.866  0.8262 -0.5050 -0.1133
 1244SOL     OW 7519   4.933   2.826   3.867  0.5104 -0.1436 -0.3563
 1244SOL    HW1 7520   4.939   2.884   3.792  0.5960  0.2840 -0.0266
 1244SOL    HW2 7521   4.908   2.741   3.831 -0.3427  0.2747 -0.7606
 1245SOL     OW 7522   1.209  10.083   3.164 -0.2131 -0.1011 -0.3234
 1245SOL    HW1 7523   1.115  10.062   3.170  0.0778 -2.0285 -1.5912
 1245SOL    HW2 7524   1.247  10.044   3.243 -0.2379 -1.0459 -0.7592
 1246SOL     OW 7525   4.613   3.564   6.128 -0.0256 -0.0344  0.2565
 1246SOL    HW1 7526   4.674   3.567   6.202 -1.4486  4.0903  1.4945
 1246SOL    HW2 7527   4.527   3.553   6.168 -0.9893  3.7300 -0.4510
 1247SOL     OW 7528  10.229  10.180   4.258 -0.5894 -0.5330 -0.0635
 1247SOL    HW1 7529  10.305  10.137   4.297 -0.5851 -0.2656  0.2312
 1247SOL    HW2 7530  10.225  10.265   4.302 -1.0604 -0.5480 -0.0738
 1248SOL     OW 7531   1.601   0.222   4.858 -0.2979 -0.5805  0.2604
 1248SOL    HW1 7532   1.514   0.255   4.834 -0.5170 -1.0358  0.4154
 1248SOL    HW2 7533   1.583   0.145   4.911  0.2002 -1.2702 -0.5448
 1249SOL     OW 7534  10.195   6.168   1.695  0.1302  0.1028 -0.3262
 1249SOL    HW1 7535  10.128   6.220   1.738 -0.3375  0.6521 -1.6596
 1249SOL    HW2 7536  10.194   6.084   1.740 -1.0206  0.3153  0.0651
 1250SOL     OW 7537   8.962   0.677   7.312  0.4936 -0.0837 -0.5020
 1250SOL    HW1 7538   8.875   0.712   7.296 -0.1399  0.0934  2.6712
 1250SOL    HW2 7539   9.018   0.755   7.320  0.7139 -0.1514 -1.3104
 1251SOL     OW 7540   5.442   0.793   7.996 -0.2317  0.0652  0.3145
 1251SOL    HW1 7541   5.503   0.724   8.020 -1.9992 -2.3251 -1.5924
 1251SOL    HW2 7542   5.369   0.783   8.057 -0.9695 -0.4994 -0.6378
 1252SOL     OW 7543   8.651   7.371   8.728  0.2429  0.1218  0.2134
 1252SOL    HW1 7544   8.627   7.286   8.693  3.1733 -0.8437  0.2693
 1252SOL    HW2 7545   8.736   7.391   8.688  1.2468  1.4031  2.7072
 1253SOL     OW 7546   1.768   0.714   8.687  0.0360 -0.1447  0.0815
 1253SOL    HW1 7547   1.788   0.676   8.772  1.0989  0.6787  0.2186
 1253SOL    HW2 7548   1.769   0.639   8.627  3.9842 -0.2723  0.0171
 1254SOL     OW 7549  10.322   2.353   6.925  0.1066  0.2705 -0.0084
 1254SOL    HW1 7550  10.335   2.328   6.834  3.6572 -1.0316  0.7086
 1254SOL    HW2 7551  10.312   2.448   6.923 -0.4300  0.2074 -1.7425
 1255SOL     OW 7552   9.711   7.484   5.854  0.3245 -0.3459  0.1866
 1255SOL    HW1 7553   9.650   7.437   5.796 -0.7448 -1.8207  2.3638
 1255SOL    HW2 7554   9.718   7.571   5.815 -0.7057 -1.1037 -1.8635
 1256SOL     OW 7555   0.486   5.485   9.082  0.4686  0.3880 -0.2334
 1256SOL    HW1 7556   0.568   5.517   9.120  0.6282 -0.9913  0.6572
 1256SOL    HW2 7557   0.420   5.546   9.113  1.0181  0.9857 -0.2053
 1257SOL     OW 7558   2.282   7.370   6.290  0.4545  0.3372  0.0794
 1257SOL    HW1 7559   2.377   7.362   6.302  0.7675  2.0995 -0.9608
 1257SOL    HW2 7560   2.263   7.314   6.215  1.0143  1.4483 -0.9283
 1258SOL     OW 7561   1.995   7.023   9.491  0.2031  0.1190 -0.1998
 1258SOL    HW1 7562   1.925   7.089   9.488  0.0199 -0.0455  0.3343
 1258SOL    HW2 7563   2.076   7.074   9.498 -0.0200  0.2865  1.6543
 1259SOL     OW 7564   0.241   0.588   2.789  0.2834 -0.0331 -0.1818
 1259SOL    HW1 7565   0.219   0.597   2.697 -0.1994  0.6890 -0.0068
 1259SOL    HW2 7566   0.330   0.552   2.790  0.7063  0.9625 -0.9400
 1260SOL     OW 7567   7.972  10.151   2.502 -0.1045 -0.0662  0.1551
 1260SOL    HW1 7568   8.036  10.220   2.490  0.0744 -0.2279  0.1817
 1260SOL    HW2 7569   7.895  10.196   2.539 -0.4163  0.3214 -0.9204
 1261SOL     OW 7570   2.911   1.682   2.470  0.7675  0.4665 -0.5093
 1261SOL    HW1 7571   2.841   1.656   2.530  2.1320 -3.0143 -0.1898
 1261SOL    HW2 7572   2.866   1.706   2.389 -0.8808  1.1259  0.5414
 1262SOL     OW 7573   3.634   7.875   2.240 -0.2616  0.1030 -0.2739
 1262SOL    HW1 7574   3.678   7.826   2.310  1.7789  3.3918  0.9559
 1262SOL    HW2 7575   3.540   7.860   2.257  0.1478  0.3563  2.9184
 1263SOL     OW 7576   7.035   5.093   7.778 -0.6942 -0.3506 -0.1143
 1263SOL    HW1 7577   6.972   5.161   7.804 -0.9540  0.1713 -1.9362
 1263SOL    HW2 7578   7.057   5.048   7.860 -0.4297  1.9927  1.2111
 1264SOL     OW 7579   6.070   7.228   8.739  0.2634  0.1892 -0.0480
 1264SOL    HW1 7580   6.120   7.310   8.737  2.1866 -0.9009 -2.7325
 1264SOL    HW2 7581   6.007   7.237   8.667 -1.5090  0.3552  1.4465
 1265SOL     OW 7582   6.783   9.348   2.569  0.2723  0.1004 -0.0206
 1265SOL    HW1 7583   6.698   9.383   2.540 -0.5978 -1.4400  0.5043
 1265SOL    HW2 7584   6.762   9.301   2.649  1.4950 -0.9872 -0.3126
 1266SOL     OW 7585   6.561   9.189   3.480  0.5403  0.2075  0.4303
 1266SOL    HW1 7586   6.516   9.105   3.485  0.2500  0.4005  1.0382
 1266SOL    HW2 7587   6.607   9.197   3.563  0.9085  0.4591  0.2045
 1267SOL     OW 7588   4.805   9.546   3.399  0.0070 -0.2167  0.2524
 1267SOL    HW1 7589   4.821   9.462   3.355  1.7438  0.2474 -0.0697
 1267SOL    HW2 7590   4.839   9.534   3.487 -2.3012 -0.7208  1.1439
 1268SOL     OW 7591   0.207   2.112   2.296  0.9506  0.0773  0.0981
 1268SOL    HW1 7592   0.231   2.119   2.388 -0.8705 -2.0711  0.8080
 1268SOL    HW2 7593   0.262   2.041   2.262  1.3083  0.5739 -0.3800
 1269SOL     OW 7594   6.103   5.484   8.057  0.2911  0.5533 -0.1807
 1269SOL    HW1 7595   6.173   5.429   8.092 -0.3759 -1.3083 -1.5693
 1269SOL    HW2 7596   6.066   5.528   8.134 -0.6308 -2.7506  1.4826
 1270SOL     OW 7597   4.630   7.960   6.215  0.0985  0.2657  0.6478
 1270SOL    HW1 7598   4.549   7.933   6.171  0.4763  0.9467 -0.4912
 1270SOL    HW2 7599   4.664   8.031   6.161  0.1742  1.6882  2.4941
 1271SOL     OW 7600   6.142   1.640   7.553 -0.3971  0.0085 -0.1396
 1271SOL    HW1 7601   6.171   1.591   7.476  0.4265 -0.2130  0.3021
 1271SOL    HW2 7602   6.223   1.664   7.599 -0.8260  1.0300  0.1156
 1272SOL     OW 7603   0.879   4.985   9.406  0.9159 -0.7216  0.5567
 1272SOL    HW1 7604   0.793   4.954   9.376  0.3968  0.5877  0.6241
 1272SOL    HW2 7605   0.914   4.912   9.457 -0.1475 -1.2797  0.5272
 1273SOL     OW 7606   6.196   4.519   3.190 -0.8150  0.1846  0.0859
 1273SOL    HW1 7607   6.179   4.434   3.150  0.8727  0.1561 -0.6510
 1273SOL    HW2 7608   6.112   4.545   3.227 -2.1275 -0.4425 -2.2487
 1274SOL     OW 7609   9.946   7.220   6.953  0.5321  0.5909  0.1463
 1274SOL    HW1 7610   9.992   7.277   6.892  0.1887  0.5259 -0.1739
 1274SOL    HW2 7611   9.974   7.132   6.929  1.7506  0.6540  1.2033
 1275SOL     OW 7612   9.111   6.779   3.576  0.1801  0.2314 -0.3315
 1275SOL    HW1 7613   9.146   6.709   3.521  1.2137  0.5979 -0.1742
 1275SOL    HW2 7614   9.185   6.805   3.631 -0.8697 -0.1974  1.3285
 1276SOL     OW 7615   4.131   0.627   4.604 -0.0141 -0.1466  0.0763
 1276SOL    HW1 7616   4.066   0.557   4.597 -0.5098  0.3231 -0.1357
 1276SOL    HW2 7617   4.108   0.688   4.533  1.6212 -0.7509 -1.0340
 1277SOL     OW 7618   5.814   9.210  10.315 -0.1906 -0.2391 -0.1153
 1277SOL    HW1 7619   5.892   9.254  10.281  0.5899  0.1765  2.0820
 1277SOL    HW2 7620   5.848   9.130  10.356 -0.7252  0.4979  1.8519
 1278SOL     OW 7621   4.371   1.429   4.982 -0.2696  1.3073  0.3869
 1278SOL    HW1 7622   4.402   1.340   4.996 -0.9312  0.4472 -2.8382
 1278SOL    HW2 7623   4.332   1.454   5.066 -0.0143 -1.3901  1.4218
 1279SOL     OW 7624  10.161   1.706   5.541 -0.4208  0.0632 -0.6698
 1279SOL    HW1 7625  10.161   1.683   5.448  1.6280 -1.0624 -0.4655
 1279SOL    HW2 7626  10.105   1.641   5.583 -0.8234  0.1807 -1.0182
 1280SOL     OW 7627   6.269   1.598   7.324  0.1693 -0.1054  0.2229
 1280SOL    HW1 7628   6.321   1.525   7.290 -0.3860 -0.1977 -0.4470
 1280SOL    HW2 7629   6.203   1.614   7.257  0.2539  0.9909  0.3815
 1281SOL     OW 7630   7.323   0.524   2.345  0.4102  0.0943 -0.3445
 1281SOL    HW1 7631   7.281   0.575   2.275 -1.2610  1.2033  1.3589
 1281SOL    HW2 7632   7.410   0.504   2.311  0.1773  1.8079 -2.1700
 1282SOL     OW 7633   0.816   8.180   5.055  0.0084  0.1655 -0.1351
 1282SOL    HW1 7634   0.828   8.245   4.986 -0.3834 -0.1765 -0.5377
 1282SOL    HW2 7635   0.780   8.228   5.129  1.9582  0.8489  0.4245
 1283SOL     OW 7636   9.106   9.594   7.384  0.4160 -0.4105 -0.4215
 1283SOL    HW1 7637   9.178   9.580   7.445  0.7156  1.1710 -0.3675
 1283SOL    HW2 7638   9.043   9.524   7.404  1.4830 -1.2294  0.1816
 1284SOL     OW 7639   9.631   3.452   0.569 -0.1500 -0.2028  0.5878
 1284SOL    HW1 7640   9.601   3.397   0.641 -2.3253 -0.0061 -0.1129
 1284SOL    HW2 7641   9.553   3.500   0.540  1.0851  1.1769 -0.6306
 1285SOL     OW 7642   7.677   4.919   5.721  0.0898  0.3374  0.1320
 1285SOL    HW1 7643   7.684   4.954   5.810 -1.3674  0.3330  0.2830
 1285SOL    HW2 7644   7.723   4.982   5.667  0.5604  0.6073  0.8315
 1286SOL     OW 7645   3.722   7.318   5.476  0.0979  0.8054  0.3094
 1286SOL    HW1 7646   3.715   7.259   5.401  0.8161  0.6851  0.3275
 1286SOL    HW2 7647   3.747   7.262   5.549 -1.4350  0.7855  0.8501
 1287SOL     OW 7648   6.449   6.215   3.035 -0.9740 -0.1918  0.1482
 1287SOL    HW1 7649   6.488   6.297   3.006  0.1333  0.5998  3.4600
 1287SOL    HW2 7650   6.521   6.152   3.033 -1.1613 -0.4030  0.0569
 1288SOL     OW 7651   7.790   3.611   0.851  0.5676  0.5345 -0.2188
 1288SOL    HW1 7652   7.809   3.542   0.915  1.8079  1.6132  0.6197
 1288SOL    HW2 7653   7.867   3.669   0.854  0.4019  0.9555 -2.2578
 1289SOL     OW 7654   9.751   8.973   6.990 -0.8769  0.7716 -0.3146
 1289SOL    HW1 7655   9.804   9.038   7.036 -0.2978  0.0861  0.0115
 1289SOL    HW2 7656   9.664   9.012   6.985 -1.4246  0.2364  2.8488
 1290SOL     OW 7657   5.455   1.383   7.471  0.4240  0.4147 -0.3572
 1290SOL    HW1 7658   5.386   1.425   7.419 -0.1697  0.4021  0.3911
 1290SOL    HW2 7659   5.459   1.435   7.551 -0.4123 -0.9939  0.6384
 1291SOL     OW 7660   9.777   7.560   2.589 -0.2612  0.1804  0.0509
 1291SOL    HW1 7661   9.841   7.577   2.659  3.2038 -0.0110 -2.7852
 1291SOL    HW2 7662   9.740   7.646   2.569  2.1076  1.0839 -0.7937
 1292SOL     OW 7663   2.054   4.454   2.454  0.9319 -0.0534 -0.3595
 1292SOL    HW1 7664   2.099   4.397   2.517  0.5762 -0.9407 -0.8925
 1292SOL    HW2 7665   1.971   4.411   2.437 -0.1524  1.5335  0.5478
 1293SOL     OW 7666   7.773   6.957   0.033  0.1698 -0.5385  0.6201
 1293SOL    HW1 7667   7.827   6.958   0.112  0.2330  1.2826  0.5925
 1293SOL    HW2 7668   7.747   7.048   0.021 -2.5250 -1.2708  0.3431
 1294SOL     OW 7669   5.187   2.736   3.770 -0.6123  0.4768  0.4254
 1294SOL    HW1 7670   5.115   2.788   3.806 -0.9501 -1.0479  2.1508
 1294SOL    HW2 7671   5.253   2.736   3.840  0.0039 -0.1349 -0.1456
 1295SOL     OW 7672   5.011   4.607   1.065  0.4783  0.2026 -0.4100
 1295SOL    HW1 7673   4.951   4.532   1.070  0.1651  0.4716 -0.0205
 1295SOL    HW2 7674   5.044   4.606   0.976  0.4048 -0.3469 -0.4358
 1296SOL     OW 7675   7.049   0.093   5.883  0.3340 -0.7733 -0.5507
 1296SOL    HW1 7676   7.142   0.116   5.887 -0.0403  0.7869 -0.1626
 1296SOL    HW2 7677   7.039   0.022   5.946  0.6288  1.5380  2.3299
 1297SOL     OW 7678   7.190   9.126   7.410 -0.2520  0.0785  0.1485
 1297SOL    HW1 7679   7.261   9.081   7.455  0.3208  0.0255 -0.7696
 1297SOL    HW2 7680   7.176   9.206   7.461 -0.6481 -0.6827  1.2547
 1298SOL     OW 7681   6.384   8.341   8.737 -0.6388 -0.1356  0.1252
 1298SOL    HW1 7682   6.431   8.266   8.774 -1.5326  0.9973  4.0836
 1298SOL    HW2 7683   6.291   8.316   8.742 -0.8108  0.1539 -1.3163
 1299SOL     OW 7684  10.008   2.081   7.443 -0.1374  0.2435 -0.1403
 1299SOL    HW1 7685   9.921   2.119   7.444  0.3365  1.5968 -2.3841
 1299SOL    HW2 7686  10.067   2.156   7.441  0.9621 -0.5897 -1.1323
 1300SOL     OW 7687   7.642   8.445   3.043 -0.3738  0.2208 -0.4196
 1300SOL    HW1 7688   7.578   8.389   3.087  1.1356 -0.6899  0.7473
 1300SOL    HW2 7689   7.594   8.523   3.018 -2.0867 -0.7378 -0.2350
 1301SOL     OW 7690   1.058   8.959   7.048  0.4568  0.9036  0.3598
 1301SOL    HW1 7691   1.153   8.948   7.055  0.2315 -0.8186  1.2852
 1301SOL    HW2 7692   1.024   8.918   7.127 -1.1874 -0.7633 -1.1227
 1302SOL     OW 7693   2.129   5.060   6.090 -0.3230  0.2735 -0.0370
 1302SOL    HW1 7694   2.146   4.974   6.052 -4.8060 -0.7312 -0.3079
 1302SOL    HW2 7695   2.103   5.043   6.180 -1.7414  1.2532 -0.2282
 1303SOL     OW 7696   3.162   6.333  10.220  0.0924  0.3301  0.1280
 1303SOL    HW1 7697   3.175   6.258  10.163 -0.8778  0.5375 -0.3889
 1303SOL    HW2 7698   3.081   6.373  10.189 -0.5179  0.3928  1.7154
 1304SOL     OW 7699   9.687   2.421   8.981 -0.4688  0.6440 -0.1351
 1304SOL    HW1 7700   9.708   2.479   9.054  3.2363  0.7859 -1.1071
 1304SOL    HW2 7701   9.749   2.349   8.988 -1.4013 -0.4186 -1.9748
 1305SOL     OW 7702   7.068   3.928   0.913  0.5254 -0.4106  0.1273
 1305SOL    HW1 7703   6.977   3.947   0.891  0.2919 -0.0656  1.2804
 1305SOL    HW2 7704   7.087   3.845   0.870  0.7578  1.0836 -2.9262
 1306SOL     OW 7705   1.048   0.461   3.621  0.0253  0.1814 -0.6835
 1306SOL    HW1 7706   1.030   0.368   3.609  1.8765 -0.2806 -0.1741
 1306SOL    HW2 7707   1.017   0.481   3.709 -1.2913  0.3142 -1.1583
 1307SOL     OW 7708   2.813   1.700  10.232 -0.1926 -0.2757  0.4734
 1307SOL    HW1 7709   2.724   1.701  10.267 -0.1381  1.0590  0.6158
 1307SOL    HW2 7710   2.835   1.792  10.217  0.7543 -0.6514 -0.6324
 1308SOL     OW 7711   1.505   2.008   6.154 -0.3894 -0.0834  0.7057
 1308SOL    HW1 7712   1.537   2.076   6.094  0.3663 -0.7216  0.3578
 1308SOL    HW2 7713   1.578   1.993   6.214 -0.4651 -0.7511  0.6333
 1309SOL     OW 7714   0.087   1.483   1.582 -0.1624  0.6999 -0.2821
 1309SOL    HW1 7715   0.176   1.462   1.551 -0.0269  0.7679  0.0597
 1309SOL    HW2 7716   0.084   1.579   1.580 -0.1930  0.7002 -0.1873
 1310SOL     OW 7717   5.435   4.079   6.161  0.1439 -0.6922 -0.4596
 1310SOL    HW1 7718   5.398   4.119   6.239  0.2731 -1.5891  0.0748
 1310SOL    HW2 7719   5.515   4.129   6.144 -0.3587  0.0887 -0.5661
 1311SOL     OW 7720   5.731   3.672   9.694  0.0430  0.3618 -0.5801
 1311SOL    HW1 7721   5.715   3.593   9.746  0.9142 -0.2873 -1.2521
 1311SOL    HW2 7722   5.747   3.639   9.605 -1.1732  1.4259 -1.2291
 1312SOL     OW 7723   9.028  10.272   6.420  0.5521  0.8512 -0.0590
 1312SOL    HW1 7724   9.030  10.188   6.466 -1.1610  0.8000 -0.0111
 1312SOL    HW2 7725   9.115  10.280   6.380  0.2985 -1.6435 -1.3080
 1313SOL     OW 7726   5.054   9.281   3.188  0.4426  0.0578 -0.2966
 1313SOL    HW1 7727   5.111   9.356   3.206  2.1747 -1.7026  2.3055
 1313SOL    HW2 7728   5.112   9.205   3.194 -1.5471 -1.6207 -1.1160
 1314SOL     OW 7729   1.916   1.345   1.336 -0.3248  0.0519  0.9122
 1314SOL    HW1 7730   1.852   1.373   1.270  0.8297 -0.5356 -0.5252
 1314SOL    HW2 7731   1.891   1.255   1.356  0.9534 -0.7796 -0.9155
 1315SOL     OW 7732   7.639   0.525   1.268 -0.3251  0.5001  0.1003
 1315SOL    HW1 7733   7.613   0.595   1.327  0.9440 -0.1587  1.5121
 1315SOL    HW2 7734   7.575   0.455   1.285 -0.2447  0.4864  0.3465
 1316SOL     OW 7735   2.322   8.956   1.709 -0.5411  0.1748  0.1409
 1316SOL    HW1 7736   2.354   8.903   1.782  3.7581  1.9084 -0.2309
 1316SOL    HW2 7737   2.348   8.909   1.631 -0.5102  0.7842 -0.2274
 1317SOL     OW 7738   2.030   6.132   6.918  0.1296 -0.1299  0.2536
 1317SOL    HW1 7739   1.960   6.170   6.971 -0.4356 -0.7846 -0.0011
 1317SOL    HW2 7740   2.034   6.187   6.840  1.0812  0.9386  1.0354
 1318SOL     OW 7741   6.553   8.972   8.130 -0.1897  0.0817 -0.3668
 1318SOL    HW1 7742   6.524   8.934   8.213 -1.0482  0.2263 -0.5921
 1318SOL    HW2 7743   6.628   9.026   8.155 -0.4997  0.2085  0.3367
 1319SOL     OW 7744   9.026   8.823   4.226 -0.0856  0.1279  0.6046
 1319SOL    HW1 7745   9.090   8.883   4.187  0.9167 -0.8090  0.7593
 1319SOL    HW2 7746   8.952   8.879   4.250  1.0070  1.3656  1.1797
 1320SOL     OW 7747   1.812   7.798   7.025 -0.0489 -0.1536 -0.3980
 1320SOL    HW1 7748   1.774   7.767   6.943 -0.2119  1.4668 -0.9698
 1320SOL    HW2 7749   1.801   7.725   7.086 -1.0460 -0.9269 -1.4648
 1321SOL     OW 7750   0.229   0.015   1.006 -0.0145 -0.0878 -0.5123
 1321SOL    HW1 7751   0.233   0.109   1.023 -1.3037 -0.0802 -0.1211
 1321SOL    HW2 7752   0.183   0.008   0.923 -0.7851 -0.3836 -0.0771
 1322SOL     OW 7753   4.930   6.951   2.861  0.5189  0.3520  0.7336
 1322SOL    HW1 7754   4.917   6.930   2.954  0.5650 -0.0478  0.6542
 1322SOL    HW2 7755   5.006   6.898   2.836 -0.7531 -1.1534 -0.0575
 1323SOL     OW 7756   5.134   6.492   3.089  0.2145 -0.0735  0.1777
 1323SOL    HW1 7757   5.066   6.559   3.091  1.0471  0.7962  1.4113
 1323SOL    HW2 7758   5.169   6.496   3.000 -1.0650 -0.2689 -0.3511
 1324SOL     OW 7759   2.225   9.041   9.042 -0.0678  0.1157  0.1104
 1324SOL    HW1 7760   2.261   9.051   8.954 -0.3926  1.9975  0.1500
 1324SOL    HW2 7761   2.270   9.107   9.094 -2.6369  1.7633  0.4251
 1325SOL     OW 7762   3.875   3.616   8.135  0.0120 -0.2156  0.2685
 1325SOL    HW1 7763   3.872   3.524   8.107 -0.1870  0.0997 -0.7722
 1325SOL    HW2 7764   3.920   3.661   8.064 -2.3394  0.9730 -0.5300
 1326SOL     OW 7765   3.976   4.686   7.022 -0.7171 -0.2913 -0.3679
 1326SOL    HW1 7766   3.956   4.730   7.105  0.2059  0.1770 -0.3781
 1326SOL    HW2 7767   3.927   4.735   6.956 -0.6053  0.0050 -0.2322
 1327SOL     OW 7768   5.388   9.500   4.900  0.2868  0.2249 -0.0876
 1327SOL    HW1 7769   5.452   9.428   4.900 -0.4899 -0.4903  0.4611
 1327SOL    HW2 7770   5.376   9.522   4.808 -0.2091 -1.0533 -0.3483
 1328SOL     OW 7771   3.990   1.231   5.261  0.7593  0.1981 -0.1125
 1328SOL    HW1 7772   4.061   1.194   5.314  0.1278  1.6987  1.9259
 1328SOL    HW2 7773   3.910   1.205   5.308  0.2546  3.3390  1.0061
 1329SOL     OW 7774   3.976   6.827   8.161  0.5681 -0.1526  0.2562
 1329SOL    HW1 7775   3.960   6.839   8.255  1.6861 -1.2123  0.6007
 1329SOL    HW2 7776   4.060   6.870   8.145  1.6089 -2.0700  0.2780
 1330SOL     OW 7777   3.907   8.235  10.052 -0.2282  0.0826 -0.2335
 1330SOL    HW1 7778   3.977   8.259  10.112  0.3543 -2.3912  0.1923
 1330SOL    HW2 7779   3.923   8.288   9.974  1.3827  0.4856  0.3314
 1331SOL     OW 7780   2.184   4.505   9.023  0.5163  0.0092  0.2815
 1331SOL    HW1 7781   2.107   4.451   9.004 -0.5596  1.7165 -0.3940
 1331SOL    HW2 7782   2.253   4.468   8.967 -1.1357  1.4262 -2.9532
 1332SOL     OW 7783   8.935   4.304   2.369  0.1869 -0.1494  0.3319
 1332SOL    HW1 7784   8.874   4.281   2.439  0.8399 -0.0294  0.9422
 1332SOL    HW2 7785   8.958   4.221   2.329  1.1266 -0.3988  1.3589
 1333SOL     OW 7786   3.277   2.615   5.067 -0.1423  0.6042  0.9986
 1333SOL    HW1 7787   3.365   2.647   5.048 -0.3149  0.3833 -0.2601
 1333SOL    HW2 7788   3.220   2.664   5.008 -0.3990 -2.1130 -1.1834
 1334SOL     OW 7789   6.862   0.781   0.071 -0.6262 -0.0239 -0.2066
 1334SOL    HW1 7790   6.912   0.702   0.092  1.0774  0.4664 -2.1535
 1334SOL    HW2 7791   6.884   0.843   0.141 -0.4746 -0.6271  0.2897
 1335SOL     OW 7792   2.025   9.737   5.791 -0.1828  0.4223 -0.2564
 1335SOL    HW1 7793   1.987   9.805   5.846 -1.9827 -0.7154  0.0074
 1335SOL    HW2 7794   1.996   9.655   5.832 -0.4766 -0.4611 -2.1535
 1336SOL     OW 7795   4.200   9.589   4.114 -0.1789  0.1502  0.3695
 1336SOL    HW1 7796   4.150   9.666   4.088  0.6218  0.1880 -1.2502
 1336SOL    HW2 7797   4.145   9.515   4.088  0.2520  0.1966 -0.7699
 1337SOL     OW 7798   6.166   4.672   2.877  0.2189 -0.2812  0.3180
 1337SOL    HW1 7799   6.129   4.688   2.789  0.3279 -0.5681  0.2202
 1337SOL    HW2 7800   6.155   4.578   2.891  2.6893 -0.7584 -0.5316
 1338SOL     OW 7801   7.807   5.813   0.259 -0.1785  0.3644 -0.0741
 1338SOL    HW1 7802   7.823   5.888   0.316 -0.5220 -0.0870  0.6279
 1338SOL    HW2 7803   7.736   5.841   0.202 -1.6475 -0.0744  1.4671
 1339SOL     OW 7804   1.511   3.156   9.306  0.1244 -0.1350 -0.0559
 1339SOL    HW1 7805   1.531   3.238   9.259 -1.9213  0.6803  0.4108
 1339SOL    HW2 7806   1.452   3.109   9.247 -1.4570  0.3304  1.0851
 1340SOL     OW 7807   4.896   3.735   4.532  0.0169 -0.2786  0.8101
 1340SOL    HW1 7808   4.931   3.673   4.468  1.4437  0.1298  1.1594
 1340SOL    HW2 7809   4.859   3.806   4.478  1.1103  0.0130  0.3960
 1341SOL     OW 7810   0.196   5.156   0.022  0.5515 -0.0144  0.0496
 1341SOL    HW1 7811   0.119   5.167   0.078  0.7402 -1.0799  0.5514
 1341SOL    HW2 7812   0.162   5.157  -0.067  0.2585  1.8144  0.1465
 1342SOL     OW 7813   0.280   0.517   9.026 -0.2596 -0.8463  0.2061
 1342SOL    HW1 7814   0.307   0.604   9.055 -0.1189 -0.8373  0.0500
 1342SOL    HW2 7815   0.253   0.471   9.106  0.6833 -1.0279  0.4246
 1343SOL     OW 7816   5.605   8.176   6.828 -0.2922  0.3184 -0.0545
 1343SOL    HW1 7817   5.531   8.117   6.844  0.9881 -0.8926  1.7279
 1343SOL    HW2 7818   5.678   8.119   6.807  1.7661  0.7654  4.5368
 1344SOL     OW 7819   2.330   1.578   9.376  0.1991  0.5444  0.2034
 1344SOL    HW1 7820   2.393   1.556   9.444  0.5251 -0.2402 -0.3428
 1344SOL    HW2 7821   2.349   1.517   9.305 -1.3297  0.1231  0.1246
 1345SOL     OW 7822  10.171   5.854   7.171  0.5350 -0.1582 -0.5146
 1345SOL    HW1 7823  10.171   5.789   7.241  2.3114  1.1822  0.8166
 1345SOL    HW2 7824  10.191   5.804   7.092  1.8711 -1.2514  0.4660
 1346SOL     OW 7825   5.323   5.339   0.032 -0.4643  0.0772  0.0203
 1346SOL    HW1 7826   5.329   5.324  -0.062 -0.0597 -0.6586  0.1570
 1346SOL    HW2 7827   5.409   5.372   0.057 -0.0834 -1.1264  0.3643
 1347SOL     OW 7828   0.591   7.673   9.095 -0.2124 -0.1612 -0.1093
 1347SOL    HW1 7829   0.594   7.729   9.018  0.6826  1.5565  1.1059
 1347SOL    HW2 7830   0.671   7.620   9.091 -0.1152  0.0030 -0.3017
 1348SOL     OW 7831   1.415   1.684   5.738 -0.3840 -0.1824 -0.4228
 1348SOL    HW1 7832   1.337   1.699   5.792  0.3209 -2.0011  1.2268
 1348SOL    HW2 7833   1.441   1.594   5.758  0.4400 -0.6561 -3.2086
 1349SOL     OW 7834   4.865   0.370   5.117 -0.7756 -0.4247 -0.0124
 1349SOL    HW1 7835   4.786   0.344   5.165 -0.5607 -0.5822  0.2557
 1349SOL    HW2 7836   4.852   0.463   5.099 -0.8317 -0.3513  0.4015
 1350SOL     OW 7837   2.981   0.678   2.818  0.5135 -0.4217  0.1456
 1350SOL    HW1 7838   2.988   0.584   2.800  1.1652 -0.3719  0.1323
 1350SOL    HW2 7839   3.068   0.704   2.847  0.1624  0.0435  0.8148
 1351SOL     OW 7840   7.538   6.844   9.650  0.3830  1.1189  0.0931
 1351SOL    HW1 7841   7.479   6.919   9.651  0.3687  1.1459 -1.1974
 1351SOL    HW2 7842   7.501   6.785   9.585  1.2638  0.7178 -0.0603
 1352SOL     OW 7843   0.202   9.878   5.237  0.1591  0.0966 -0.5166
 1352SOL    HW1 7844   0.246   9.794   5.227  1.9342  0.6143  1.9235
 1352SOL    HW2 7845   0.136   9.863   5.305 -1.4708  0.0945 -2.0001
 1353SOL     OW 7846   2.487   4.013   1.479  0.6513 -0.0876 -0.2609
 1353SOL    HW1 7847   2.430   4.078   1.520  0.6854 -0.6645  0.7203
 1353SOL    HW2 7848   2.477   3.935   1.533  0.5490 -0.9358 -1.4682
 1354SOL     OW 7849   3.794   5.463   9.634 -0.7334  0.1961  0.1360
 1354SOL    HW1 7850   3.727   5.398   9.610 -0.9373  0.0378  1.0957
 1354SOL    HW2 7851   3.809   5.512   9.553 -2.0296  0.2547 -0.0919
 1355SOL     OW 7852   9.983   7.430   8.990  0.5941 -0.4755 -0.3170
 1355SOL    HW1 7853  10.006   7.366   8.922  1.7311  1.5808 -2.0085
 1355SOL    HW2 7854  10.048   7.416   9.059  0.7655 -1.2059 -0.6132
 1356SOL     OW 7855   4.130   9.993   0.382 -0.0132  0.4265 -0.4768
 1356SOL    HW1 7856   4.171   9.922   0.430  0.4695  1.4479  0.6817
 1356SOL    HW2 7857   4.201  10.033   0.332  0.2653  1.6080  0.7993
 1357SOL     OW 7858   5.936   7.677   4.189 -0.0380  0.2116  0.5919
 1357SOL    HW1 7859   5.906   7.588   4.208  0.0581  0.0472 -0.0064
 1357SOL    HW2 7860   6.017   7.686   4.238  0.4022 -0.3338 -0.0252
 1358SOL     OW 7861   7.840   9.986   8.372 -0.3238  0.3438 -0.3138
 1358SOL    HW1 7862   7.890   9.943   8.441 -0.6848 -0.1514 -0.3490
 1358SOL    HW2 7863   7.842  10.079   8.395 -0.0296  0.2404  0.0935
 1359SOL     OW 7864   0.551   2.404   7.286  0.4641 -0.0541  0.0578
 1359SOL    HW1 7865   0.636   2.416   7.329  0.0257 -1.3179  1.3684
 1359SOL    HW2 7866   0.571   2.401   7.193  1.6925  0.9684  0.2704
 1360SOL     OW 7867   2.668   6.991   1.455  0.4109  0.4394 -0.0492
 1360SOL    HW1 7868   2.756   7.029   1.446  1.2333 -1.4206 -0.3041
 1360SOL    HW2 7869   2.652   6.950   1.370 -0.7464  0.8070 -0.0146
 1361SOL     OW 7870   5.424   1.168   6.790  0.0547  0.3147  0.4068
 1361SOL    HW1 7871   5.386   1.236   6.846  3.6355  1.7110  1.4703
 1361SOL    HW2 7872   5.421   1.205   6.702  0.1652  1.0249  0.6895
 1362SOL     OW 7873   5.640   5.241   2.033  0.2333  0.3960  0.2591
 1362SOL    HW1 7874   5.621   5.148   2.024 -0.3330  0.6512 -1.3780
 1362SOL    HW2 7875   5.703   5.260   1.963  0.6357  1.1851  0.8075
 1363SOL     OW 7876   9.215   6.100   5.050  0.3554  0.1274  0.6712
 1363SOL    HW1 7877   9.206   6.028   5.112 -1.2259 -0.7994 -0.5429
 1363SOL    HW2 7878   9.268   6.065   4.979  0.2190  0.4039  0.4280
 1364SOL     OW 7879   3.030   0.556   6.999  0.1169  0.0659 -0.2477
 1364SOL    HW1 7880   2.957   0.617   6.986 -0.8535 -1.0683 -0.3248
 1364SOL    HW2 7881   3.014   0.519   7.086  0.3865 -0.4950 -0.4372
 1365SOL     OW 7882   4.816   0.357   5.802  0.4049  0.8161  0.4518
 1365SOL    HW1 7883   4.752   0.348   5.872  0.5026 -1.5685  0.3241
 1365SOL    HW2 7884   4.803   0.280   5.747  0.4826  2.5016 -2.0712
 1366SOL     OW 7885   2.119   1.192   4.695  0.4529  0.5314 -0.4415
 1366SOL    HW1 7886   2.152   1.180   4.784  1.5189  1.5398 -0.6812
 1366SOL    HW2 7887   2.086   1.282   4.693 -0.1581  0.3044 -0.8895
 1367SOL     OW 7888   7.321   9.748   5.106  0.1722 -0.0944  0.2983
 1367SOL    HW1 7889   7.361   9.815   5.049 -0.2111 -0.2309 -0.1386
 1367SOL    HW2 7890   7.360   9.763   5.192 -0.7627  1.4458  0.4946
 1368SOL     OW 7891   9.685   8.241   9.434 -0.4687 -0.1315 -0.2858
 1368SOL    HW1 7892   9.751   8.174   9.453 -0.6952 -0.1061  0.6445
 1368SOL    HW2 7893   9.611   8.192   9.397 -0.0979 -0.2109 -0.9396
 1369SOL     OW 7894   1.718   2.216   7.766 -0.4705  0.5405 -0.1593
 1369SOL    HW1 7895   1.742   2.170   7.686 -0.7066 -1.7976  1.0243
 1369SOL    HW2 7896   1.801   2.227   7.813 -0.5357  0.5006 -0.0339
 1370SOL     OW 7897   2.234  10.191   8.252 -0.1912 -0.2543 -0.5671
 1370SOL    HW1 7898   2.174  10.135   8.300 -0.6926  0.2665 -0.5749
 1370SOL    HW2 7899   2.208  10.280   8.276 -0.6259  0.0319 -2.0094
 1371SOL     OW 7900   8.309  10.148   1.070 -0.6034  0.1060  0.4566
 1371SOL    HW1 7901   8.295  10.054   1.062 -1.2418  0.2687 -0.4197
 1371SOL    HW2 7902   8.378  10.156   1.136 -1.0258 -0.9395  1.0539
 1372SOL     OW 7903   9.638   1.523   9.049 -0.1749 -0.4518 -0.5942
 1372SOL    HW1 7904   9.610   1.454   8.988  1.5766 -1.3696 -0.4155
 1372SOL    HW2 7905   9.557   1.550   9.092 -1.2294 -0.8440 -2.2279
 1373SOL     OW 7906   2.577   3.413   3.388  0.2673 -0.3076 -0.1155
 1373SOL    HW1 7907   2.636   3.364   3.445 -1.5391 -1.1622  1.0877
 1373SOL    HW2 7908   2.518   3.459   3.447 -1.7541 -1.3174 -1.2283
 1374SOL     OW 7909   5.872   2.092   3.571  0.4942  0.5294 -0.0386
 1374SOL    HW1 7910   5.920   2.022   3.525 -0.4648 -1.0218  1.2154
 1374SOL    HW2 7911   5.796   2.048   3.608  0.1078  2.1630  1.2020
 1375SOL     OW 7912   2.773   5.340   6.463  0.0271  0.0270 -0.0509
 1375SOL    HW1 7913   2.805   5.252   6.486  1.4355  0.8443  1.2537
 1375SOL    HW2 7914   2.834   5.371   6.396  0.4862  0.6191  0.6365
 1376SOL     OW 7915   1.899   6.474   9.784 -0.3726  0.1147  0.1683
 1376SOL    HW1 7916   1.871   6.516   9.866  0.4383  0.5853  0.2220
 1376SOL    HW2 7917   1.959   6.538   9.745 -2.0026  0.6394 -1.6278
 1377SOL     OW 7918   9.756   6.927   1.088 -0.4497 -0.5088  0.2045
 1377SOL    HW1 7919   9.690   6.958   1.150 -3.0697 -1.6984 -1.7986
 1377SOL    HW2 7920   9.837   6.925   1.139 -2.2690 -0.7114  3.3704
 1378SOL     OW 7921   0.327   0.259   1.347  0.1803  0.1517 -0.2437
 1378SOL    HW1 7922   0.404   0.293   1.302 -0.0169 -2.1895 -2.6681
 1378SOL    HW2 7923   0.260   0.326   1.334  1.0968  1.0452 -0.4432
 1379SOL     OW 7924   6.004   8.933   2.553 -0.0227 -0.1233 -0.0800
 1379SOL    HW1 7925   5.920   8.930   2.598 -2.2800 -0.1151 -3.8772
 1379SOL    HW2 7926   6.035   8.843   2.554 -0.9643 -0.4601 -0.1340
 1380SOL     OW 7927   4.581   6.590   2.283  0.0341  0.0575  1.1718
 1380SOL    HW1 7928   4.517   6.631   2.225  0.8927 -0.3264 -0.1048
 1380SOL    HW2 7929   4.531   6.523   2.330 -0.9414  1.1875  1.8124
 1381SOL     OW 7930  10.272   4.004   0.091 -0.4615 -0.1907 -0.1546
 1381SOL    HW1 7931  10.348   4.053   0.122  0.3043 -2.2992  1.5780
 1381SOL    HW2 7932  10.307   3.918   0.069 -1.9659 -0.4381 -1.7783
 1382SOL     OW 7933   6.090   4.679   5.473 -0.4303  0.2563 -0.3165
 1382SOL    HW1 7934   6.057   4.591   5.492  0.0364  0.2412  0.4450
 1382SOL    HW2 7935   6.037   4.708   5.398 -0.2444 -0.8616 -0.9090
 1383SOL     OW 7936   8.917   8.451   9.031 -0.0522 -0.5984 -0.2226
 1383SOL    HW1 7937   8.845   8.505   9.001  1.0271 -0.2791 -2.4172
 1383SOL    HW2 7938   8.879   8.364   9.041 -1.9677  0.4372  3.9565
 1384SOL     OW 7939  10.061   4.668   4.033  0.6304  0.3690  0.0557
 1384SOL    HW1 7940  10.016   4.751   4.040  0.8085  0.5914 -1.1109
 1384SOL    HW2 7941  10.066   4.634   4.122 -1.4482  0.5268  0.2618
 1385SOL     OW 7942   1.064   8.805   7.670 -0.2376  0.1171 -0.5412
 1385SOL    HW1 7943   1.125   8.735   7.695 -1.6720 -0.6712  0.9676
 1385SOL    HW2 7944   1.113   8.886   7.683  0.4745 -0.4916  0.7490
 1386SOL     OW 7945   8.918   6.283   1.598  0.0685  0.0318  0.2877
 1386SOL    HW1 7946   8.976   6.225   1.647  0.3600  2.2211  2.8008
 1386SOL    HW2 7947   8.959   6.291   1.512  1.1733 -1.7257  0.5915
 1387SOL     OW 7948   7.822   0.658   0.989  0.0065  0.0086 -0.3447
 1387SOL    HW1 7949   7.727   0.659   1.004 -0.1271 -0.5370 -1.0684
 1387SOL    HW2 7950   7.831   0.649   0.894  0.7798 -0.5701 -0.2253
 1388SOL     OW 7951   9.136   6.723   8.788  0.3082 -0.1514 -0.5880
 1388SOL    HW1 7952   9.140   6.650   8.851  0.3390  0.2313 -0.1362
 1388SOL    HW2 7953   9.195   6.697   8.718  0.9568 -0.2006 -0.0359
 1389SOL     OW 7954   9.428  10.243   4.335  0.5862  0.3934  0.0275
 1389SOL    HW1 7955   9.386  10.157   4.348  2.6442 -0.8752 -1.0979
 1389SOL    HW2 7956   9.357  10.306   4.345 -1.2873 -1.5209 -0.4084
 1390SOL     OW 7957   8.638   7.856   6.246  0.3712  0.1070  0.7719
 1390SOL    HW1 7958   8.556   7.813   6.222 -0.2800  0.1608  2.7249
 1390SOL    HW2 7959   8.624   7.949   6.228  0.5204 -0.0479 -0.1836
 1391SOL     OW 7960   8.224   5.809   9.502 -0.2356 -0.4043 -0.6354
 1391SOL    HW1 7961   8.317   5.818   9.485 -0.0453 -0.4622  0.3314
 1391SOL    HW2 7962   8.217   5.735   9.563 -0.7722  0.4569  0.3887
 1392SOL     OW 7963   4.399   2.460   8.121  0.3444 -0.2512  0.3350
 1392SOL    HW1 7964   4.365   2.371   8.111  0.7151 -0.2963 -0.5999
 1392SOL    HW2 7965   4.469   2.466   8.056  0.5546  0.6087  0.6378
 1393SOL     OW 7966   0.945   8.032   6.066 -0.6098  0.2221 -0.2702
 1393SOL    HW1 7967   0.869   8.025   6.123 -0.7130  0.4198 -0.3806
 1393SOL    HW2 7968   0.955   8.126   6.051  0.9310  0.4005  1.4451
 1394SOL     OW 7969   3.375   0.185   7.434 -0.2577  0.4815 -0.5584
 1394SOL    HW1 7970   3.298   0.165   7.382  0.1348  0.0160 -0.9601
 1394SOL    HW2 7971   3.381   0.113   7.497  1.1344 -0.7340 -1.9850
 1395SOL     OW 7972   5.645   3.461   9.015  0.1824  0.0852  0.0962
 1395SOL    HW1 7973   5.641   3.523   9.087  0.5627 -1.1200  1.1961
 1395SOL    HW2 7974   5.556   3.427   9.008  0.2570 -0.1529  0.3152
 1396SOL     OW 7975   2.940   2.590   3.668  0.6516 -0.6014 -0.1043
 1396SOL    HW1 7976   2.902   2.634   3.743 -0.0171  0.4786 -1.0395
 1396SOL    HW2 7977   2.868   2.539   3.631  0.7847 -0.5657 -0.4150
 1397SOL     OW 7978   9.732   5.778   9.827 -0.2579 -0.1413 -0.3856
 1397SOL    HW1 7979   9.735   5.756   9.920 -1.0417  1.7747  0.1471
 1397SOL    HW2 7980   9.775   5.863   9.821  0.9687 -0.8267 -2.0106
 1398SOL     OW 7981   7.418   1.190   6.911 -0.0790  0.4701 -0.6589
 1398SOL    HW1 7982   7.404   1.157   6.822  1.1377 -0.5566 -0.4931
 1398SOL    HW2 7983   7.484   1.259   6.901 -0.8179  1.1832 -0.6914
 1399SOL     OW 7984   5.619   2.977   6.109 -0.0442  0.5989  0.9247
 1399SOL    HW1 7985   5.697   2.936   6.072 -0.9085  0.6406 -1.0622
 1399SOL    HW2 7986   5.638   3.071   6.106  0.2243  0.5642  1.4179
 1400SOL     OW 7987   6.393   6.774   5.875  0.3742 -0.5089 -0.5287
 1400SOL    HW1 7988   6.328   6.828   5.829  0.4246 -0.6417 -0.7571
 1400SOL    HW2 7989   6.476   6.792   5.829  0.7436  0.5696  0.4941
 1401SOL     OW 7990   6.241  10.254   9.314 -0.0494  0.3497  0.2040
 1401SOL    HW1 7991   6.195  10.319   9.368  0.2184  0.5680  0.1701
 1401SOL    HW2 7992   6.321  10.235   9.362 -1.0280 -1.4592  1.2324
 1402SOL     OW 7993   9.839   8.426   6.465  0.0790  0.2214  0.0384
 1402SOL    HW1 7994   9.771   8.494   6.455 -0.3471 -0.2101 -0.0580
 1402SOL    HW2 7995   9.861   8.428   6.558  0.1670  0.5873  0.0102
 1403SOL     OW 7996   8.811   8.247   5.969 -0.1820  0.0761 -0.1917
 1403SOL    HW1 7997   8.873   8.319   5.983 -0.8563  0.4370  1.0886
 1403SOL    HW2 7998   8.824   8.189   6.044 -1.1724  0.0049 -0.0630
 1404SOL     OW 7999   9.496   4.500   7.099 -0.7360  0.4849  1.1697
 1404SOL    HW1 8000   9.410   4.463   7.079 -0.0235 -0.6282  0.0044
 1404SOL    HW2 8001   9.524   4.456   7.179 -1.1872  0.7713  1.4912
 1405SOL     OW 8002   4.445   3.003   9.065  0.3083  0.1719  0.0302
 1405SOL    HW1 8003   4.431   3.091   9.030  2.7631  0.3999 -0.5735
 1405SOL    HW2 8004   4.442   3.015   9.160 -0.3454  0.7060 -0.0470
 1406SOL     OW 8005   1.252   6.927   4.277 -0.8560  0.0393 -0.1322
 1406SOL    HW1 8006   1.214   6.964   4.197 -1.4509 -1.1738 -0.4394
 1406SOL    HW2 8007   1.342   6.905   4.252 -0.9792 -0.1532 -0.4202
 1407SOL     OW 8008   5.515   9.520   1.399  0.1202 -0.2103  0.1515
 1407SOL    HW1 8009   5.501   9.613   1.417 -2.5006 -0.5573  0.2534
 1407SOL    HW2 8010   5.521   9.514   1.303  1.6485  0.1622  0.1896
 1408SOL     OW 8011   4.335   4.479   3.396 -0.6823  0.0484  0.2818
 1408SOL    HW1 8012   4.369   4.556   3.350  1.9415 -1.0976  0.1053
 1408SOL    HW2 8013   4.346   4.500   3.489 -0.4546  0.1014  0.2448
 1409SOL     OW 8014   0.262   8.436   7.296  0.8578  0.0604 -0.0905
 1409SOL    HW1 8015   0.182   8.484   7.315  1.2383  0.7667 -0.2697
 1409SOL    HW2 8016   0.333   8.497   7.315  1.5060 -1.3702  2.7244
 1410SOL     OW 8017   4.377   1.472   3.671  0.6025  0.1998 -0.1617
 1410SOL    HW1 8018   4.358   1.424   3.752  2.3034 -0.3286 -0.0315
 1410SOL    HW2 8019   4.376   1.564   3.698  2.8829 -0.0191  0.9402
 1411SOL     OW 8020   3.132   4.482  10.162 -0.3370 -0.2054  0.2109
 1411SOL    HW1 8021   3.192   4.410  10.182  0.5235 -0.2809 -2.3518
 1411SOL    HW2 8022   3.177   4.534  10.096 -1.6328  1.8030  0.8024
 1412SOL     OW 8023   9.449   6.488   4.080  0.9854 -0.3193  0.2141
 1412SOL    HW1 8024   9.354   6.483   4.069  1.1157  0.9697 -2.1999
 1412SOL    HW2 8025   9.464   6.459   4.169 -1.7873  0.5323  1.0708
 1413SOL     OW 8026   9.990   0.918   9.000  0.2831 -0.5087 -0.2085
 1413SOL    HW1 8027   9.962   0.880   9.084 -0.3023 -0.9927 -0.6133
 1413SOL    HW2 8028  10.081   0.890   8.991  0.2057 -0.8616  0.0416
 1414SOL     OW 8029   9.067   9.137   0.404  0.0996 -0.1752 -0.5780
 1414SOL    HW1 8030   9.117   9.142   0.322 -0.3813  0.2619 -0.8546
 1414SOL    HW2 8031   9.005   9.066   0.389 -0.9524  0.8341 -1.1557
 1415SOL     OW 8032   3.446   3.395   6.567 -0.1252  0.1066 -0.2200
 1415SOL    HW1 8033   3.527   3.394   6.619  1.4220 -0.2489 -2.4743
 1415SOL    HW2 8034   3.396   3.321   6.600  1.4950 -1.0479 -0.2149
 1416SOL     OW 8035   4.720   6.983   9.749 -0.0891 -0.1593 -0.3371
 1416SOL    HW1 8036   4.770   7.057   9.715 -0.6122  0.5892  0.4887
 1416SOL    HW2 8037   4.640   7.021   9.783  0.2852 -0.8809  1.4824
 1417SOL     OW 8038   4.428   6.658   3.354  0.1137 -0.0484 -0.3808
 1417SOL    HW1 8039   4.483   6.597   3.404  0.8725 -0.3182 -1.5162
 1417SOL    HW2 8040   4.427   6.623   3.265 -1.6428  0.1418 -0.4728
 1418SOL     OW 8041   8.657   5.662   5.957  0.1754  0.2958  0.8426
 1418SOL    HW1 8042   8.710   5.701   5.888 -1.0992  0.8139  0.1222
 1418SOL    HW2 8043   8.638   5.573   5.926  0.3625  0.2189  0.9499
 1419SOL     OW 8044   6.661   7.222   6.854 -0.0966 -0.3045 -0.1997
 1419SOL    HW1 8045   6.754   7.243   6.860 -0.6371  1.9004  2.9817
 1419SOL    HW2 8046   6.629   7.277   6.782  0.6113  1.2559  0.6145
 1420SOL     OW 8047   8.432   3.624   7.031 -0.0890 -0.2343  0.0469
 1420SOL    HW1 8048   8.427   3.578   7.114  0.4757 -0.7031 -0.1703
 1420SOL    HW2 8049   8.374   3.576   6.973 -2.5087  1.5685  0.8087
 1421SOL     OW 8050   0.814   3.398   1.796 -0.7033 -0.3711 -0.3388
 1421SOL    HW1 8051   0.805   3.450   1.876  0.4879  0.1885 -0.5385
 1421SOL    HW2 8052   0.873   3.326   1.820 -0.1503 -0.0667 -0.7586
 1422SOL     OW 8053   0.415   9.316   9.105 -0.0923 -0.2094 -0.1280
 1422SOL    HW1 8054   0.391   9.245   9.046 -1.4728 -1.2433  1.5884
 1422SOL    HW2 8055   0.341   9.325   9.164  0.7734  1.5205  0.7870
 1423SOL     OW 8056   8.176   1.113   1.747 -0.2005  0.0139  0.2093
 1423SOL    HW1 8057   8.226   1.195   1.741 -1.4203  0.7134 -1.0793
 1423SOL    HW2 8058   8.242   1.045   1.754  0.9362  0.9373 -1.0177
 1424SOL     OW 8059   8.891   1.421   0.863  0.2623  0.5398  0.1476
 1424SOL    HW1 8060   8.906   1.478   0.787 -0.0057  2.0397  1.1881
 1424SOL    HW2 8061   8.813   1.457   0.905  1.0966  0.4748  1.8021
 1425SOL     OW 8062   3.739   0.301   8.391  0.1387  0.4169 -0.0599
 1425SOL    HW1 8063   3.700   0.388   8.391  0.6954  0.7057  1.3529
 1425SOL    HW2 8064   3.828   0.315   8.425  0.0126 -0.7750  0.8424
 1426SOL     OW 8065   4.342   2.791   3.672 -0.0960  0.7973 -0.5757
 1426SOL    HW1 8066   4.310   2.782   3.762  1.3365  0.7734 -0.0445
 1426SOL    HW2 8067   4.301   2.719   3.624  1.0493 -0.7353  0.6412
 1427SOL     OW 8068   6.792   3.002   5.517 -0.4762  0.6032 -0.0184
 1427SOL    HW1 8069   6.839   2.981   5.597  0.5609  0.7310 -0.5871
 1427SOL    HW2 8070   6.761   2.917   5.485 -0.8419  0.5461  0.4749
 1428SOL     OW 8071   4.220   1.852   2.016 -0.4566  0.1175 -0.0990
 1428SOL    HW1 8072   4.240   1.899   1.935 -1.2456  0.1844 -0.2567
 1428SOL    HW2 8073   4.143   1.799   1.996  0.4198 -1.3006  0.0567
 1429SOL     OW 8074   9.017   6.347   1.340  0.0344  0.9956 -0.7375
 1429SOL    HW1 8075   9.011   6.367   1.247  1.0524  1.7489 -0.6496
 1429SOL    HW2 8076   8.994   6.428   1.385  0.9856  1.0730 -0.3558
 1430SOL     OW 8077   3.520   9.277   7.644 -0.1355  0.2911  0.5158
 1430SOL    HW1 8078   3.576   9.219   7.695  0.5193  1.2942  0.9750
 1430SOL    HW2 8079   3.460   9.315   7.708 -0.8397 -0.1876  0.1489
 1431SOL     OW 8080   0.569   6.461  10.082 -0.0761 -0.1551 -0.1773
 1431SOL    HW1 8081   0.548   6.386  10.136 -0.7417 -0.1684 -0.4515
 1431SOL    HW2 8082   0.485   6.500  10.059  0.0740 -1.0347 -2.4602
 1432SOL     OW 8083   0.072   5.589   3.074 -0.4212 -0.2210  0.1190
 1432SOL    HW1 8084  -0.003   5.616   3.127 -0.0773 -0.0250  0.5160
 1432SOL    HW2 8085   0.048   5.502   3.041 -0.9942  0.0157 -0.1038
 1433SOL     OW 8086   7.592   4.783   6.161  0.0802  0.2234  0.6871
 1433SOL    HW1 8087   7.598   4.720   6.233  2.2170 -0.7624 -0.2887
 1433SOL    HW2 8088   7.528   4.745   6.101  0.8378 -0.6723  0.4417
 1434SOL     OW 8089   9.872   1.272   9.815 -0.2204 -0.1021  0.4674
 1434SOL    HW1 8090   9.944   1.319   9.858  0.1561  0.8019 -1.0893
 1434SOL    HW2 8091   9.800   1.336   9.813  0.0742  0.2075 -1.0552
 1435SOL     OW 8092   7.291   8.239   8.230 -0.1957 -0.6939 -0.0922
 1435SOL    HW1 8093   7.314   8.170   8.168  0.1602 -0.2288 -0.4900
 1435SOL    HW2 8094   7.199   8.224   8.249  0.3525 -2.5663  1.4815
 1436SOL     OW 8095   0.898   9.733   1.138 -0.5247 -0.3669  0.7346
 1436SOL    HW1 8096   0.879   9.696   1.225  0.6406 -2.4265  0.1807
 1436SOL    HW2 8097   0.984   9.698   1.116  0.3090  2.1007 -0.2514
 1437SOL     OW 8098   2.726   5.464   5.634 -0.1212  0.1473 -0.1127
 1437SOL    HW1 8099   2.794   5.440   5.571  0.4611 -1.9362  1.1994
 1437SOL    HW2 8100   2.659   5.507   5.582  0.5386 -1.0945 -2.0831
 1438SOL     OW 8101   1.407   0.093   6.385  0.1759 -0.2717  0.2418
 1438SOL    HW1 8102   1.419   0.045   6.303 -3.0578  0.6182 -0.8983
 1438SOL    HW2 8103   1.437   0.181   6.365  1.4681 -0.5724  0.7701
 1439SOL     OW 8104   0.319   4.607   7.873  0.0233  0.6214 -0.6214
 1439SOL    HW1 8105   0.337   4.669   7.944  0.7935 -0.7158  0.4087
 1439SOL    HW2 8106   0.362   4.645   7.796  2.9464  0.0622  0.6240
 1440SOL     OW 8107   9.545   3.752   5.323 -0.3056 -0.0670 -0.1063
 1440SOL    HW1 8108   9.565   3.688   5.255 -0.5120 -0.7390  0.4443
 1440SOL    HW2 8109   9.629   3.767   5.367 -0.7562 -2.3160  1.7230
 1441SOL     OW 8110   5.274   0.345   1.795 -0.0721  0.4811 -0.0084
 1441SOL    HW1 8111   5.304   0.436   1.793 -1.0894  0.8413  0.4123
 1441SOL    HW2 8112   5.263   0.325   1.888  4.4193 -1.5839  0.3496
 1442SOL     OW 8113   2.573   7.932   2.615  0.2537  0.2472 -0.3490
 1442SOL    HW1 8114   2.615   8.006   2.570 -0.1269  0.6179 -0.1014
 1442SOL    HW2 8115   2.594   7.945   2.707 -0.9789  0.8378 -0.1282
 1443SOL     OW 8116   9.275   9.934   1.916 -0.3071  0.0774 -0.0933
 1443SOL    HW1 8117   9.304   9.998   1.851  0.4436  0.2700  0.4053
 1443SOL    HW2 8118   9.183   9.954   1.931  0.1750  1.8013  0.8598
 1444SOL     OW 8119   3.757   9.157   1.859 -0.5278 -0.0231  0.1782
 1444SOL    HW1 8120   3.749   9.063   1.875 -1.9939 -0.0377 -0.4301
 1444SOL    HW2 8121   3.848   9.170   1.831  0.4500 -0.8404  2.7431
 1445SOL     OW 8122   5.635   7.950   3.266 -0.4474 -0.1280 -0.2266
 1445SOL    HW1 8123   5.690   7.871   3.259 -1.5809 -0.9621  0.0074
 1445SOL    HW2 8124   5.632   7.984   3.176  1.4537  0.6620 -0.0379
 1446SOL     OW 8125   6.931   8.861   1.195  0.3843  0.2540  0.6360
 1446SOL    HW1 8126   6.923   8.800   1.121 -1.0077 -0.4799  1.3359
 1446SOL    HW2 8127   7.002   8.825   1.248 -0.6323 -1.0064  1.2068
 1447SOL     OW 8128   8.504   5.011   0.245 -0.1743  0.0277  0.7837
 1447SOL    HW1 8129   8.446   5.058   0.184 -1.6976 -0.5525  1.7410
 1447SOL    HW2 8130   8.515   4.925   0.205  0.1192  0.1790  0.5398
 1448SOL     OW 8131   5.913   2.678   1.699 -0.0397  0.0460  0.7339
 1448SOL    HW1 8132   5.833   2.730   1.703 -1.3744 -1.2635 -3.7668
 1448SOL    HW2 8133   5.984   2.742   1.704 -1.2728  1.3741  3.1626
 1449SOL     OW 8134   9.761   9.926   6.937 -0.2372 -0.1706 -0.4052
 1449SOL    HW1 8135   9.775  10.009   6.981  0.9246 -0.2541 -0.5963
 1449SOL    HW2 8136   9.737   9.865   7.007  2.1562 -0.4446  0.2532
 1450SOL     OW 8137   5.041   0.383   6.421  0.2303 -0.4095  0.0784
 1450SOL    HW1 8138   5.102   0.389   6.494  1.2437  1.7631 -0.8395
 1450SOL    HW2 8139   4.993   0.301   6.435 -0.1433  0.2668  3.5333
 1451SOL     OW 8140   2.352   9.250   2.006  0.0601 -0.1097  0.6678
 1451SOL    HW1 8141   2.302   9.327   2.034  0.0122 -0.2931  1.0872
 1451SOL    HW2 8142   2.322   9.180   2.064 -0.3886 -0.6079 -0.1369
 1452SOL     OW 8143   5.109   7.424   3.734 -0.3231 -0.5727 -0.6551
 1452SOL    HW1 8144   5.144   7.404   3.646 -0.2583 -0.4315 -0.6613
 1452SOL    HW2 8145   5.102   7.338   3.776 -0.1871 -0.6259 -0.7368
 1453SOL     OW 8146   1.705   0.223   4.600 -0.7244  0.1662 -0.5274
 1453SOL    HW1 8147   1.632   0.202   4.542 -1.3657 -0.5536  0.5058
 1453SOL    HW2 8148   1.668   0.219   4.688  0.1658  1.4875 -0.0608
 1454SOL     OW 8149   7.545   4.294  10.071 -0.0262 -0.2046 -0.0816
 1454SOL    HW1 8150   7.537   4.314   9.978  0.8770 -0.2485 -0.1785
 1454SOL    HW2 8151   7.586   4.208  10.073  2.3859  0.8687  0.3333
 1455SOL     OW 8152   6.854   2.229   4.443 -0.1388  0.2763  0.4754
 1455SOL    HW1 8153   6.798   2.156   4.416 -1.1321  0.6974  1.3202
 1455SOL    HW2 8154   6.825   2.250   4.532  0.9141  0.9570  0.6763
 1456SOL     OW 8155   0.782   1.717   3.989 -0.6630  0.4022 -0.1875
 1456SOL    HW1 8156   0.713   1.700   4.053  0.3339 -0.5474  0.6838
 1456SOL    HW2 8157   0.781   1.641   3.931 -0.4417  0.4579 -0.2679
 1457SOL     OW 8158   2.905   7.955   2.336 -0.4436  0.3632 -0.7844
 1457SOL    HW1 8159   2.985   7.934   2.384  0.2780 -0.0972 -2.1511
 1457SOL    HW2 8160   2.931   7.956   2.244 -2.2619 -1.0602 -1.3757
 1458SOL     OW 8161   4.100   4.562   6.030  0.1047 -0.0654  0.0293
 1458SOL    HW1 8162   4.062   4.609   5.956  0.0047  0.6532  0.5299
 1458SOL    HW2 8163   4.038   4.491   6.048 -0.8194  0.8586  0.5893
 1459SOL     OW 8164   7.141   2.635   2.035 -0.0340  0.3000  0.0191
 1459SOL    HW1 8165   7.105   2.551   2.005  0.3882 -0.0286  0.4318
 1459SOL    HW2 8166   7.140   2.629   2.131  2.0793 -0.1336  0.0592
 1460SOL     OW 8167   7.060   5.147   2.746  0.2669  0.0211 -0.0808
 1460SOL    HW1 8168   7.067   5.059   2.782 -1.8226  0.0327  0.4912
 1460SOL    HW2 8169   7.028   5.135   2.657 -0.2370  0.1837  0.0718
 1461SOL     OW 8170   4.761   1.136   4.369 -0.4725 -0.1407 -0.1248
 1461SOL    HW1 8171   4.720   1.221   4.379  1.3807  1.0190 -1.6510
 1461SOL    HW2 8172   4.842   1.142   4.420  0.5111 -0.3300 -1.6162
 1462SOL     OW 8173   7.322   8.480   8.009  0.4319 -0.2286 -0.1838
 1462SOL    HW1 8174   7.360   8.474   7.921  1.1028  0.9012  0.0054
 1462SOL    HW2 8175   7.397   8.486   8.067  0.0020 -1.4291  0.5338
 1463SOL     OW 8176   4.484   5.858   0.099  0.2907 -0.2942 -0.3684
 1463SOL    HW1 8177   4.537   5.847   0.019 -2.9984 -0.3368 -2.7692
 1463SOL    HW2 8178   4.452   5.770   0.118  0.1649 -0.0979  0.3284
 1464SOL     OW 8179   9.680   4.896   9.942  0.4803 -0.4255  0.0836
 1464SOL    HW1 8180   9.761   4.935   9.909  0.3458  2.2131  2.4602
 1464SOL    HW2 8181   9.699   4.875  10.034 -1.2500 -0.5748  0.4458
 1465SOL     OW 8182   0.104   1.030   3.338  0.0843  0.6444  0.0431
 1465SOL    HW1 8183   0.038   1.019   3.270  2.3017  1.6317 -2.4408
 1465SOL    HW2 8184   0.171   0.964   3.317  1.1068  1.3861  0.8700
 1466SOL     OW 8185   1.645   7.880   2.032 -0.0652  0.0126  0.2425
 1466SOL    HW1 8186   1.658   7.893   1.938 -2.5972 -0.3468 -0.2309
 1466SOL    HW2 8187   1.666   7.965   2.071 -1.1138  0.8417 -0.9332
 1467SOL     OW 8188   1.838   4.091   4.937  0.5239  0.3185  0.2513
 1467SOL    HW1 8189   1.773   4.042   4.988 -0.6007  0.4552 -0.9793
 1467SOL    HW2 8190   1.801   4.093   4.848  0.6983  3.0660  0.1629
 1468SOL     OW 8191   7.254   7.163   8.320 -0.1315  0.5991 -0.3327
 1468SOL    HW1 8192   7.308   7.221   8.373  0.2661  0.8401 -0.9861
 1468SOL    HW2 8193   7.214   7.220   8.255 -1.7455  0.5401  0.5611
 1469SOL     OW 8194   0.373   6.769   8.350  0.1807 -0.4482  0.0110
 1469SOL    HW1 8195   0.329   6.775   8.266  1.3243  1.2582 -0.5211
 1469SOL    HW2 8196   0.440   6.702   8.337  0.7052  0.1863 -0.6339
 1470SOL     OW 8197   9.884   8.397   1.744  0.1615  0.4483 -0.3121
 1470SOL    HW1 8198   9.910   8.459   1.675  1.4011 -0.1689 -0.4326
 1470SOL    HW2 8199   9.819   8.444   1.795  0.1706  1.3989 -1.1399
 1471SOL     OW 8200   1.750   4.069  10.203 -0.3527  0.1522  0.1963
 1471SOL    HW1 8201   1.661   4.103  10.217 -0.5647  0.4831 -1.7081
 1471SOL    HW2 8202   1.798   4.095  10.282 -1.9791 -0.2003  1.3583
 1472SOL     OW 8203   3.521   8.252   9.425 -0.3936  0.4686  0.5055
 1472SOL    HW1 8204   3.587   8.309   9.387  0.0025 -0.4334 -0.2007
 1472SOL    HW2 8205   3.438   8.287   9.395 -0.0897 -0.2935 -1.3521
 1473SOL     OW 8206   6.279   5.050   9.159 -0.6148  0.6804 -0.1786
 1473SOL    HW1 8207   6.358   5.018   9.203 -0.3387  1.2732 -0.2358
 1473SOL    HW2 8208   6.251   5.124   9.212  0.1260  1.8550 -1.3675
 1474SOL     OW 8209   9.503   5.723   4.793  0.4000 -0.0144 -0.1365
 1474SOL    HW1 8210   9.413   5.718   4.822 -0.0196  2.3723 -0.8244
 1474SOL    HW2 8211   9.510   5.655   4.726 -0.7266 -0.5379  0.2497
 1475SOL     OW 8212   9.709   4.392   0.685  0.1567  0.0107  0.5995
 1475SOL    HW1 8213   9.640   4.459   0.686 -0.0076  0.0022 -2.4013
 1475SOL    HW2 8214   9.789   4.440   0.665  0.5420 -0.3558  1.2375
 1476SOL     OW 8215   2.150   8.718   1.336 -0.3733 -0.2253  0.5798
 1476SOL    HW1 8216   2.234   8.761   1.348  0.0654 -1.2749  1.4686
 1476SOL    HW2 8217   2.100   8.777   1.280  1.0623  0.2612 -0.2399
 1477SOL     OW 8218   8.371   9.730   4.101  0.2012  0.1873 -0.4449
 1477SOL    HW1 8219   8.321   9.748   4.180  2.0885  1.0218  0.6082
 1477SOL    HW2 8220   8.462   9.746   4.125  1.4431 -4.0017 -1.4152
 1478SOL     OW 8221   4.399   2.561  10.055 -1.1603  0.0276 -0.2587
 1478SOL    HW1 8222   4.364   2.556  10.145  1.6044  1.5221  0.9910
 1478SOL    HW2 8223   4.423   2.470  10.035  1.0048  0.0458  1.7994
 1479SOL     OW 8224   0.854   8.823   9.827 -0.0759 -0.5326 -0.3946
 1479SOL    HW1 8225   0.807   8.854   9.904 -0.7018  0.0423 -0.9958
 1479SOL    HW2 8226   0.788   8.820   9.757  0.7741  0.4471 -1.2913
 1480SOL     OW 8227   1.500   1.720   3.723 -0.4566  0.1074 -0.2728
 1480SOL    HW1 8228   1.467   1.633   3.699 -1.2088 -0.0781  1.3469
 1480SOL    HW2 8229   1.565   1.740   3.655 -0.9158 -1.3193 -1.1789
 1481SOL     OW 8230   0.565   0.984   6.968 -0.1670 -0.0010 -0.0964
 1481SOL    HW1 8231   0.592   0.937   6.889 -1.3130  1.0637 -1.1663
 1481SOL    HW2 8232   0.474   0.957   6.982  0.0379 -0.2236  0.9235
 1482SOL     OW 8233   7.235   0.281   6.560 -0.2444 -0.0865 -0.4970
 1482SOL    HW1 8234   7.233   0.280   6.464  0.2860 -1.5393 -0.5184
 1482SOL    HW2 8235   7.168   0.219   6.587  0.3542 -0.5259  0.0322
 1483SOL     OW 8236   4.804   6.300   0.505  0.0366  0.3395 -0.4598
 1483SOL    HW1 8237   4.882   6.325   0.455  1.0867 -0.9104  0.4715
 1483SOL    HW2 8238   4.767   6.383   0.536  0.8128  0.9676 -1.1818
 1484SOL     OW 8239   5.024   1.574   5.078  0.3239  0.2596 -0.0470
 1484SOL    HW1 8240   4.982   1.512   5.018 -0.3300  1.2067 -0.5953
 1484SOL    HW2 8241   5.062   1.519   5.146  1.0817 -0.8438 -1.3177
 1485SOL     OW 8242   9.457   9.752   1.559 -0.3615 -0.9127  0.3487
 1485SOL    HW1 8243   9.410   9.740   1.642  0.5455 -1.4556  0.7961
 1485SOL    HW2 8244   9.522   9.819   1.577 -0.3250 -0.8505 -0.0021
 1486SOL     OW 8245   3.786   1.432   5.071  0.1657 -0.5510  0.2801
 1486SOL    HW1 8246   3.815   1.346   5.102 -0.8205 -0.6831  0.8905
 1486SOL    HW2 8247   3.704   1.448   5.118  1.2164  1.5499  1.6210
 1487SOL     OW 8248   5.000   0.520  10.285 -0.5505 -0.0191 -0.2479
 1487SOL    HW1 8249   4.974   0.496  10.373  0.5359 -2.0163 -0.4304
 1487SOL    HW2 8250   4.919   0.518  10.234 -1.1464  0.9406  0.6306
 1488SOL     OW 8251   3.168   9.872   7.254  0.0584  0.2756 -0.4200
 1488SOL    HW1 8252   3.088   9.845   7.299 -0.2209  0.8508 -0.5588
 1488SOL    HW2 8253   3.217   9.919   7.321  1.5182 -2.3118  0.4424
 1489SOL     OW 8254   4.859   3.232   7.895  0.5671 -0.0032 -0.5597
 1489SOL    HW1 8255   4.902   3.175   7.832 -0.7727 -0.1098 -1.4141
 1489SOL    HW2 8256   4.766   3.230   7.871  0.2458  1.2149  0.4316
 1490SOL     OW 8257   4.141   8.951   3.684  0.3883 -0.2509 -0.4144
 1490SOL    HW1 8258   4.227   8.967   3.644  1.1248  2.0509  1.8113
 1490SOL    HW2 8259   4.105   9.039   3.700 -0.6570 -1.0492  2.1718
 1491SOL     OW 8260   3.646   6.751   2.939  0.3653 -0.1104 -0.7151
 1491SOL    HW1 8261   3.714   6.773   3.003 -0.3468 -0.1734  0.0903
 1491SOL    HW2 8262   3.565   6.744   2.991 -0.0972 -0.9448 -1.5008
 1492SOL     OW 8263   0.655   3.063   0.129  0.5280  0.1764 -0.5852
 1492SOL    HW1 8264   0.586   3.042   0.193  0.0609 -0.2717 -1.2273
 1492SOL    HW2 8265   0.734   3.074   0.182 -0.0024  0.5566  0.1516
 1493SOL     OW 8266   3.840   4.253   6.347 -0.4593  0.2389  0.0677
 1493SOL    HW1 8267   3.773   4.186   6.359 -0.2048  0.2256  1.6403
 1493SOL    HW2 8268   3.816   4.322   6.409 -1.2628  2.1029 -2.1633
 1494SOL     OW 8269   5.664   2.993   4.518 -0.0417 -0.5146  0.4068
 1494SOL    HW1 8270   5.639   3.081   4.549 -0.8138 -0.6448  0.1762
 1494SOL    HW2 8271   5.759   2.992   4.525  0.1741  1.0502 -1.4317
 1495SOL     OW 8272  10.150   7.815   6.711  0.4350  0.6843  0.0447
 1495SOL    HW1 8273  10.083   7.875   6.744 -2.7788 -1.7701 -1.4460
 1495SOL    HW2 8274  10.160   7.838   6.619  0.5944  0.1677 -0.0731
 1496SOL     OW 8275   8.414   8.387   3.895 -0.1453  0.1132 -0.1750
 1496SOL    HW1 8276   8.411   8.483   3.891 -2.5331  0.0762 -0.8480
 1496SOL    HW2 8277   8.371   8.365   3.977  1.0404 -0.4004  0.3290
 1497SOL     OW 8278   8.673   4.709   6.165  0.0383 -0.6538 -0.8785
 1497SOL    HW1 8279   8.755   4.703   6.213 -0.6696  2.6869  1.0813
 1497SOL    HW2 8280   8.607   4.679   6.227 -0.4367 -1.5762 -1.7970
 1498SOL     OW 8281   7.086   6.965   8.215  0.6302 -0.5496 -0.3039
 1498SOL    HW1 8282   7.141   7.026   8.265 -0.2245  0.0620 -0.0887
 1498SOL    HW2 8283   7.140   6.886   8.207  0.8622 -0.6096  1.4221
 1499SOL     OW 8284   5.765   9.647   3.698  0.0228 -0.1025 -0.4153
 1499SOL    HW1 8285   5.836   9.680   3.753 -1.5048  1.3697  0.7641
 1499SOL    HW2 8286   5.809   9.615   3.619  2.4856 -3.5234  2.0424
 1500SOL     OW 8287   2.122   3.390   0.519 -0.2182  0.3775  0.6240
 1500SOL    HW1 8288   2.184   3.402   0.446  1.2645 -0.0988  1.7539
 1500SOL    HW2 8289   2.079   3.306   0.500  0.0594  0.3224  0.2235
 1501SOL     OW 8290   0.111   7.195   6.790  0.2863  0.3802  0.5166
 1501SOL    HW1 8291   0.031   7.223   6.835 -0.7772 -1.3786 -0.1957
 1501SOL    HW2 8292   0.152   7.276   6.762 -2.8951  1.3666 -1.9197
 1502SOL     OW 8293   7.291   7.717   3.817  0.2766  0.1564 -0.0509
 1502SOL    HW1 8294   7.206   7.677   3.835 -0.1982  1.0930 -0.1721
 1502SOL    HW2 8295   7.336   7.653   3.762 -0.7456  0.0807 -0.8383
 1503SOL     OW 8296   8.812   7.017   5.413  0.0843  0.0794  0.1820
 1503SOL    HW1 8297   8.843   7.024   5.323  2.6109 -1.1202  0.8543
 1503SOL    HW2 8298   8.817   6.923   5.433 -0.4569  0.3181  1.5728
 1504SOL     OW 8299   6.502   5.162   1.962  0.3900  0.0163  0.0514
 1504SOL    HW1 8300   6.468   5.132   1.878  0.8404 -1.3807  0.3379
 1504SOL    HW2 8301   6.501   5.258   1.956 -0.3225 -0.0534 -1.2301
 1505SOL     OW 8302   3.185   8.689   2.650 -0.1441  0.1207  0.1297
 1505SOL    HW1 8303   3.271   8.726   2.670 -0.8160  0.4323  2.8498
 1505SOL    HW2 8304   3.169   8.626   2.721 -1.3559 -1.4100 -1.4136
 1506SOL     OW 8305   8.365   2.391   8.662  0.2344  0.0318  0.2542
 1506SOL    HW1 8306   8.359   2.481   8.629  1.9450  0.1051  0.0743
 1506SOL    HW2 8307   8.447   2.357   8.626 -0.8254 -1.9666 -0.5007
 1507SOL     OW 8308   7.655   5.135   9.547 -0.2976 -0.5189 -0.1417
 1507SOL    HW1 8309   7.747   5.142   9.522 -0.5938 -1.1695 -1.4856
 1507SOL    HW2 8310   7.622   5.224   9.542 -0.5974 -0.6916 -3.2649
 1508SOL     OW 8311   2.081   3.976   7.554 -0.5496  0.4075 -0.2348
 1508SOL    HW1 8312   2.096   3.902   7.495 -0.4803  0.9249 -0.8804
 1508SOL    HW2 8313   2.117   4.052   7.507  1.9315  0.4812  1.5488
 1509SOL     OW 8314   8.829   9.865   5.986 -0.5618 -0.4057  0.0869
 1509SOL    HW1 8315   8.859   9.834   6.072  0.7575 -0.3976 -0.3383
 1509SOL    HW2 8316   8.853   9.794   5.926  1.5748  0.9293 -0.7466
 1510SOL     OW 8317   9.102   6.280   7.134 -0.1745  0.2261 -0.0385
 1510SOL    HW1 8318   9.118   6.234   7.216 -0.4133  0.8208  0.3492
 1510SOL    HW2 8319   9.187   6.314   7.108  0.0482 -0.5993 -0.4423
 1511SOL     OW 8320   0.058   3.874   1.631 -0.3424 -0.3446  0.0186
 1511SOL    HW1 8321   0.125   3.896   1.696  0.1212 -0.7681 -0.3028
 1511SOL    HW2 8322  -0.011   3.939   1.644  0.0593 -0.0025  0.4679
 1512SOL     OW 8323   2.804   6.449   5.626 -0.0863 -0.5154  0.4019
 1512SOL    HW1 8324   2.714   6.432   5.599 -0.1636 -1.6814  1.3003
 1512SOL    HW2 8325   2.856   6.435   5.547 -0.6849  0.1363 -0.1145
 1513SOL     OW 8326   6.038   9.524   8.863 -0.4989 -0.2262 -0.3401
 1513SOL    HW1 8327   5.948   9.550   8.882 -0.8469 -2.1973  1.1703
 1513SOL    HW2 8328   6.056   9.454   8.926  2.1444  0.1736 -0.5186
 1514SOL     OW 8329   2.131   0.308   9.894  0.0582 -0.0061  0.4620
 1514SOL    HW1 8330   2.204   0.369   9.880  0.9508 -0.5876  2.3154
 1514SOL    HW2 8331   2.109   0.318   9.987 -1.5422 -0.6186  0.1784
 1515SOL     OW 8332   1.844   5.045   0.448 -0.0064 -0.1366  0.0436
 1515SOL    HW1 8333   1.832   4.978   0.381 -0.6738 -1.3094  1.2965
 1515SOL    HW2 8334   1.938   5.043   0.468  0.2161  0.2893 -0.8835
 1516SOL     OW 8335   3.699   7.432   0.126 -0.1605  0.0899  0.2297
 1516SOL    HW1 8336   3.694   7.526   0.144  0.2147  0.2426 -0.4307
 1516SOL    HW2 8337   3.626   7.394   0.176 -0.5022  0.7671  0.2596
 1517SOL     OW 8338   3.619   1.799   4.543 -0.4135 -0.2277  0.1614
 1517SOL    HW1 8339   3.560   1.875   4.541  1.9005  1.7304  0.8928
 1517SOL    HW2 8340   3.704   1.834   4.517  0.0459 -3.4730 -3.7127
 1518SOL     OW 8341   1.685   5.354   1.372  0.1614  0.1656 -0.1878
 1518SOL    HW1 8342   1.709   5.370   1.464  0.2957  0.3222 -0.2507
 1518SOL    HW2 8343   1.590   5.343   1.374  0.1415  0.3583 -0.0563
 1519SOL     OW 8344   2.520   3.772   0.716  0.0627  0.3794  0.5729
 1519SOL    HW1 8345   2.504   3.860   0.751  0.9016  2.3432 -3.3316
 1519SOL    HW2 8346   2.610   3.752   0.741  0.4871  1.5055  0.0089
 1520SOL     OW 8347   8.650   7.781   5.278 -0.7618  0.8055 -0.1857
 1520SOL    HW1 8348   8.707   7.710   5.249 -1.2683  0.0584  0.5951
 1520SOL    HW2 8349   8.704   7.832   5.339 -0.5726  0.7833 -0.3326
 1521SOL     OW 8350   1.697   4.629   7.626  0.1962  0.6167  0.6616
 1521SOL    HW1 8351   1.692   4.722   7.650  0.5278  0.8536 -0.1708
 1521SOL    HW2 8352   1.724   4.629   7.534 -0.3048 -0.2974  0.5062
 1522SOL     OW 8353   0.769   6.360   3.462 -0.2046 -0.0789  0.2056
 1522SOL    HW1 8354   0.697   6.402   3.509 -1.5384 -1.7425 -0.2393
 1522SOL    HW2 8355   0.784   6.415   3.385 -0.9897  0.3007  0.3222
 1523SOL     OW 8356   0.266   1.865   9.049  0.0329 -0.0252 -0.2083
 1523SOL    HW1 8357   0.333   1.829   9.107 -0.2419  0.0016  0.1292
 1523SOL    HW2 8358   0.220   1.929   9.104  0.7097  1.0636 -0.8759
 1524SOL     OW 8359   5.488  10.062   0.214 -0.4274  0.0800 -0.0696
 1524SOL    HW1 8360   5.570  10.085   0.171  0.4836 -2.0811  0.3779
 1524SOL    HW2 8361   5.462  10.142   0.261  1.2366  0.9128 -0.4904
 1525SOL     OW 8362   5.834   0.105   7.311  0.8739 -0.5147 -0.3912
 1525SOL    HW1 8363   5.831   0.086   7.405  1.6787  2.0526  0.2321
 1525SOL    HW2 8364   5.755   0.157   7.295 -1.1229 -3.6645 -1.9729
 1526SOL     OW 8365   0.537   7.749   6.521  0.3951 -0.5807 -0.4111
 1526SOL    HW1 8366   0.472   7.680   6.506 -0.0745  0.0492 -1.3042
 1526SOL    HW2 8367   0.511   7.820   6.464  0.1217  0.8806  1.4402
 1527SOL     OW 8368   3.721   5.883   1.618  0.1776  0.0074 -0.4451
 1527SOL    HW1 8369   3.666   5.934   1.558 -1.0267 -0.5747  0.1210
 1527SOL    HW2 8370   3.670   5.803   1.634  1.7003 -1.0692 -0.7626
 1528SOL     OW 8371   3.026   3.687   1.152 -0.3037  0.1540 -0.3854
 1528SOL    HW1 8372   2.980   3.747   1.210  0.4913 -0.5200  1.0031
 1528SOL    HW2 8373   3.044   3.738   1.073 -1.1988  1.1767  0.0567
 1529SOL     OW 8374   9.173   0.775   5.026 -0.0480 -0.2712  0.3448
 1529SOL    HW1 8375   9.156   0.758   4.933  0.3993 -0.1564  0.2392
 1529SOL    HW2 8376   9.170   0.688   5.066  2.7339 -0.7564 -0.2774
 1530SOL     OW 8377   8.117   8.350   8.081  0.5196  0.5816 -1.0439
 1530SOL    HW1 8378   8.201   8.397   8.085 -0.0958  1.8844 -2.5332
 1530SOL    HW2 8379   8.061   8.396   8.144  1.1243 -0.8393  0.6172
 1531SOL     OW 8380   3.639   0.889   1.798 -0.1818 -0.4288  0.0830
 1531SOL    HW1 8381   3.649   0.890   1.893 -0.4806 -2.3883  0.1834
 1531SOL    HW2 8382   3.650   0.980   1.771 -0.7695  0.2705  2.0581
 1532SOL     OW 8383  10.315   7.066   2.929 -0.0682  0.0018  0.3243
 1532SOL    HW1 8384  10.260   7.036   3.002 -1.1811  0.7509 -0.1863
 1532SOL    HW2 8385  10.404   7.066   2.965 -0.5754  0.1988  1.6421
 1533SOL     OW 8386   8.054   3.331   7.743  0.3978 -0.1231  0.3015
 1533SOL    HW1 8387   7.994   3.273   7.790  0.5364 -1.1603 -0.7295
 1533SOL    HW2 8388   8.020   3.419   7.759 -1.3048 -0.6603 -0.0918
 1534SOL     OW 8389   4.116   4.011   2.806 -0.1506 -0.2225 -0.0010
 1534SOL    HW1 8390   4.193   4.010   2.863 -0.5440 -1.2875  0.5563
 1534SOL    HW2 8391   4.142   3.960   2.730  0.3875  1.2348 -0.8233
 1535SOL     OW 8392   0.689   9.433   3.230  0.0547 -0.1999 -0.7736
 1535SOL    HW1 8393   0.605   9.394   3.255 -0.3241  1.5702  0.9626
 1535SOL    HW2 8394   0.754   9.381   3.276 -0.4132  0.7561  1.1113
 1536SOL     OW 8395   5.736   5.909   0.091  0.3225  0.3663 -0.1621
 1536SOL    HW1 8396   5.750   5.992   0.046  0.2646  0.5962  0.2419
 1536SOL    HW2 8397   5.670   5.928   0.157  1.6244  0.4475  1.1486
 1537SOL     OW 8398   9.953   7.344   1.573  0.1271 -0.0599 -0.0501
 1537SOL    HW1 8399   9.955   7.413   1.640 -0.3615 -0.3205  0.2370
 1537SOL    HW2 8400   9.873   7.361   1.524  0.0068 -0.4126  0.0168
 1538SOL     OW 8401   0.292   6.058   0.629  0.1360  0.3049  0.0058
 1538SOL    HW1 8402   0.267   6.150   0.621  1.2279  0.5455 -0.9465
 1538SOL    HW2 8403   0.378   6.053   0.588  0.4400 -1.0043  0.7312
 1539SOL     OW 8404   4.430   2.825   2.747 -0.2232  0.7704 -0.2743
 1539SOL    HW1 8405   4.360   2.883   2.775 -0.3618  0.9795 -1.0324
 1539SOL    HW2 8406   4.470   2.869   2.672 -0.5107 -0.2267 -1.0398
 1540SOL     OW 8407   5.144   7.573   3.165  0.2311 -0.2144 -0.2389
 1540SOL    HW1 8408   5.102   7.581   3.080 -1.6580 -0.5497  0.6005
 1540SOL    HW2 8409   5.095   7.634   3.221  1.9306  0.5769  0.4479
 1541SOL     OW 8410   3.033   1.680   4.747 -0.1544 -0.3104  0.7276
 1541SOL    HW1 8411   3.091   1.754   4.766  0.4550 -0.6926  0.3953
 1541SOL    HW2 8412   3.081   1.628   4.683 -1.5380  0.1769 -0.7442
 1542SOL     OW 8413   5.289   6.700   1.084  0.9950  0.2414  0.1786
 1542SOL    HW1 8414   5.244   6.615   1.081 -0.3125  0.9203  0.0069
 1542SOL    HW2 8415   5.326   6.710   0.996  0.1134  0.3700 -0.1951
 1543SOL     OW 8416   2.013   4.501   1.889  0.1560 -0.2045 -0.0172
 1543SOL    HW1 8417   2.054   4.527   1.971 -1.6926  1.2678  0.5275
 1543SOL    HW2 8418   2.027   4.575   1.830 -0.4742 -0.2667 -0.2598
 1544SOL     OW 8419   2.967   3.870   3.968  0.0062 -0.6654 -1.0402
 1544SOL    HW1 8420   2.903   3.929   3.930 -0.8091 -1.7891 -1.4854
 1544SOL    HW2 8421   3.050   3.894   3.928  0.1578  1.6682  0.5063
 1545SOL     OW 8422   2.430  10.143   2.980  0.5402  0.2952 -0.0592
 1545SOL    HW1 8423   2.509  10.163   2.930  1.0256 -1.6787 -0.1852
 1545SOL    HW2 8424   2.416  10.049   2.965 -2.4998  0.8014 -0.9686
 1546SOL     OW 8425   8.586   2.866   0.160  0.0127  0.0256 -0.0926
 1546SOL    HW1 8426   8.539   2.899   0.083 -0.0071 -0.5551 -0.3314
 1546SOL    HW2 8427   8.654   2.932   0.175 -2.2243  2.1076  1.6530
 1547SOL     OW 8428   9.282   0.789   4.444  0.2099 -0.4486 -0.2506
 1547SOL    HW1 8429   9.331   0.774   4.364  1.5702  1.5344  0.1532
 1547SOL    HW2 8430   9.193   0.808   4.415  0.5745 -0.2188 -1.2427
 1548SOL     OW 8431   9.953   9.276   8.568  0.0301 -0.5488 -0.5113
 1548SOL    HW1 8432   9.922   9.196   8.611  1.3613  0.0499  1.6998
 1548SOL    HW2 8433   9.952   9.255   8.474  2.2163 -3.8776  0.0655
 1549SOL     OW 8434   9.316   9.536   9.841 -0.3243 -0.0685 -0.1045
 1549SOL    HW1 8435   9.270   9.454   9.825  0.6578 -0.7809  0.5660
 1549SOL    HW2 8436   9.387   9.537   9.777 -0.2528  0.1889 -0.0260
 1550SOL     OW 8437   8.161   5.042   7.317 -0.4501 -0.2311 -0.0508
 1550SOL    HW1 8438   8.205   5.117   7.357  0.7890 -0.0681 -1.6290
 1550SOL    HW2 8439   8.076   5.078   7.289 -0.6587  0.0618  0.8986
 1551SOL     OW 8440   9.484   5.717   7.493 -0.0522 -0.3832  0.3392
 1551SOL    HW1 8441   9.439   5.679   7.418  0.8409  0.5004 -0.6864
 1551SOL    HW2 8442   9.521   5.642   7.539  0.2266 -0.8839 -0.6692
 1552SOL     OW 8443   7.616   4.306   2.249  0.0041 -0.2046  0.2550
 1552SOL    HW1 8444   7.672   4.321   2.325 -1.0130 -0.3677  1.0460
 1552SOL    HW2 8445   7.527   4.312   2.282 -0.4775  0.4627 -1.0662
 1553SOL     OW 8446   4.428   5.105   0.732  0.3866 -0.5407 -0.0239
 1553SOL    HW1 8447   4.409   5.145   0.817 -1.1389 -0.9435 -0.1496
 1553SOL    HW2 8448   4.365   5.144   0.672  0.9290 -0.8466 -0.8077
 1554SOL     OW 8449   8.624   2.071   6.674 -0.0708  0.4598  0.2387
 1554SOL    HW1 8450   8.631   2.165   6.654 -1.6346  0.8447  1.2853
 1554SOL    HW2 8451   8.692   2.030   6.620  0.5941  2.1740 -0.3150
 1555SOL     OW 8452   5.663   9.671   2.704 -0.0533 -0.1157  0.1986
 1555SOL    HW1 8453   5.696   9.634   2.786  0.8348  1.2832  0.5133
 1555SOL    HW2 8454   5.589   9.725   2.731 -0.6332 -0.7378 -0.1147
 1556SOL     OW 8455   5.776   1.541   2.910  0.4342  0.2451 -0.0125
 1556SOL    HW1 8456   5.843   1.534   2.841  0.1245  0.1131 -0.3035
 1556SOL    HW2 8457   5.810   1.608   2.969  0.9159  0.0465 -0.0557
 1557SOL     OW 8458   6.125   2.200   1.404  0.3872 -0.0719  0.3889
 1557SOL    HW1 8459   6.132   2.105   1.391 -0.7741  0.1962 -3.8538
 1557SOL    HW2 8460   6.211   2.234   1.379  0.3470  0.0680  0.4401
 1558SOL     OW 8461   8.717   8.675   6.114  0.5000 -0.4903  0.3194
 1558SOL    HW1 8462   8.808   8.651   6.097  0.2529 -2.0980  1.0497
 1558SOL    HW2 8463   8.677   8.677   6.027  1.1745  0.0209  0.0094
 1559SOL     OW 8464   1.771   5.473   7.316  0.1112 -0.0291 -0.2755
 1559SOL    HW1 8465   1.760   5.389   7.271  2.7604 -0.8253  0.3583
 1559SOL    HW2 8466   1.731   5.537   7.258  0.8205 -1.3704 -2.3527
 1560SOL     OW 8467   3.175   5.552   8.976 -0.2130  0.9224  0.0778
 1560SOL    HW1 8468   3.131   5.544   8.892 -0.4210  0.9551  0.1825
 1560SOL    HW2 8469   3.125   5.618   9.024  0.4820  1.6300 -0.1407
 1561SOL     OW 8470   9.995   6.730   3.237 -0.4080  0.6913 -0.4891
 1561SOL    HW1 8471  10.032   6.664   3.179  3.4665  0.3963  1.9500
 1561SOL    HW2 8472  10.009   6.695   3.325 -1.1028  3.3845  0.7947
 1562SOL     OW 8473   0.709  10.227   7.554  0.1448 -0.2641  0.1053
 1562SOL    HW1 8474   0.794  10.270   7.564  0.1547 -0.2373 -0.0847
 1562SOL    HW2 8475   0.689  10.235   7.461 -0.0491 -0.3037  0.1417
 1563SOL     OW 8476   1.478  10.080   2.668 -0.0665  0.1062  0.5141
 1563SOL    HW1 8477   1.565  10.108   2.641 -0.0632 -0.1756  0.2299
 1563SOL    HW2 8478   1.486  10.066   2.762 -0.9740  4.6303  1.5128
 1564SOL     OW 8479   3.635   9.783   9.438 -0.5194  0.2837  0.0313
 1564SOL    HW1 8480   3.714   9.829   9.467  1.2881 -1.5382 -1.6582
 1564SOL    HW2 8481   3.625   9.712   9.501 -0.9805  0.6454  0.3750
 1565SOL     OW 8482   6.387   8.048   7.217 -0.0300  0.1546 -0.5707
 1565SOL    HW1 8483   6.393   8.075   7.309  0.5672  0.8375 -0.7994
 1565SOL    HW2 8484   6.365   7.955   7.221  3.0066 -0.6308  0.3283
 1566SOL     OW 8485   5.627   7.358   9.565 -0.1213  0.1895  0.2663
 1566SOL    HW1 8486   5.661   7.341   9.477  1.1736  0.5839  0.6734
 1566SOL    HW2 8487   5.553   7.298   9.574 -1.9631  1.9175 -2.0608
 1567SOL     OW 8488   1.364   3.573   3.331 -0.4446 -0.2676  0.6412
 1567SOL    HW1 8489   1.295   3.639   3.330 -1.4734 -1.3055 -1.0384
 1567SOL    HW2 8490   1.445   3.623   3.317 -1.1982  0.6388 -0.6658
 1568SOL     OW 8491   6.903   7.561   1.462 -0.1355  0.3044 -0.3326
 1568SOL    HW1 8492   6.878   7.469   1.475 -0.7677  0.4109 -0.7861
 1568SOL    HW2 8493   6.871   7.605   1.541  2.5915 -0.2847  1.2779
 1569SOL     OW 8494   6.505   2.316   4.007  0.4730  0.0232  0.0472
 1569SOL    HW1 8495   6.546   2.376   3.945  1.6561 -0.6819  0.1260
 1569SOL    HW2 8496   6.570   2.247   4.021 -0.3808 -0.6421  0.8917
 1570SOL     OW 8497   2.120   7.683   4.165  0.2204  0.6099  0.0153
 1570SOL    HW1 8498   2.209   7.719   4.167  0.4803  0.1851 -1.7687
 1570SOL    HW2 8499   2.072   7.740   4.105 -0.1438 -0.3023 -0.5985
 1571SOL     OW 8500   1.584   8.670   2.339 -0.1866  0.0859 -0.2942
 1571SOL    HW1 8501   1.493   8.640   2.332 -0.0046 -0.5940  0.2031
 1571SOL    HW2 8502   1.617   8.629   2.419 -0.9044  4.1978  2.4213
 1572SOL     OW 8503   0.846   0.441   0.351 -0.5509  0.3901  0.4130
 1572SOL    HW1 8504   0.904   0.505   0.393  0.5014 -0.6238  0.5670
 1572SOL    HW2 8505   0.858   0.455   0.257  2.1103 -1.5472  0.3370
 1573SOL     OW 8506  10.145   2.001   4.701 -0.1446 -0.9389  0.0597
 1573SOL    HW1 8507  10.196   1.925   4.672 -0.5750 -1.2742  0.1767
 1573SOL    HW2 8508  10.209   2.073   4.703  0.3985 -1.4155  0.4914
 1574SOL     OW 8509   5.686   6.848   0.555  0.3432  0.1380 -0.0256
 1574SOL    HW1 8510   5.724   6.912   0.494 -1.1027 -1.0561 -2.3294
 1574SOL    HW2 8511   5.687   6.892   0.640  0.4098  2.7900 -1.3021
 1575SOL     OW 8512   5.425   9.533   3.215 -0.7188  0.5588  0.1048
 1575SOL    HW1 8513   5.422   9.457   3.157 -0.7721  0.8942 -0.3390
 1575SOL    HW2 8514   5.387   9.502   3.298  1.4025 -0.5471  0.7130
 1576SOL     OW 8515   4.044   8.356   7.227 -0.1285 -0.5202  0.0687
 1576SOL    HW1 8516   3.978   8.356   7.157  1.5619 -2.1542 -1.6178
 1576SOL    HW2 8517   4.037   8.270   7.267  0.7123 -0.5547  0.1497
 1577SOL     OW 8518   8.445   8.149   1.797  0.3604 -0.5415  0.0140
 1577SOL    HW1 8519   8.351   8.141   1.781  0.1787  0.2660  0.6495
 1577SOL    HW2 8520   8.465   8.241   1.777  0.7479 -0.3509  1.2378
 1578SOL     OW 8521   7.819   6.920   8.652 -0.3839 -0.3146 -0.2367
 1578SOL    HW1 8522   7.912   6.936   8.635 -0.3393 -0.2214  0.0966
 1578SOL    HW2 8523   7.781   6.911   8.564  0.5173 -3.8509 -0.4013
 1579SOL     OW 8524   3.760   6.788   1.700 -0.2384 -0.3954  0.5348
 1579SOL    HW1 8525   3.790   6.845   1.629 -1.8708 -2.2532 -1.8014
 1579SOL    HW2 8526   3.836   6.733   1.719  0.2798  0.2531  0.4171
 1580SOL     OW 8527   5.768   1.252   7.091  0.2485  0.6673  0.0434
 1580SOL    HW1 8528   5.741   1.196   7.164 -0.9368  0.4149 -0.5609
 1580SOL    HW2 8529   5.837   1.308   7.128 -0.0373  0.2677  1.2434
 1581SOL     OW 8530   4.065   8.663   3.516 -0.2556 -0.6215  0.8469
 1581SOL    HW1 8531   4.058   8.594   3.451  1.4696  0.1060 -0.1923
 1581SOL    HW2 8532   4.150   8.648   3.558  1.0822  1.8265 -0.6998
 1582SOL     OW 8533   9.748   0.246   9.960 -0.8723 -0.1240  0.5463
 1582SOL    HW1 8534   9.800   0.274   9.884 -1.3111 -1.7545 -0.3985
 1582SOL    HW2 8535   9.659   0.235   9.926 -1.0376 -1.0479  1.2336
 1583SOL     OW 8536   7.603   8.250   1.100 -0.3119 -0.3002 -0.3317
 1583SOL    HW1 8537   7.697   8.264   1.084 -0.2169  1.8785  1.4878
 1583SOL    HW2 8538   7.601   8.206   1.185 -0.9336 -1.4677 -0.9445
 1584SOL     OW 8539   4.084   3.755   4.343 -0.0224  0.3420 -0.0456
 1584SOL    HW1 8540   4.063   3.685   4.281  1.1434 -0.4505  0.4188
 1584SOL    HW2 8541   4.060   3.720   4.429 -0.4952  0.9647  0.0890
 1585SOL     OW 8542   3.971   9.535   0.811 -0.5520  0.2551 -0.3032
 1585SOL    HW1 8543   3.959   9.598   0.882 -0.7189  2.2843 -2.0070
 1585SOL    HW2 8544   4.050   9.487   0.834  1.3282  3.1409 -0.2580
 1586SOL     OW 8545   8.730   0.065   2.011  0.6692  0.0913 -0.7185
 1586SOL    HW1 8546   8.737  -0.021   2.052  0.1114 -0.6600 -2.1207
 1586SOL    HW2 8547   8.814   0.108   2.029  0.4355 -0.1877  1.1680
 1587SOL     OW 8548   2.826   7.368   9.238  0.4498 -0.5584  0.2535
 1587SOL    HW1 8549   2.867   7.374   9.152 -1.1332 -2.2166 -0.6700
 1587SOL    HW2 8550   2.893   7.402   9.298  1.7001  0.3702 -1.5577
 1588SOL     OW 8551   1.102   9.484   4.233  0.2377  0.0820  0.5939
 1588SOL    HW1 8552   1.136   9.511   4.318  0.0542 -0.4454  0.8372
 1588SOL    HW2 8553   1.118   9.389   4.229 -1.1182 -0.1695  0.6875
 1589SOL     OW 8554   7.304   0.781   1.015  0.3808  0.4672  0.3202
 1589SOL    HW1 8555   7.336   0.705   0.968  0.4093 -0.1535  1.3138
 1589SOL    HW2 8556   7.354   0.855   0.978  1.1107 -0.1391  0.0742
 1590SOL     OW 8557   9.609   9.893   6.677  0.4468  0.0015  0.3740
 1590SOL    HW1 8558   9.651   9.900   6.763  1.2102  2.1461 -0.1223
 1590SOL    HW2 8559   9.643   9.968   6.628 -1.5635 -0.0051 -1.1178
 1591SOL     OW 8560   4.794   4.782   4.216 -0.6320  0.3526 -0.1058
 1591SOL    HW1 8561   4.874   4.731   4.230 -1.3384 -0.9894 -0.7077
 1591SOL    HW2 8562   4.792   4.845   4.288  0.6907  0.0533  0.2123
 1592SOL     OW 8563   0.430   1.955   9.363 -0.0610 -0.3944 -0.3297
 1592SOL    HW1 8564   0.454   1.893   9.431 -2.0596 -0.6998  0.1505
 1592SOL    HW2 8565   0.370   2.016   9.406  1.0834  1.3168 -1.0378
 1593SOL     OW 8566   7.486   6.478   0.049 -0.3140  0.2583 -0.5269
 1593SOL    HW1 8567   7.444   6.492  -0.036 -1.2096  1.3646  0.0746
 1593SOL    HW2 8568   7.509   6.385   0.050 -0.5664  0.1703 -1.8475
 1594SOL     OW 8569   4.796   3.682   0.307 -0.5197  0.0367  0.9914
 1594SOL    HW1 8570   4.728   3.711   0.368 -0.1670  3.3690  0.0016
 1594SOL    HW2 8571   4.790   3.744   0.234  2.3314 -0.7388 -0.0067
 1595SOL     OW 8572   0.851   3.636   0.004  1.0283 -0.4480  0.4130
 1595SOL    HW1 8573   0.860   3.552   0.050  1.6624  0.4333  1.9698
 1595SOL    HW2 8574   0.894   3.699   0.061  0.6273  0.9441 -0.7708
 1596SOL     OW 8575   5.618   7.961   3.651 -0.4037 -0.2191  0.1791
 1596SOL    HW1 8576   5.699   7.926   3.687  0.2012  0.7022 -0.2315
 1596SOL    HW2 8577   5.595   8.034   3.708 -1.0990 -0.6382  0.4493
 1597SOL     OW 8578   2.048  10.086   6.632 -0.5553 -0.2148  0.3198
 1597SOL    HW1 8579   1.987  10.159   6.642 -0.2594  0.1432 -0.4047
 1597SOL    HW2 8580   2.084  10.072   6.719 -1.3579 -0.1580  0.6708
 1598SOL     OW 8581   7.078   4.475   2.017 -0.3217  0.1271  0.2263
 1598SOL    HW1 8582   7.030   4.465   2.100  1.0181  0.1199  1.0358
 1598SOL    HW2 8583   7.146   4.408   2.021 -0.8969 -0.5778 -1.3882
 1599SOL     OW 8584   2.931   8.484   4.642  0.8373 -0.3199 -0.1080
 1599SOL    HW1 8585   3.019   8.523   4.650  1.3900 -1.3660 -0.8453
 1599SOL    HW2 8586   2.879   8.552   4.599  0.9842  0.7260  1.2950
 1600SOL     OW 8587   8.081   7.804  10.356  0.1038 -0.1012 -0.0240
 1600SOL    HW1 8588   8.011   7.739  10.364 -0.3775  0.5709  1.7390
 1600SOL    HW2 8589   8.070   7.841  10.268 -2.3290  0.5848  0.4986
 1601SOL     OW 8590   8.068   3.016   2.299  0.1109  0.0777 -0.2947
 1601SOL    HW1 8591   8.034   2.933   2.268 -1.5523  0.2075  1.0346
 1601SOL    HW2 8592   8.007   3.082   2.264 -1.0917  0.3244  2.0334
 1602SOL     OW 8593   8.985   8.470   9.827  0.6574  0.6001  0.5013
 1602SOL    HW1 8594   9.010   8.519   9.749  1.4849 -0.4681  0.0618
 1602SOL    HW2 8595   9.067   8.436   9.861  0.0857 -0.8062  0.5463
 1603SOL     OW 8596   9.185  10.210   5.863  0.2586  0.5739  0.3797
 1603SOL    HW1 8597   9.229  10.146   5.918  1.9786  1.3597 -0.0083
 1603SOL    HW2 8598   9.255  10.268   5.833 -1.0901  2.0576 -0.0617
 1604SOL     OW 8599   3.002   4.213   2.623  0.0691 -0.0420 -0.0825
 1604SOL    HW1 8600   2.913   4.180   2.617 -0.2354  0.7496 -0.1160
 1604SOL    HW2 8601   3.058   4.135   2.622 -0.6376 -0.5614  0.2982
 1605SOL     OW 8602   0.081   6.288   2.033 -0.2431  0.8828  0.5129
 1605SOL    HW1 8603   0.046   6.296   1.944 -2.6335  0.8061  1.3712
 1605SOL    HW2 8604   0.169   6.325   2.027  0.2340 -0.3682 -2.1706
 1606SOL     OW 8605   9.468   0.706   5.082  0.1035 -0.5524  0.3899
 1606SOL    HW1 8606   9.376   0.729   5.067  0.0462 -0.9361  0.1385
 1606SOL    HW2 8607   9.505   0.699   4.994  0.4842  0.0324  0.4964
 1607SOL     OW 8608   4.434   3.670   8.675  0.6142 -0.2956 -0.0185
 1607SOL    HW1 8609   4.484   3.750   8.659  1.3436 -0.4617  1.3017
 1607SOL    HW2 8610   4.499   3.599   8.671 -0.1019 -0.9044 -1.6695
 1608SOL     OW 8611   4.559   7.020   3.588  0.0523  0.0143 -0.0994
 1608SOL    HW1 8612   4.507   6.970   3.650  0.0757  0.3129  0.1643
 1608SOL    HW2 8613   4.579   7.102   3.633  0.0151  0.2616 -0.5221
 1609SOL     OW 8614   2.723   1.425   3.545  0.8907  0.3007 -0.4164
 1609SOL    HW1 8615   2.719   1.361   3.474  1.6619 -0.1754 -0.0462
 1609SOL    HW2 8616   2.778   1.495   3.510 -0.3884  1.0358 -1.0173
 1610SOL     OW 8617   0.676   7.248   7.091 -0.0765 -0.2832  0.4540
 1610SOL    HW1 8618   0.595   7.198   7.084 -0.0618 -0.3609  0.8041
 1610SOL    HW2 8619   0.674   7.309   7.017 -1.0088  0.5388  1.1399
 1611SOL     OW 8620   0.559   3.714   4.309  1.0014  0.0517 -0.0562
 1611SOL    HW1 8621   0.627   3.682   4.367  0.7848 -1.1057 -0.4223
 1611SOL    HW2 8622   0.600   3.785   4.260  2.5261 -1.7242 -1.5153
 1612SOL     OW 8623   1.612   1.596   6.730 -0.0500 -0.5426 -0.3578
 1612SOL    HW1 8624   1.526   1.634   6.708  0.5584  0.3559 -1.2765
 1612SOL    HW2 8625   1.619   1.607   6.825 -0.0026  1.5180 -0.5495
 1613SOL     OW 8626   4.198   8.335   2.177  0.4318  0.5857  0.1797
 1613SOL    HW1 8627   4.193   8.242   2.157  0.0434  0.9064 -1.3555
 1613SOL    HW2 8628   4.119   8.354   2.227  0.7120  0.0314  0.8537
 1614SOL     OW 8629   7.276   0.728   5.745  0.0944  0.3094  0.1804
 1614SOL    HW1 8630   7.207   0.714   5.811  0.1717 -0.9728  0.0078
 1614SOL    HW2 8631   7.292   0.641   5.708  0.6511  0.8757 -0.9449
 1615SOL     OW 8632   8.353   2.384   1.337  0.6348  0.2042 -0.0288
 1615SOL    HW1 8633   8.259   2.393   1.324  0.7488  0.6961 -0.5445
 1615SOL    HW2 8634   8.361   2.317   1.405 -0.0831  0.1366  0.0004
 1616SOL     OW 8635   6.601   1.027   9.979  0.3179  0.1833  0.1288
 1616SOL    HW1 8636   6.683   1.072   9.997  1.7901 -1.9264 -0.7489
 1616SOL    HW2 8637   6.585   1.042   9.886  0.4779 -0.5385 -0.0225
 1617SOL     OW 8638   8.367   4.512   9.975 -0.4850 -0.3450 -0.6807
 1617SOL    HW1 8639   8.312   4.582   9.941 -1.9662 -1.2927 -0.3197
 1617SOL    HW2 8640   8.313   4.471  10.043  1.2622 -0.3406  0.7866
 1618SOL     OW 8641   8.596   6.158   4.019  0.5683 -0.3088  0.3598
 1618SOL    HW1 8642   8.516   6.209   4.032 -0.2682 -1.4924  0.0475
 1618SOL    HW2 8643   8.634   6.151   4.106 -0.8611 -1.5870  0.9419
 1619SOL     OW 8644   0.324   7.865   9.990 -0.1501 -0.0513 -0.2525
 1619SOL    HW1 8645   0.336   7.953  10.025  1.4865  0.4227 -1.8328
 1619SOL    HW2 8646   0.413   7.835   9.970 -0.7750 -1.5790 -0.8923
 1620SOL     OW 8647   0.479   9.878   5.771  0.0573  0.0204 -0.4851
 1620SOL    HW1 8648   0.519   9.942   5.831 -0.4295  0.1562 -0.3028
 1620SOL    HW2 8649   0.478   9.796   5.821 -0.9833  0.2898 -0.0366
 1621SOL     OW 8650   1.798   6.551   6.518  0.0177 -0.1127 -0.1320
 1621SOL    HW1 8651   1.714   6.587   6.549  0.1274  0.4435 -0.4629
 1621SOL    HW2 8652   1.834   6.505   6.594 -0.1262  0.4909  0.3081
 1622SOL     OW 8653   4.640   2.409   4.671  0.2056  0.0653  0.1037
 1622SOL    HW1 8654   4.714   2.359   4.705  0.6806  1.0159  0.5040
 1622SOL    HW2 8655   4.600   2.351   4.606  0.5755 -0.9323  0.7384
 1623SOL     OW 8656   0.808   2.541   2.732 -0.3563 -0.0309  0.3359
 1623SOL    HW1 8657   0.841   2.585   2.654 -3.0331  0.0209 -0.8708
 1623SOL    HW2 8658   0.780   2.611   2.790  0.3750 -0.0988  0.7875
 1624SOL     OW 8659   1.915   1.620   7.681  0.2834 -0.2229  0.8574
 1624SOL    HW1 8660   1.983   1.679   7.716  1.6685  0.7791 -2.9953
 1624SOL    HW2 8661   1.840   1.677   7.665  0.8632  0.1333 -0.8226
 1625SOL     OW 8662   1.720   6.170   0.777 -0.8952  0.0628  0.5067
 1625SOL    HW1 8663   1.689   6.202   0.862 -0.0617 -0.4649  1.0247
 1625SOL    HW2 8664   1.732   6.250   0.725  0.7151  0.6221  1.6369
 1626SOL     OW 8665   0.577   4.924   1.251  0.0611 -0.1074 -0.0569
 1626SOL    HW1 8666   0.578   4.830   1.232  0.6942 -0.2586  0.6513
 1626SOL    HW2 8667   0.610   4.965   1.171  0.9391 -0.5835  0.0464
 1627SOL     OW 8668   1.981   8.959   1.350  0.1342  0.2936 -0.3637
 1627SOL    HW1 8669   1.959   9.022   1.419  0.2142  2.7215 -2.4199
 1627SOL    HW2 8670   1.901   8.907   1.339  0.0176  0.0684  1.3081
 1628SOL     OW 8671   9.098   9.151   5.109 -0.8684 -0.2784  0.4713
 1628SOL    HW1 8672   9.133   9.150   5.198 -0.1977  2.6537  0.3480
 1628SOL    HW2 8673   9.034   9.221   5.109  0.9790  1.6007 -1.9118
 1629SOL     OW 8674   9.744   1.084   6.561 -0.0214  0.1705 -0.0478
 1629SOL    HW1 8675   9.661   1.087   6.512 -1.2776 -0.1293  1.9416
 1629SOL    HW2 8676   9.769   1.176   6.570  0.2084  0.2288 -1.2014
 1630SOL     OW 8677   3.389   4.039   3.973  0.0681 -0.3967 -1.1345
 1630SOL    HW1 8678   3.439   4.105   4.021 -0.0952 -0.4228 -0.9299
 1630SOL    HW2 8679   3.305   4.082   3.955 -0.1530 -0.6571 -0.7334
 1631SOL     OW 8680   3.589   2.176   6.233  0.2667  1.0238  0.2873
 1631SOL    HW1 8681   3.569   2.160   6.141 -0.9274  0.1469  0.6766
 1631SOL    HW2 8682   3.683   2.159   6.241  0.3741  1.0941 -0.7590
 1632SOL     OW 8683   0.031   9.197   0.502 -0.3794 -0.0638 -0.4656
 1632SOL    HW1 8684  -0.050   9.178   0.455 -0.2305 -1.2362 -0.2819
 1632SOL    HW2 8685   0.038   9.292   0.501 -2.3398  0.1354  0.4604
 1633SOL     OW 8686   0.625   3.165   0.445  0.1554 -0.2307 -1.4769
 1633SOL    HW1 8687   0.663   3.251   0.430  0.2468 -0.3890 -2.1766
 1633SOL    HW2 8688   0.538   3.170   0.405  0.1158 -0.4264 -1.4160
 1634SOL     OW 8689   4.497   0.011  10.294  0.2632 -0.8064  0.0614
 1634SOL    HW1 8690   4.528   0.028  10.205  2.3446 -1.2768  0.6357
 1634SOL    HW2 8691   4.563  -0.048  10.331 -0.1917 -0.0805  2.1382
 1635SOL     OW 8692   9.257   5.544   7.930 -0.1442  0.0426 -0.0282
 1635SOL    HW1 8693   9.228   5.453   7.916  0.8497 -0.3265  0.2525
 1635SOL    HW2 8694   9.177   5.595   7.923 -0.7065 -0.8446 -0.3154
 1636SOL     OW 8695   0.556   2.756   2.027 -0.1264 -0.0737 -0.3615
 1636SOL    HW1 8696   0.555   2.691   2.098  0.8769  0.9710  0.6650
 1636SOL    HW2 8697   0.526   2.708   1.950 -0.5276 -1.4493  0.6095
 1637SOL     OW 8698   7.967   7.675   1.862  0.0159 -0.3863  0.1260
 1637SOL    HW1 8699   8.016   7.669   1.781 -0.3080  0.7775 -0.1797
 1637SOL    HW2 8700   7.878   7.647   1.839  0.7135 -3.6425  0.9392
 1638SOL     OW 8701   0.954   1.571   2.378 -0.8769 -0.3369  0.1645
 1638SOL    HW1 8702   0.993   1.654   2.407  1.5225 -1.5222  0.5907
 1638SOL    HW2 8703   0.984   1.507   2.441 -1.7389 -1.7451 -0.8000
 1639SOL     OW 8704   0.556   4.868   7.792  0.9661  0.1873 -0.5595
 1639SOL    HW1 8705   0.480   4.925   7.778  1.2182  0.4435 -0.8880
 1639SOL    HW2 8706   0.578   4.836   7.705 -0.5094 -2.1617 -0.1839
 1640SOL     OW 8707   0.144   2.636   2.797  0.0697 -1.0041  0.7171
 1640SOL    HW1 8708   0.221   2.672   2.840 -0.2257 -1.6104  1.7732
 1640SOL    HW2 8709   0.136   2.687   2.716  2.0040 -1.4125  0.2193
 1641SOL     OW 8710   3.634   2.431   6.745 -0.1309  0.3995  0.6873
 1641SOL    HW1 8711   3.602   2.489   6.815  1.4666 -0.1449  1.9371
 1641SOL    HW2 8712   3.613   2.343   6.776  0.9688  0.1307  0.7202
 1642SOL     OW 8713   4.245   4.746   9.806  0.1774 -0.0664 -0.1367
 1642SOL    HW1 8714   4.315   4.809   9.823  1.2341 -0.9656 -0.9820
 1642SOL    HW2 8715   4.173   4.775   9.861  1.0728  1.1265  0.4611
 1643SOL     OW 8716   0.730   0.828   0.037 -0.3626  0.2878  0.1797
 1643SOL    HW1 8717   0.639   0.844   0.014 -0.0475  0.1207 -1.2753
 1643SOL    HW2 8718   0.766   0.915   0.058 -0.6498  0.4624 -0.0515
 1644SOL     OW 8719   4.020   8.118   7.337  0.6596  1.1098 -0.1079
 1644SOL    HW1 8720   3.939   8.089   7.294  1.5893  0.5681 -1.5991
 1644SOL    HW2 8721   4.034   8.055   7.407  0.1598  0.7808 -0.2947
 1645SOL     OW 8722   9.730   5.014   0.810  0.0428 -0.1180 -1.0957
 1645SOL    HW1 8723   9.783   5.093   0.812  1.6168 -1.1468  0.1076
 1645SOL    HW2 8724   9.730   4.983   0.900  0.3775 -2.0522 -1.7221
 1646SOL     OW 8725   3.869   4.652   6.501 -0.4575 -0.2531 -0.3056
 1646SOL    HW1 8726   3.818   4.720   6.458  2.4230  3.1803  1.2290
 1646SOL    HW2 8727   3.929   4.620   6.433  0.1555  0.9433 -0.3521
 1647SOL     OW 8728   1.179   5.705   4.997  0.0348 -0.0251 -0.1107
 1647SOL    HW1 8729   1.094   5.735   5.027  0.2035  0.5846 -0.2313
 1647SOL    HW2 8730   1.235   5.709   5.075 -0.3805 -1.7787  0.3159
 1648SOL     OW 8731   7.665   5.753   8.314  1.0432  0.2472  0.3810
 1648SOL    HW1 8732   7.632   5.766   8.226  1.1578  2.6720  0.6407
 1648SOL    HW2 8733   7.723   5.676   8.307  0.2676 -0.2151 -1.3990
 1649SOL     OW 8734   9.785   1.735   3.313 -0.3154 -0.0117 -0.0513
 1649SOL    HW1 8735   9.717   1.695   3.259 -1.2254 -0.6086  1.4718
 1649SOL    HW2 8736   9.866   1.693   3.285 -0.7590 -0.2664 -0.9721
 1650SOL     OW 8737   5.436   7.075   8.405 -0.7798 -0.0819  0.2052
 1650SOL    HW1 8738   5.437   7.056   8.499  0.5040 -1.9591 -0.1255
 1650SOL    HW2 8739   5.528   7.082   8.381 -0.9678 -1.7005 -1.2288
 1651SOL     OW 8740   0.004   2.349   4.218 -0.0673  0.3906  0.1991
 1651SOL    HW1 8741  -0.005   2.254   4.227  0.6842 -0.0542 -2.7832
 1651SOL    HW2 8742  -0.085   2.382   4.220 -0.6247 -0.8072 -1.7867
 1652SOL     OW 8743   0.751   3.660   1.894 -0.0814 -0.1588 -0.1754
 1652SOL    HW1 8744   0.733   3.698   1.980 -0.2396 -2.1645  0.7162
 1652SOL    HW2 8745   0.672   3.680   1.843 -0.0950  0.8305  0.2086
 1653SOL     OW 8746   8.306   8.634   9.061  0.0868 -0.2270  0.0741
 1653SOL    HW1 8747   8.218   8.673   9.060 -0.9978 -2.4707 -1.3160
 1653SOL    HW2 8748   8.345   8.662   8.979 -0.1098 -0.7980 -0.2203
 1654SOL     OW 8749   9.201   8.904   9.610  0.5803  0.0921  0.6891
 1654SOL    HW1 8750   9.235   8.862   9.531  2.8591  0.3583  1.4847
 1654SOL    HW2 8751   9.115   8.938   9.584  0.7603 -0.8695 -1.3121
 1655SOL     OW 8752   7.642   6.100   2.277  0.3567 -0.8278  0.8471
 1655SOL    HW1 8753   7.672   6.010   2.293 -2.2677 -1.8888  0.2904
 1655SOL    HW2 8754   7.590   6.122   2.354  0.8638  0.1895  0.9124
 1656SOL     OW 8755   2.369   9.481   4.345 -0.1890  0.2575 -0.2311
 1656SOL    HW1 8756   2.336   9.476   4.255  1.0136 -1.1019 -0.6356
 1656SOL    HW2 8757   2.364   9.391   4.377  0.2894  0.5680  0.7381
 1657SOL     OW 8758   4.947   5.368   7.703 -0.2470 -0.6043  0.0486
 1657SOL    HW1 8759   4.907   5.426   7.638 -1.2191 -1.2847  0.0137
 1657SOL    HW2 8760   5.006   5.313   7.651  0.1751 -0.1032 -0.0143
 1658SOL     OW 8761   2.790   2.806   6.294  0.5366 -0.1087  0.0883
 1658SOL    HW1 8762   2.794   2.797   6.389 -0.4959 -0.3918  0.1181
 1658SOL    HW2 8763   2.801   2.717   6.261  2.6130  0.1887 -0.1565
 1659SOL     OW 8764   9.143   2.457   2.842 -0.1104  0.2151  0.0404
 1659SOL    HW1 8765   9.202   2.405   2.897 -0.4649  1.4563  1.6658
 1659SOL    HW2 8766   9.055   2.433   2.873 -0.3987 -0.1271 -0.9892
 1660SOL     OW 8767   2.370   6.456   6.028  0.0096 -0.1562  0.0669
 1660SOL    HW1 8768   2.305   6.413   5.972 -1.5693  1.6039  0.4494
 1660SOL    HW2 8769   2.318   6.499   6.096  1.5709  1.3919  0.3340
 1661SOL     OW 8770   3.255   9.167   0.810  0.5652 -0.2888  0.0653
 1661SOL    HW1 8771   3.253   9.255   0.847 -1.8921  0.2029 -1.0504
 1661SOL    HW2 8772   3.243   9.108   0.885 -1.1915  0.5227  0.4523
 1662SOL     OW 8773   6.018   2.300   4.398  0.5306 -0.2946  0.7148
 1662SOL    HW1 8774   6.027   2.384   4.442  2.7107  0.3625 -0.7967
 1662SOL    HW2 8775   5.947   2.256   4.443 -0.3594  2.1679  1.8568
 1663SOL     OW 8776   6.450   9.701   8.612  0.2274  0.2346  0.2708
 1663SOL    HW1 8777   6.397   9.668   8.684 -0.0408 -2.7129 -1.1305
 1663SOL    HW2 8778   6.541   9.687   8.641  0.1241 -0.8098  0.1131
 1664SOL     OW 8779   7.021   0.740   3.562 -0.7132 -0.0077 -0.1523
 1664SOL    HW1 8780   7.109   0.752   3.597 -0.1226  2.0472 -2.1357
 1664SOL    HW2 8781   6.976   0.823   3.578 -2.1842 -0.8644  0.4331
 1665SOL     OW 8782   3.777   7.331   8.521 -0.0317  0.1522 -0.4040
 1665SOL    HW1 8783   3.803   7.264   8.458  0.7374  0.3297 -0.2832
 1665SOL    HW2 8784   3.738   7.400   8.468  0.7709  0.3787 -0.7172
 1666SOL     OW 8785   3.351   4.004   7.337  0.4714 -0.0743 -0.5576
 1666SOL    HW1 8786   3.436   3.996   7.293 -0.6992 -0.7804 -2.8110
 1666SOL    HW2 8787   3.286   3.995   7.267 -1.5492 -2.2797  1.4081
 1667SOL     OW 8788  10.284   5.642   9.036  0.0137  0.0407  0.0654
 1667SOL    HW1 8789  10.318   5.732   9.035 -0.6971  0.3167 -0.5311
 1667SOL    HW2 8790  10.233   5.635   8.955  0.7818 -1.1877 -0.3345
 1668SOL     OW 8791   9.721   9.789   7.166  0.3173  0.5171 -0.4396
 1668SOL    HW1 8792   9.675   9.710   7.194  0.4457  0.4451 -0.4320
 1668SOL    HW2 8793   9.809   9.779   7.201  0.3510  0.6359 -0.4912
 1669SOL     OW 8794   8.589   4.907   7.786  0.2002 -0.5389  0.6732
 1669SOL    HW1 8795   8.546   4.963   7.720 -1.1051 -1.3726  0.7860
 1669SOL    HW2 8796   8.609   4.967   7.858 -1.1204 -0.1570  0.7639
 1670SOL     OW 8797   4.645   2.838   2.145 -0.6657 -0.3349 -0.0722
 1670SOL    HW1 8798   4.670   2.930   2.140 -0.6189 -0.4342 -2.4034
 1670SOL    HW2 8799   4.724   2.793   2.176 -0.1388  0.2082 -0.6049
 1671SOL     OW 8800   3.764   5.521   4.245  0.1511 -0.2726 -0.0419
 1671SOL    HW1 8801   3.734   5.611   4.234  2.6926  0.5183 -1.0589
 1671SOL    HW2 8802   3.708   5.470   4.186 -0.2615  0.8727 -0.6709
 1672SOL     OW 8803   3.689   9.545   1.525 -0.6336 -0.1306 -0.7068
 1672SOL    HW1 8804   3.595   9.555   1.514 -1.7289 -1.4349  4.4692
 1672SOL    HW2 8805   3.701   9.450   1.538  1.0014  0.1872  0.4838
 1673SOL     OW 8806   1.788   8.647   4.236  0.1791 -0.1854 -0.0318
 1673SOL    HW1 8807   1.857   8.621   4.175  0.6111  1.0919 -0.1163
 1673SOL    HW2 8808   1.707   8.638   4.185  0.5748  1.3858 -1.0180
 1674SOL     OW 8809   6.200   0.750   1.066 -0.2694 -0.3196  0.4587
 1674SOL    HW1 8810   6.152   0.831   1.086 -1.7660 -0.6483 -1.5193
 1674SOL    HW2 8811   6.137   0.680   1.082  0.4137 -0.9677  0.3545
 1675SOL     OW 8812   4.476   3.941  10.168  0.7280 -0.0634  0.1186
 1675SOL    HW1 8813   4.418   3.875  10.206  1.0888 -0.7151 -0.4394
 1675SOL    HW2 8814   4.562   3.921  10.203  1.1131 -0.8413 -1.2378
 1676SOL     OW 8815   1.735   8.229   1.896 -0.1358 -0.7859 -0.0505
 1676SOL    HW1 8816   1.755   8.158   1.834  0.3095 -0.2590 -0.5315
 1676SOL    HW2 8817   1.821   8.254   1.930 -0.4039 -1.2238  0.9662
 1677SOL     OW 8818   7.763   6.780   6.719 -0.5564  0.0747  0.0826
 1677SOL    HW1 8819   7.760   6.784   6.815 -0.0500  0.2761  0.0950
 1677SOL    HW2 8820   7.671   6.773   6.692 -0.8411  1.5953  0.5311
 1678SOL     OW 8821   9.654   9.886   0.517  0.4892 -0.5680 -0.1582
 1678SOL    HW1 8822   9.703   9.916   0.441  0.4265 -2.5446 -1.0529
 1678SOL    HW2 8823   9.563   9.883   0.488  0.0737  1.1511  0.8584
 1679SOL     OW 8824   2.364   1.304   8.564 -0.0173 -0.3689  0.1582
 1679SOL    HW1 8825   2.391   1.227   8.614 -1.7641 -0.3676  1.1810
 1679SOL    HW2 8826   2.397   1.378   8.615 -2.0532 -0.3577  1.5692
 1680SOL     OW 8827   0.700   6.430   2.356  0.1457 -0.7702  0.2964
 1680SOL    HW1 8828   0.614   6.453   2.393  0.3031  1.9565 -0.8135
 1680SOL    HW2 8829   0.763   6.481   2.407  0.6137  0.8909 -1.7895
 1681SOL     OW 8830   7.939   3.722   2.679 -0.2596  0.2672  0.1339
 1681SOL    HW1 8831   7.931   3.695   2.587 -0.6653 -1.1089  0.5576
 1681SOL    HW2 8832   7.903   3.811   2.680 -1.2658 -0.1048 -0.8370
 1682SOL     OW 8833   8.778   4.452   4.882 -0.1560 -0.2109 -0.4073
 1682SOL    HW1 8834   8.714   4.524   4.878  2.2287  1.9811 -2.1717
 1682SOL    HW2 8835   8.811   4.455   4.972  0.0728  1.1129 -0.5083
 1683SOL     OW 8836   3.325   6.615   3.175  0.4909  0.0472  0.4051
 1683SOL    HW1 8837   3.390   6.684   3.161  0.4597 -0.1144 -0.6126
 1683SOL    HW2 8838   3.353   6.544   3.117 -0.6564  0.0219 -0.1410
 1684SOL     OW 8839   8.859   0.737   6.696  0.4874  0.3367  0.1155
 1684SOL    HW1 8840   8.888   0.696   6.614 -0.8129  0.8875 -0.6443
 1684SOL    HW2 8841   8.848   0.664   6.757 -0.9507 -0.3728 -0.9571
 1685SOL     OW 8842   5.503   5.656   2.243  0.5933 -0.1557 -0.2126
 1685SOL    HW1 8843   5.511   5.598   2.167 -1.7583 -0.4156 -0.3484
 1685SOL    HW2 8844   5.426   5.709   2.224  0.3197  0.2048  1.7175
 1686SOL     OW 8845   3.214   6.626   4.075 -0.2317  0.3254 -0.1392
 1686SOL    HW1 8846   3.236   6.634   3.983 -1.2953 -1.9767 -0.6696
 1686SOL    HW2 8847   3.119   6.638   4.079 -0.3924 -0.9683  0.4226
 1687SOL     OW 8848   1.073   1.427   6.362  0.6379  0.1415  0.0804
 1687SOL    HW1 8849   1.008   1.488   6.326 -0.5016 -0.8784  0.3294
 1687SOL    HW2 8850   1.024   1.375   6.425  1.2269 -1.9309 -1.0852
 1688SOL     OW 8851   7.013   0.582   9.740  0.7280  0.3430 -0.1986
 1688SOL    HW1 8852   7.106   0.605   9.744  1.2252 -1.6189  0.6378
 1688SOL    HW2 8853   7.011   0.499   9.692 -0.4337 -0.3039  0.9289
 1689SOL     OW 8854   1.869   3.570   4.141 -0.3032  0.2423 -0.2982
 1689SOL    HW1 8855   1.949   3.552   4.092 -0.2452  2.1366 -0.9874
 1689SOL    HW2 8856   1.813   3.494   4.125  0.0034  0.4564 -2.7358
 1690SOL     OW 8857   7.145   5.927   1.266  0.3185 -0.4074 -0.2791
 1690SOL    HW1 8858   7.122   5.951   1.356  1.0725 -0.1672 -0.1422
 1690SOL    HW2 8859   7.240   5.915   1.268  0.2758 -0.9081 -0.9301
 1691SOL     OW 8860   4.889   3.268   8.561 -0.6096  0.0013  0.5730
 1691SOL    HW1 8861   4.901   3.360   8.537  1.7335 -0.4843 -0.3507
 1691SOL    HW2 8862   4.849   3.228   8.483  1.1598 -0.3242 -0.1993
 1692SOL     OW 8863   9.264   9.620  10.097 -0.5568 -0.5925 -0.0939
 1692SOL    HW1 8864   9.220   9.702  10.074 -1.5810 -0.9825  0.4325
 1692SOL    HW2 8865   9.289   9.582  10.013  1.3142  0.9650 -0.3237
 1693SOL     OW 8866   6.872   2.092   2.378  0.5266 -0.1627 -0.0612
 1693SOL    HW1 8867   6.799   2.098   2.315 -1.0888 -1.5258  1.5763
 1693SOL    HW2 8868   6.881   1.998   2.394 -1.6093  0.1266  4.3489
 1694SOL     OW 8869   2.403   4.634   4.416  0.5838 -0.6632 -0.0028
 1694SOL    HW1 8870   2.424   4.710   4.361 -0.5584  0.1951  0.7039
 1694SOL    HW2 8871   2.442   4.560   4.370 -0.1026  0.0626 -1.8443
 1695SOL     OW 8872   5.144   3.857  10.099 -0.6979 -0.1815 -0.1714
 1695SOL    HW1 8873   5.091   3.806  10.038  1.0232 -1.4147 -0.7132
 1695SOL    HW2 8874   5.198   3.792  10.144 -0.4988  0.9087  1.2470
 1696SOL     OW 8875   2.190   0.336   2.377  0.0402 -0.0782 -0.2000
 1696SOL    HW1 8876   2.144   0.253   2.389  0.6331 -0.3421  0.3532
 1696SOL    HW2 8877   2.189   0.351   2.283  0.5188 -1.0710 -0.3817
 1697SOL     OW 8878   1.506   0.237   9.449 -0.3988 -0.1420  0.1742
 1697SOL    HW1 8879   1.497   0.143   9.466  0.8455 -0.2765  0.2251
 1697SOL    HW2 8880   1.502   0.277   9.536 -1.3772 -0.0982  0.1133
 1698SOL     OW 8881   4.090   3.692   5.404  0.6284  0.1809 -0.2253
 1698SOL    HW1 8882   4.004   3.725   5.377  1.6456  1.4787 -2.1303
 1698SOL    HW2 8883   4.071   3.635   5.478 -1.7097  1.6144  0.4088
 1699SOL     OW 8884   3.314   8.495   7.669  0.0084 -0.3869 -0.1671
 1699SOL    HW1 8885   3.301   8.581   7.628  2.1355 -0.0165 -0.1594
 1699SOL    HW2 8886   3.320   8.435   7.595  0.3268 -0.2571 -0.2475
 1700SOL     OW 8887  10.149   2.453   9.029  0.5908  0.4862 -0.2379
 1700SOL    HW1 8888  10.093   2.509   9.082 -1.3719 -0.7675 -0.8782
 1700SOL    HW2 8889  10.238   2.482   9.049 -0.1792  1.4357  2.1182
 1701SOL     OW 8890   3.568   1.957   3.057  0.0037 -0.0636  0.6651
 1701SOL    HW1 8891   3.585   2.029   2.996 -1.3083 -0.1416  0.1725
 1701SOL    HW2 8892   3.618   1.980   3.136  2.6932 -0.5131 -0.7643
 1702SOL     OW 8893   0.121   2.463   5.737 -0.2487 -0.2159  0.6207
 1702SOL    HW1 8894   0.154   2.376   5.759  1.1734  0.0772 -0.2132
 1702SOL    HW2 8895   0.195   2.521   5.754 -1.0507  0.7843  0.7781
 1703SOL     OW 8896   4.974   1.468   6.320  0.4401  0.4330 -0.4442
 1703SOL    HW1 8897   5.035   1.542   6.315  0.6642  0.2507 -0.4430
 1703SOL    HW2 8898   5.031   1.391   6.326  0.2094  0.2283 -0.8904
 1704SOL     OW 8899   0.050   7.065   7.177  0.1318 -0.5764 -0.5259
 1704SOL    HW1 8900  -0.002   6.985   7.175  0.0315 -0.5098 -0.5343
 1704SOL    HW2 8901  -0.007   7.133   7.141  0.0139 -0.3779  0.0238
 1705SOL     OW 8902   4.978   3.592   5.971 -0.3316 -0.1116 -0.7606
 1705SOL    HW1 8903   4.913   3.652   5.935 -0.6054 -0.3400 -0.6512
 1705SOL    HW2 8904   5.038   3.648   6.020 -1.3605 -0.0642  0.4889
 1706SOL     OW 8905   4.353   7.398   1.522 -0.1926 -0.1588  0.3647
 1706SOL    HW1 8906   4.317   7.319   1.563 -0.1029  0.1669  1.0794
 1706SOL    HW2 8907   4.277   7.454   1.506 -0.1588 -0.0309  0.6484
 1707SOL     OW 8908   6.820   8.220   9.272  0.8002 -0.3463 -0.4899
 1707SOL    HW1 8909   6.829   8.154   9.341  2.5790 -1.5249 -1.7556
 1707SOL    HW2 8910   6.884   8.287   9.295 -0.3117  0.5001  0.2585
 1708SOL     OW 8911   6.865   5.395   3.842  0.3510  0.3112  0.0718
 1708SOL    HW1 8912   6.938   5.454   3.861 -0.7956  2.4655 -1.6826
 1708SOL    HW2 8913   6.906   5.320   3.799  1.6422  0.9178  0.1862
 1709SOL     OW 8914   1.017   5.873   8.615  0.2831  0.1142  0.9679
 1709SOL    HW1 8915   1.089   5.936   8.619  0.3849  0.0887 -0.2202
 1709SOL    HW2 8916   0.939   5.925   8.633  0.4783  0.3657  1.0982
 1710SOL     OW 8917   8.904   6.807   6.426  0.0222  0.3119  0.6236
 1710SOL    HW1 8918   8.827   6.758   6.397 -0.1603  2.0255 -2.1456
 1710SOL    HW2 8919   8.975   6.743   6.427 -0.7396 -0.5654 -0.2180
 1711SOL     OW 8920   9.222   3.806   6.960  0.3032 -0.7747  0.6649
 1711SOL    HW1 8921   9.162   3.813   6.886 -0.0548  1.2495  1.0871
 1711SOL    HW2 8922   9.309   3.802   6.920  0.0202 -1.5735  0.1062
 1712SOL     OW 8923   5.796   3.808   2.642  0.1133 -1.1151 -0.3393
 1712SOL    HW1 8924   5.740   3.754   2.697 -1.0519 -0.3398 -0.7346
 1712SOL    HW2 8925   5.809   3.888   2.692  1.7456 -1.6786  0.1986
 1713SOL     OW 8926   2.369   7.624   6.690 -0.0441 -0.6314 -0.4886
 1713SOL    HW1 8927   2.297   7.650   6.632 -0.5673 -1.8791 -0.4201
 1713SOL    HW2 8928   2.330   7.618   6.777  0.7596  1.3272  0.0737
 1714SOL     OW 8929   9.978   6.924   8.892 -0.4084  0.4056  0.0176
 1714SOL    HW1 8930   9.927   6.951   8.816 -2.3966  1.8461  1.7199
 1714SOL    HW2 8931   9.974   6.828   8.892  0.8519  0.3010 -2.4012
 1715SOL     OW 8932   7.205   2.061   7.968  0.0867 -0.2517 -0.1888
 1715SOL    HW1 8933   7.271   2.081   7.902  1.1375 -0.6118  0.7065
 1715SOL    HW2 8934   7.165   1.979   7.938  0.4517 -0.3345 -0.4542
 1716SOL     OW 8935   1.832   9.581   4.017 -0.5272 -0.1477 -0.1177
 1716SOL    HW1 8936   1.861   9.668   3.990 -1.5194 -0.3197 -1.8755
 1716SOL    HW2 8937   1.805   9.592   4.109 -3.6849  2.2479 -1.1480
 1717SOL     OW 8938   5.415   7.052   2.835  0.3845  0.4167 -0.0779
 1717SOL    HW1 8939   5.345   7.067   2.898 -0.8233 -0.4764 -1.1435
 1717SOL    HW2 8940   5.457   7.137   2.824 -0.8811  1.0961  0.2024
 1718SOL     OW 8941   5.373   3.372   9.671  0.3486 -0.1088  0.2893
 1718SOL    HW1 8942   5.434   3.298   9.679  0.8019  0.2517  0.1860
 1718SOL    HW2 8943   5.392   3.409   9.584 -1.3592 -1.1835 -0.6081
 1719SOL     OW 8944   0.240   5.525   3.791 -1.0151  0.1311 -0.4981
 1719SOL    HW1 8945   0.270   5.557   3.876 -1.5094  1.2139 -0.7110
 1719SOL    HW2 8946   0.160   5.478   3.810 -1.8099  1.4375 -0.4804
 1720SOL     OW 8947   0.310   0.398   5.277  0.0685  0.1623  0.0044
 1720SOL    HW1 8948   0.390   0.430   5.234  0.5967 -0.8580  0.1765
 1720SOL    HW2 8949   0.255   0.368   5.206  0.2047  0.0841 -0.0697
 1721SOL     OW 8950   2.881   6.587   6.350  0.9476 -0.0204 -0.3541
 1721SOL    HW1 8951   2.866   6.584   6.255  1.8405 -1.6491 -0.4793
 1721SOL    HW2 8952   2.804   6.633   6.384  0.2494 -0.0411 -1.7942
 1722SOL     OW 8953   5.798   2.610   9.731  0.1603 -0.7364  0.0826
 1722SOL    HW1 8954   5.814   2.665   9.655  2.1082  0.1883  1.0934
 1722SOL    HW2 8955   5.707   2.627   9.754  0.4432  1.3803 -0.1894
 1723SOL     OW 8956   0.377   2.553   5.836  0.7984  0.4158  0.0755
 1723SOL    HW1 8957   0.452   2.494   5.839  1.9461  1.7650 -0.9185
 1723SOL    HW2 8958   0.379   2.600   5.919  0.5472 -0.1004  0.3859
 1724SOL     OW 8959   6.583   7.891   8.679 -0.0715 -0.2689  0.3098
 1724SOL    HW1 8960   6.583   7.796   8.694 -0.1127 -0.1003  1.4742
 1724SOL    HW2 8961   6.571   7.900   8.584 -0.7567 -1.4141  0.2589
 1725SOL     OW 8962   3.352   5.896   7.122 -0.1025  0.4160  0.5868
 1725SOL    HW1 8963   3.309   5.831   7.067 -0.1770  0.7137  0.2922
 1725SOL    HW2 8964   3.446   5.876   7.112 -0.1639 -0.2010  1.1933
 1726SOL     OW 8965   0.084   9.564   2.299  0.3707 -0.5907 -0.4995
 1726SOL    HW1 8966   0.065   9.656   2.315 -0.1864 -0.7093 -0.4763
 1726SOL    HW2 8967   0.177   9.555   2.318  0.4032 -0.0554 -0.4026
 1727SOL     OW 8968   1.778   9.352   5.234  0.3793  0.0655  0.0460
 1727SOL    HW1 8969   1.813   9.300   5.162  0.9050 -0.6816  0.8244
 1727SOL    HW2 8970   1.687   9.324   5.242  0.5349 -0.4118  0.1696
 1728SOL     OW 8971   1.251   6.803   8.490 -0.2344  0.3278  0.2888
 1728SOL    HW1 8972   1.187   6.864   8.525 -0.7359  0.2228 -0.4263
 1728SOL    HW2 8973   1.210   6.717   8.499 -0.4769  0.3229 -0.7644
 1729SOL     OW 8974   4.234   7.234  10.225  0.6687  0.5993 -0.6060
 1729SOL    HW1 8975   4.223   7.198  10.137 -0.7415  1.0917 -0.6570
 1729SOL    HW2 8976   4.175   7.310  10.228 -0.5924 -0.3681  1.2745
 1730SOL     OW 8977   8.099   1.672   0.444 -0.1916 -0.3723 -0.1107
 1730SOL    HW1 8978   8.167   1.607   0.457  0.0570 -0.3005 -0.9523
 1730SOL    HW2 8979   8.019   1.633   0.479  0.1129 -0.8154  0.0835
 1731SOL     OW 8980   4.134   7.539   1.162 -0.1566  0.0723  0.2753
 1731SOL    HW1 8981   4.221   7.509   1.188  1.0171  1.4110 -1.7748
 1731SOL    HW2 8982   4.078   7.523   1.238  1.7762 -1.2398  1.4832
 1732SOL     OW 8983   2.097   5.494   7.375 -0.1907  0.5505 -0.5973
 1732SOL    HW1 8984   2.053   5.413   7.400 -0.1637  0.3860 -1.0731
 1732SOL    HW2 8985   2.043   5.530   7.305  0.1810  0.5791 -0.8726
 1733SOL     OW 8986   6.093   5.038   9.923  0.3113  0.2382 -0.3117
 1733SOL    HW1 8987   6.166   5.087   9.962  0.5969  0.5264 -1.1936
 1733SOL    HW2 8988   6.127   4.950   9.908 -0.2207 -0.2917  1.3319
 1734SOL     OW 8989   9.021   8.471   5.116  0.3955 -0.3256  0.1743
 1734SOL    HW1 8990   9.037   8.476   5.210  0.0571 -0.8384  0.2647
 1734SOL    HW2 8991   9.080   8.401   5.086  1.6878  0.9080 -0.2765
 1735SOL     OW 8992   4.970   9.573   3.677  0.0872 -0.7327  0.5016
 1735SOL    HW1 8993   5.055   9.566   3.721 -0.6726 -1.5642  1.8840
 1735SOL    HW2 8994   4.976   9.655   3.628  1.3215 -0.2489  1.3979
 1736SOL     OW 8995   3.342   4.704   1.059 -0.5897  0.6259 -0.3435
 1736SOL    HW1 8996   3.338   4.791   1.098 -0.2129  0.9007 -0.8939
 1736SOL    HW2 8997   3.306   4.646   1.126  0.4355  1.0227  0.5852
 1737SOL     OW 8998   1.283   4.641   0.872 -0.6122  0.6421 -0.3837
 1737SOL    HW1 8999   1.296   4.729   0.907 -0.5458  0.3438  0.3650
 1737SOL    HW2 9000   1.261   4.588   0.949 -0.7069  0.0183 -0.8363
 1738SOL     OW 9001   7.306   4.244   2.875 -0.1299 -0.4645  0.1409
 1738SOL    HW1 9002   7.333   4.313   2.935 -1.0893  0.0676 -0.0226
 1738SOL    HW2 9003   7.379   4.182   2.876  0.2735 -0.0014  1.1313
 1739SOL     OW 9004   3.247   0.215   1.779 -0.1909 -0.6119  0.4388
 1739SOL    HW1 9005   3.156   0.219   1.810 -0.0924  0.5290  0.6625
 1739SOL    HW2 9006   3.275   0.307   1.778  0.0414 -0.6324 -2.4255
 1740SOL     OW 9007   4.652   5.096   2.137  0.1500  0.0984 -0.0469
 1740SOL    HW1 9008   4.636   5.049   2.055  1.0057 -0.9720  0.3690
 1740SOL    HW2 9009   4.564   5.113   2.171 -0.2471 -2.4732  0.4436
 1741SOL     OW 9010   5.391   3.847   3.873  0.4716  0.1874 -0.2590
 1741SOL    HW1 9011   5.312   3.825   3.824  0.0606  2.0629 -0.5357
 1741SOL    HW2 9012   5.459   3.854   3.806  0.3705  0.7027 -0.3151
 1742SOL     OW 9013   7.244   4.399   5.112 -0.7212 -0.5083 -0.0142
 1742SOL    HW1 9014   7.279   4.398   5.023  1.2125  0.6106  0.6826
 1742SOL    HW2 9015   7.260   4.487   5.144 -1.6912 -0.7824  1.3505
 1743SOL     OW 9016   0.672   3.859   9.233  0.6048 -0.5350  0.2183
 1743SOL    HW1 9017   0.661   3.920   9.159  1.1948 -0.1542  0.4379
 1743SOL    HW2 9018   0.593   3.873   9.286  2.1455  2.4758  1.9978
 1744SOL     OW 9019   2.976   4.639   1.383 -0.1590 -0.0200  1.1784
 1744SOL    HW1 9020   2.930   4.679   1.309 -1.2024 -1.5640  0.9608
 1744SOL    HW2 9021   2.907   4.595   1.434  0.9436 -1.6534  1.3310
 1745SOL     OW 9022   6.444   2.215   0.203 -0.2565 -0.5399  0.3808
 1745SOL    HW1 9023   6.447   2.293   0.258 -1.9012 -1.5229  1.9701
 1745SOL    HW2 9024   6.529   2.214   0.158  0.2116  1.5581  1.1233
 1746SOL     OW 9025   4.618   4.235   3.705 -0.8702 -0.5390 -0.4033
 1746SOL    HW1 9026   4.663   4.319   3.717 -0.8456 -0.4277 -1.2664
 1746SOL    HW2 9027   4.675   4.184   3.648  0.7534 -2.4165  2.5992
 1747SOL     OW 9028   2.831   4.888   5.011  0.4154  0.4541 -0.3150
 1747SOL    HW1 9029   2.798   4.948   4.944  1.4821  0.3702 -0.9394
 1747SOL    HW2 9030   2.775   4.903   5.086 -1.0737  0.2632 -1.3416
 1748SOL     OW 9031   6.887   3.620   1.147  0.4592 -0.0860  0.1112
 1748SOL    HW1 9032   6.982   3.615   1.136  0.4679 -1.4775  0.6248
 1748SOL    HW2 9033   6.855   3.655   1.064  1.5129  1.8648  0.4575
 1749SOL     OW 9034   1.329   9.850   6.324 -0.3172 -0.2728  0.0303
 1749SOL    HW1 9035   1.248   9.885   6.363  0.0352  0.8094 -0.1798
 1749SOL    HW2 9036   1.300   9.773   6.275 -0.9889 -0.7867  1.1868
 1750SOL     OW 9037   6.449   3.223   9.898 -0.2665  0.5979 -0.2241
 1750SOL    HW1 9038   6.438   3.133   9.928  1.1991  0.1990 -0.7950
 1750SOL    HW2 9039   6.464   3.216   9.804  1.8818  1.2361  0.0219
 1751SOL     OW 9040   0.060   7.456   5.026 -0.0064 -0.0049 -0.0480
 1751SOL    HW1 9041   0.043   7.385   5.088  1.2741 -0.1209  0.1957
 1751SOL    HW2 9042  -0.012   7.450   4.963 -0.9109 -0.3619  0.9864
 1752SOL     OW 9043   2.678   5.601   8.480  0.1750 -0.3317 -0.4414
 1752SOL    HW1 9044   2.664   5.618   8.387  1.7626 -1.2903 -0.8892
 1752SOL    HW2 9045   2.590   5.585   8.515 -0.6176  1.5409 -1.4255
 1753SOL     OW 9046   1.517   6.450   4.563 -0.0555  0.8543 -0.1583
 1753SOL    HW1 9047   1.553   6.362   4.551  1.2549  1.2203  0.9011
 1753SOL    HW2 9048   1.474   6.448   4.648 -0.1778  1.2006 -0.2087
 1754SOL     OW 9049   5.386   0.427   2.921  0.2115  0.1039 -0.0200
 1754SOL    HW1 9050   5.303   0.385   2.899 -0.7543  1.3389  1.0502
 1754SOL    HW2 9051   5.444   0.408   2.847 -1.4420  0.3183 -1.4225
 1755SOL     OW 9052   9.457   1.078   0.624 -0.4050 -0.1083  0.1134
 1755SOL    HW1 9053   9.434   0.992   0.659  2.3311 -0.0588  2.4343
 1755SOL    HW2 9054   9.402   1.139   0.674 -0.9829 -0.4032 -0.1611
 1756SOL     OW 9055   0.010   2.477   1.897  0.3176  0.0185 -0.6810
 1756SOL    HW1 9056  -0.059   2.537   1.926 -0.5663 -1.0275 -0.5637
 1756SOL    HW2 9057   0.002   2.402   1.956  0.8082 -0.6061 -1.4011
 1757SOL     OW 9058   6.583   6.269   9.860 -0.2666 -0.3385  0.4360
 1757SOL    HW1 9059   6.560   6.345   9.806 -1.2259 -0.3400  0.8244
 1757SOL    HW2 9060   6.609   6.307   9.944 -2.4795 -0.4781  1.2438
 1758SOL     OW 9061   9.584   2.199   8.644 -0.3169  0.1962  0.1931
 1758SOL    HW1 9062   9.499   2.157   8.634 -0.7789  1.1461  0.1057
 1758SOL    HW2 9063   9.568   2.291   8.627  0.6880  0.4234  0.4155
 1759SOL     OW 9064   6.706   5.867   7.164 -0.4166 -0.5223  0.1912
 1759SOL    HW1 9065   6.747   5.792   7.121 -1.5509 -0.6141 -0.7731
 1759SOL    HW2 9066   6.778   5.929   7.178  0.3545 -1.3795  0.1060
 1760SOL     OW 9067   9.876   0.044   2.782 -0.4757  0.4713 -0.2424
 1760SOL    HW1 9068   9.971   0.056   2.784 -0.2511 -0.9407 -1.1416
 1760SOL    HW2 9069   9.852   0.061   2.691 -0.8227 -0.8406 -0.4114
 1761SOL     OW 9070   7.946   6.002   2.421 -0.3785 -0.1094 -0.2426
 1761SOL    HW1 9071   7.867   6.003   2.367 -0.5545 -3.0992 -0.1720
 1761SOL    HW2 9072   8.016   6.029   2.361 -1.0228 -0.3623 -1.1378
 1762SOL     OW 9073   2.258   5.076  10.148  0.4978 -0.2584  0.0619
 1762SOL    HW1 9074   2.333   5.117  10.192 -0.8261  1.5586  0.7464
 1762SOL    HW2 9075   2.265   5.106  10.057  1.6817 -1.7389 -0.3672
 1763SOL     OW 9076   3.585   1.405   2.489 -0.5125  0.2119 -0.3428
 1763SOL    HW1 9077   3.674   1.412   2.523 -1.1894 -1.3120  2.0302
 1763SOL    HW2 9078   3.565   1.312   2.494 -2.1282  0.4872 -1.1439
 1764SOL     OW 9079   1.658   4.802   1.760  0.4622 -0.1172 -0.0975
 1764SOL    HW1 9080   1.572   4.759   1.751  1.0918 -1.5943  0.6317
 1764SOL    HW2 9081   1.669   4.813   1.854  1.5536 -0.9808 -0.1113
 1765SOL     OW 9082   1.113   8.380   1.399  0.2699  0.4507 -0.1519
 1765SOL    HW1 9083   1.207   8.369   1.384  0.3923  0.9069  0.2469
 1765SOL    HW2 9084   1.092   8.315   1.467  0.3554  0.5321 -0.0462
 1766SOL     OW 9085   8.458   4.112   7.407  0.6139 -0.2790  0.0415
 1766SOL    HW1 9086   8.422   4.104   7.495 -0.3153 -3.3658 -0.5061
 1766SOL    HW2 9087   8.532   4.052   7.406  0.9866  0.1769 -1.1413
 1767SOL     OW 9088  10.073   5.651   6.487 -0.0404 -0.1826 -0.5597
 1767SOL    HW1 9089  10.067   5.704   6.408  0.0568  0.6954  0.0126
 1767SOL    HW2 9090  10.050   5.563   6.458 -0.4303  0.2070 -1.4820
 1768SOL     OW 9091   0.919   1.345   0.335  0.2106 -0.1431 -0.1717
 1768SOL    HW1 9092   0.869   1.266   0.313  0.3201 -0.0766 -0.6655
 1768SOL    HW2 9093   0.979   1.357   0.261 -1.5874  1.8999 -1.4288
 1769SOL     OW 9094   6.401   8.974   2.529  0.0443 -0.4539  0.1153
 1769SOL    HW1 9095   6.319   9.014   2.556  1.0961  1.4588  0.6642
 1769SOL    HW2 9096   6.456   9.047   2.501  2.1545 -1.4417  1.3834
 1770SOL     OW 9097   1.462   8.562   3.728 -0.2637 -0.2969 -0.1055
 1770SOL    HW1 9098   1.463   8.639   3.784  1.0238 -1.0336  0.9576
 1770SOL    HW2 9099   1.548   8.521   3.742 -0.6494 -1.5518 -1.1628
 1771SOL     OW 9100   4.923   0.366   0.898  0.3368  0.0934  0.0520
 1771SOL    HW1 9101   4.855   0.412   0.948 -4.4779 -1.2634 -4.3423
 1771SOL    HW2 9102   4.962   0.434   0.843  0.7736  0.5087  0.8698
 1772SOL     OW 9103   7.851   2.299   9.108 -0.5010 -0.8855 -0.1036
 1772SOL    HW1 9104   7.885   2.365   9.168 -2.3566 -0.4786  0.5368
 1772SOL    HW2 9105   7.930   2.259   9.071  0.6782  1.4928 -0.3488
 1773SOL     OW 9106   1.795   3.898   0.539  0.0387 -0.3465 -1.0646
 1773SOL    HW1 9107   1.749   3.858   0.613  1.2629 -2.3278 -1.3108
 1773SOL    HW2 9108   1.733   3.894   0.467  0.0066 -1.5518 -0.9935
 1774SOL     OW 9109   4.536   2.483   3.481  0.4101 -0.0706  0.1607
 1774SOL    HW1 9110   4.612   2.465   3.425 -1.0522 -0.5769 -1.7762
 1774SOL    HW2 9111   4.557   2.566   3.523  1.4157  0.5749 -1.5141
 1775SOL     OW 9112   5.311   3.181  10.036 -0.4445 -0.0491 -0.2716
 1775SOL    HW1 9113   5.299   3.125   9.959  0.0349 -0.7900  0.1804
 1775SOL    HW2 9114   5.366   3.253  10.005 -1.0691  0.1921 -0.8605
 1776SOL     OW 9115   1.932   4.883   1.924 -0.0346  0.0141  0.0205
 1776SOL    HW1 9116   1.840   4.878   1.951 -0.5461 -0.4065 -1.6757
 1776SOL    HW2 9117   1.938   4.967   1.878  0.1623 -0.4235 -0.7600
 1777SOL     OW 9118   5.961   3.113   7.670  0.4709 -0.4585  0.1010
 1777SOL    HW1 9119   5.970   3.092   7.577  0.8217  0.5265 -0.1005
 1777SOL    HW2 9120   5.988   3.033   7.715 -0.0039 -1.0581 -0.6402
 1778SOL     OW 9121   0.018   2.782   5.444 -0.4275  0.7820  0.0912
 1778SOL    HW1 9122   0.040   2.869   5.412 -1.9690  0.1113 -3.2881
 1778SOL    HW2 9123   0.007   2.729   5.364  0.7122 -2.6013  1.9738
 1779SOL     OW 9124   3.116   6.875   9.900  0.0894  0.8414  0.2776
 1779SOL    HW1 9125   3.180   6.808   9.875  1.1608  2.3611 -1.3304
 1779SOL    HW2 9126   3.058   6.882   9.824 -1.9900 -0.4206  1.6580
 1780SOL     OW 9127   9.817   3.806   5.382 -0.7485 -0.0378  0.4560
 1780SOL    HW1 9128   9.847   3.895   5.364  1.6979 -0.4379  2.1004
 1780SOL    HW2 9129   9.881   3.750   5.338 -2.5188 -1.0566 -0.9607
 1781SOL     OW 9130   5.737   1.692   1.200 -0.9275  0.0671  0.1061
 1781SOL    HW1 9131   5.686   1.759   1.154 -1.6333 -0.5312  0.0034
 1781SOL    HW2 9132   5.715   1.704   1.292 -1.2890 -0.2199  0.0573
 1782SOL     OW 9133   0.739   1.245   3.612  0.2373 -0.1907 -0.5455
 1782SOL    HW1 9134   0.793   1.203   3.546 -0.2362  0.6814 -1.5143
 1782SOL    HW2 9135   0.651   1.244   3.574 -0.3870 -1.2624  0.8432
 1783SOL     OW 9136   4.422   0.878   1.938 -0.2094 -0.2871 -0.6146
 1783SOL    HW1 9137   4.483   0.881   2.013  1.3288  0.4906 -1.8349
 1783SOL    HW2 9138   4.374   0.961   1.944 -1.0517 -0.8106  0.2340
 1784SOL     OW 9139   2.803   2.698   3.889 -0.5903 -0.7503  0.0291
 1784SOL    HW1 9140   2.792   2.791   3.907 -0.2052 -0.6787 -0.0915
 1784SOL    HW2 9141   2.737   2.655   3.943 -3.5928 -0.1911 -2.8250
 1785SOL     OW 9142   4.615   2.183   7.392 -0.2252 -0.0579 -0.1030
 1785SOL    HW1 9143   4.648   2.101   7.427 -0.5868 -0.1878 -0.0619
 1785SOL    HW2 9144   4.526   2.190   7.426 -0.2554  0.2665 -0.2427
 1786SOL     OW 9145   4.721   9.209   9.966  0.1909  0.1676 -0.5448
 1786SOL    HW1 9146   4.719   9.114   9.974  1.0518  0.2713  1.4251
 1786SOL    HW2 9147   4.631   9.237   9.981 -0.0101 -0.3020 -0.8406
 1787SOL     OW 9148   6.460   6.135  10.066  0.1660 -0.7973  0.4796
 1787SOL    HW1 9149   6.507   6.148   9.984 -0.6737  1.0509  0.2385
 1787SOL    HW2 9150   6.424   6.046  10.059  1.8596 -1.4782 -0.1966
 1788SOL     OW 9151   5.785   1.665   4.456  0.1058 -0.1321 -0.1562
 1788SOL    HW1 9152   5.802   1.759   4.460  0.5815 -0.2498  1.4124
 1788SOL    HW2 9153   5.709   1.653   4.514  0.9406 -0.8765  0.8103
 1789SOL     OW 9154   8.709   6.994   6.956 -0.5127 -0.1427  0.3026
 1789SOL    HW1 9155   8.726   6.987   7.050  0.1323 -2.9690  0.0557
 1789SOL    HW2 9156   8.790   7.030   6.920 -0.2739 -0.3016  0.6739
 1790SOL     OW 9157   5.900   2.325   3.475 -0.3402 -0.1638 -0.0418
 1790SOL    HW1 9158   5.889   2.234   3.499 -0.1138 -0.4466 -0.9731
 1790SOL    HW2 9159   5.967   2.358   3.536 -1.2823 -0.2733  1.0836
 1791SOL     OW 9160   8.855   4.419   4.576  0.6074 -0.1453 -0.1894
 1791SOL    HW1 9161   8.801   4.467   4.513  1.7782  0.7988 -0.4942
 1791SOL    HW2 9162   8.806   4.425   4.658 -0.2344 -0.1562 -0.6812
 1792SOL     OW 9163   1.056   3.694   5.963 -0.0931 -0.2260  0.0257
 1792SOL    HW1 9164   1.026   3.606   5.987  0.5261 -0.2318  0.8541
 1792SOL    HW2 9165   0.976   3.744   5.950 -0.4624 -1.0520 -1.0262
 1793SOL     OW 9166   4.185   3.358   0.597  0.2852 -1.0454  0.3741
 1793SOL    HW1 9167   4.155   3.383   0.685  1.1650  0.1040  0.3741
 1793SOL    HW2 9168   4.267   3.311   0.612  0.9372 -0.0222  0.1465
 1794SOL     OW 9169   3.818   2.248   7.007  0.2147 -0.0635  0.4280
 1794SOL    HW1 9170   3.732   2.216   7.033  0.4152  0.6050  2.0169
 1794SOL    HW2 9171   3.875   2.171   7.010 -0.1469 -0.3386  0.2271
 1795SOL     OW 9172  10.342   1.792   0.463 -0.5360  0.0472  0.0563
 1795SOL    HW1 9173  10.431   1.816   0.491 -1.0024  2.3969 -0.2342
 1795SOL    HW2 9174  10.315   1.724   0.524  1.4951 -0.8149  0.0768
 1796SOL     OW 9175   8.387   8.441   8.110  0.4741  0.3339 -0.2261
 1796SOL    HW1 9176   8.443   8.370   8.079  0.7011  0.2267  0.4241
 1796SOL    HW2 9177   8.427   8.471   8.191 -0.5388  0.0810  0.3906
 1797SOL     OW 9178   9.704   3.066  10.055  0.4265 -0.4227 -0.0458
 1797SOL    HW1 9179   9.653   3.134  10.013  2.0509  1.0314  0.2108
 1797SOL    HW2 9180   9.640   3.000  10.082 -1.0930  0.6042 -1.0328
 1798SOL     OW 9181  10.302   3.206   5.533 -0.2848  0.1395 -0.5581
 1798SOL    HW1 9182  10.242   3.175   5.600  1.0149 -2.1094 -0.3570
 1798SOL    HW2 9183  10.257   3.282   5.495 -1.3872  1.0724  2.3040
 1799SOL     OW 9184   3.607   6.784   3.743 -0.1500 -0.4904 -0.2530
 1799SOL    HW1 9185   3.567   6.701   3.768 -0.7131  0.1272  1.0196
 1799SOL    HW2 9186   3.534   6.838   3.713  0.5521 -1.3704 -4.0245
 1800SOL     OW 9187   0.941   8.428   0.585  0.4776 -0.1722 -0.4030
 1800SOL    HW1 9188   0.882   8.396   0.653 -0.1010 -0.4100 -1.0005
 1800SOL    HW2 9189   1.004   8.483   0.631  1.0129 -1.5164  0.5462
 1801SOL     OW 9190   8.288   7.819   3.629 -0.0358  0.0206  0.1244
 1801SOL    HW1 9191   8.232   7.896   3.623  1.5188  1.1917  0.0074
 1801SOL    HW2 9192   8.377   7.853   3.620  0.7316 -1.7300  0.6160
 1802SOL     OW 9193   5.773   4.463   0.293 -0.3231  0.0300  0.5316
 1802SOL    HW1 9194   5.843   4.439   0.354 -0.3319  2.9644  1.8532
 1802SOL    HW2 9195   5.694   4.464   0.347 -0.8494 -0.1174 -0.2236
 1803SOL     OW 9196   5.063   3.045   4.526 -0.3461 -0.1486 -0.3069
 1803SOL    HW1 9197   5.058   2.976   4.460 -0.4993  0.6570 -1.1616
 1803SOL    HW2 9198   4.976   3.085   4.525  0.2844  1.2599 -1.1703
 1804SOL     OW 9199   4.500   5.846   6.849 -0.0254 -0.0177 -0.0058
 1804SOL    HW1 9200   4.478   5.862   6.941 -1.5159  0.1991 -0.3696
 1804SOL    HW2 9201   4.595   5.854   6.846 -0.0530  1.5080  1.2509
 1805SOL     OW 9202   3.580   8.771   1.518  0.5457 -0.8078 -0.6583
 1805SOL    HW1 9203   3.531   8.735   1.592 -0.2727  0.0564 -0.7536
 1805SOL    HW2 9204   3.514   8.793   1.453  1.1634 -0.6159 -1.2414
 1806SOL     OW 9205   6.289   8.261   4.801 -0.2455  0.3081 -0.0363
 1806SOL    HW1 9206   6.255   8.347   4.824 -1.8862  0.3108 -2.2043
 1806SOL    HW2 9207   6.384   8.270   4.810 -0.4847  1.6446  1.8610
 1807SOL     OW 9208   4.012   5.779   0.691  0.4207  0.1257  0.2975
 1807SOL    HW1 9209   4.060   5.705   0.655 -0.8982 -0.6975  0.1558
 1807SOL    HW2 9210   4.019   5.769   0.786  0.7608  0.1650  0.2759
 1808SOL     OW 9211   3.838   5.610   7.066  0.2005  0.3955 -0.8762
 1808SOL    HW1 9212   3.800   5.539   7.118 -0.7312  2.0045  0.7393
 1808SOL    HW2 9213   3.923   5.626   7.106 -0.5405  1.6720  0.2639
 1809SOL     OW 9214  10.047   0.325   2.086  0.0445 -0.1675 -0.1365
 1809SOL    HW1 9215   9.993   0.397   2.052 -1.2831 -1.1485 -0.1750
 1809SOL    HW2 9216   9.999   0.246   2.062  2.0897 -1.1725 -1.2280
 1810SOL     OW 9217   8.157   7.104   1.539 -0.3206  0.3761  0.1405
 1810SOL    HW1 9218   8.075   7.107   1.588 -1.1191  1.4400 -1.1960
 1810SOL    HW2 9219   8.158   7.016   1.500 -0.8194  0.3501  0.1762
 1811SOL     OW 9220   6.059   6.788   0.815  0.0586 -0.0156 -0.8617
 1811SOL    HW1 9221   5.985   6.847   0.830  0.6379  1.7990 -4.1871
 1811SOL    HW2 9222   6.134   6.834   0.851  0.1565  0.1514 -1.2740
 1812SOL     OW 9223   7.355   0.403   3.545 -0.3447  0.1242  0.1346
 1812SOL    HW1 9224   7.365   0.313   3.513 -0.8492  0.4788 -1.0852
 1812SOL    HW2 9225   7.441   0.443   3.530 -0.4922  0.2030 -0.5173
 1813SOL     OW 9226   8.927   5.774   3.860  0.1088 -0.3428 -0.0593
 1813SOL    HW1 9227   8.868   5.848   3.844  0.8424  0.5457  1.2033
 1813SOL    HW2 9228   8.881   5.721   3.925 -1.2403 -2.0266 -2.2619
 1814SOL     OW 9229   5.422   8.933   2.841 -0.3410  0.4298 -0.2862
 1814SOL    HW1 9230   5.455   8.921   2.752  2.7931 -0.1047  0.8375
 1814SOL    HW2 9231   5.495   8.909   2.898 -1.9536  1.5398  2.4670
 1815SOL     OW 9232   2.197   6.217   7.804 -0.0836 -0.0884 -0.0108
 1815SOL    HW1 9233   2.198   6.294   7.747 -2.2190 -0.1422 -0.2069
 1815SOL    HW2 9234   2.174   6.144   7.745 -1.8179 -0.2267  0.7789
 1816SOL     OW 9235   5.106   8.963   4.858 -0.4833  0.0429  0.1075
 1816SOL    HW1 9236   5.081   8.873   4.840  0.5415  0.0169 -1.4088
 1816SOL    HW2 9237   5.133   8.998   4.773  1.7820  0.9070  1.0951
 1817SOL     OW 9238   2.674   9.593   5.577 -0.1839  0.5562  0.1311
 1817SOL    HW1 9239   2.624   9.511   5.582 -0.5654  0.8547  1.8846
 1817SOL    HW2 9240   2.707   9.606   5.666  1.2744  1.4638 -0.5097
 1818SOL     OW 9241   7.292   8.791   1.765 -0.3859 -0.4063 -0.3686
 1818SOL    HW1 9242   7.215   8.812   1.817 -0.3044 -1.7885  0.3647
 1818SOL    HW2 9243   7.366   8.810   1.823 -0.1770  0.4362 -0.8923
 1819SOL     OW 9244   9.909   6.403   5.101 -0.1817  0.5502  0.7239
 1819SOL    HW1 9245   9.911   6.498   5.109  1.8875  0.4878  1.3306
 1819SOL    HW2 9246   9.925   6.371   5.190  0.9519 -0.3228  0.2289
 1820SOL     OW 9247   3.751   1.339   6.129  0.2881 -0.4097  0.0031
 1820SOL    HW1 9248   3.734   1.402   6.059 -0.0285 -1.0327 -0.4967
 1820SOL    HW2 9249   3.730   1.386   6.210 -0.1160  0.0691 -0.3742
 1821SOL     OW 9250   8.928   7.212   9.495  0.3700  0.5312  0.0513
 1821SOL    HW1 9251   8.938   7.272   9.569 -0.4698  0.2523  0.4132
 1821SOL    HW2 9252   8.998   7.236   9.435  0.2192  1.6941  0.3080
 1822SOL     OW 9253   1.269   3.090   1.985 -0.2600  0.1815  0.6257
 1822SOL    HW1 9254   1.314   3.110   2.067  0.8151 -0.2377  0.1523
 1822SOL    HW2 9255   1.194   3.150   1.983  0.9306  1.7417  0.8842
 1823SOL     OW 9256   5.161   1.341   3.581 -0.3616  0.0129  0.6249
 1823SOL    HW1 9257   5.230   1.375   3.525 -0.4027 -2.2875 -0.9470
 1823SOL    HW2 9258   5.080   1.369   3.538 -0.3951 -0.7987  0.1561
 1824SOL     OW 9259   6.300   0.713   6.789  0.4288  0.1888  0.1375
 1824SOL    HW1 9260   6.337   0.725   6.702  1.1032  0.1891  0.4227
 1824SOL    HW2 9261   6.218   0.762   6.787  0.4383  0.1852 -0.4950
 1825SOL     OW 9262   7.366   2.855   0.738 -0.2847 -0.1146  0.2929
 1825SOL    HW1 9263   7.461   2.870   0.742 -0.2555  0.1311 -0.9032
 1825SOL    HW2 9264   7.357   2.773   0.691 -0.6944  0.6667 -1.0382
 1826SOL     OW 9265   4.815   1.954   9.410 -0.6536  0.0072 -0.5106
 1826SOL    HW1 9266   4.749   1.971   9.344  0.9761  0.0626 -2.2087
 1826SOL    HW2 9267   4.789   1.872   9.450 -1.3095 -0.3892 -1.7157
 1827SOL     OW 9268   8.785   1.689   4.490  0.2262  0.0549 -0.2332
 1827SOL    HW1 9269   8.781   1.693   4.585  0.8697  2.5081 -0.2366
 1827SOL    HW2 9270   8.780   1.780   4.462  2.2252 -0.4004 -2.4366
 1828SOL     OW 9271   2.637   3.689   2.012  0.1376  0.1058 -0.1689
 1828SOL    HW1 9272   2.619   3.782   2.024  0.7433  0.1043  0.8477
 1828SOL    HW2 9273   2.557   3.645   2.039  0.2987  0.2828  0.6357
 1829SOL     OW 9274   5.937   4.231   4.627  0.1771  0.7026 -0.3293
 1829SOL    HW1 9275   5.887   4.155   4.597 -0.0973  0.2944  1.1218
 1829SOL    HW2 9276   6.003   4.244   4.559 -0.7620  0.1513 -1.3754
 1830SOL     OW 9277   0.487   3.114   9.474  0.1843 -0.5650  0.3331
 1830SOL    HW1 9278   0.564   3.127   9.529 -0.2886  2.3450  0.4666
 1830SOL    HW2 9279   0.512   3.148   9.388 -0.2774 -1.5808 -0.2203
 1831SOL     OW 9280   0.568   3.223  10.301 -0.0633  0.1496  0.2498
 1831SOL    HW1 9281   0.595   3.180  10.219 -2.0697 -0.4552 -0.1417
 1831SOL    HW2 9282   0.612   3.173  10.370  0.7971 -0.0043 -0.3857
 1832SOL     OW 9283   9.623   9.249   4.836  0.2259  0.1975 -0.0860
 1832SOL    HW1 9284   9.678   9.279   4.764 -0.8369 -2.3281 -2.1033
 1832SOL    HW2 9285   9.539   9.228   4.796 -0.5029 -1.0525  1.9271
 1833SOL     OW 9286   3.960   4.580   2.614 -0.1590  0.6444  0.2628
 1833SOL    HW1 9287   3.945   4.636   2.538 -1.8149 -2.5590 -2.0311
 1833SOL    HW2 9288   3.884   4.597   2.671  0.5259  2.2716  0.7382
 1834SOL     OW 9289   2.123   5.822  10.107 -0.0041  0.0821  0.3733
 1834SOL    HW1 9290   2.048   5.855  10.157 -1.3507 -0.6152 -1.1130
 1834SOL    HW2 9291   2.155   5.749  10.159  0.2940  0.9809  1.5088
 1835SOL     OW 9292   9.280   5.089   1.487 -0.9383 -0.3609 -0.6806
 1835SOL    HW1 9293   9.273   5.154   1.557  0.3231  0.0964 -0.9395
 1835SOL    HW2 9294   9.198   5.041   1.490 -0.7204 -0.7154  1.4680
 1836SOL     OW 9295   1.358   4.615   1.444  0.7329 -0.3600 -0.0731
 1836SOL    HW1 9296   1.414   4.602   1.368  0.6869 -1.7122  0.0955
 1836SOL    HW2 9297   1.288   4.551   1.433  0.3552 -0.1043  0.7602
 1837SOL     OW 9298   2.590   7.691   2.472 -0.1069  0.0918  0.0909
 1837SOL    HW1 9299   2.554   7.617   2.521 -2.0653  0.0664 -1.2621
 1837SOL    HW2 9300   2.538   7.766   2.499  1.3971  0.8792  0.9206
 1838SOL     OW 9301   2.233   5.182   9.901  0.5220 -0.0739  0.3666
 1838SOL    HW1 9302   2.268   5.232   9.827 -1.2837  1.5117  0.5246
 1838SOL    HW2 9303   2.171   5.121   9.861 -0.3830  0.7183  0.5266
 1839SOL     OW 9304   0.099   3.068   2.799 -0.0873  0.2808  0.6289
 1839SOL    HW1 9305   0.181   3.092   2.754  0.7863 -2.5463  0.5120
 1839SOL    HW2 9306   0.031   3.116   2.751  1.0744 -0.6109 -2.1223
 1840SOL     OW 9307   4.688   1.388   7.465 -0.0283  0.0513 -0.4788
 1840SOL    HW1 9308   4.688   1.310   7.521 -0.6322  1.0399  0.9513
 1840SOL    HW2 9309   4.761   1.374   7.405 -0.2629 -1.7121 -0.3954
 1841SOL     OW 9310   2.288   6.866  10.275 -0.0874 -0.3051 -0.3725
 1841SOL    HW1 9311   2.264   6.956  10.253 -1.0411 -0.3680  0.3437
 1841SOL    HW2 9312   2.336   6.834  10.199  0.3411  0.8332 -0.5986
 1842SOL     OW 9313   6.896   2.800   6.827 -0.1886  0.6793 -0.6719
 1842SOL    HW1 9314   6.933   2.721   6.787 -0.5499  0.1651 -0.0147
 1842SOL    HW2 9315   6.965   2.865   6.822  0.8607 -0.2870  0.6326
 1843SOL     OW 9316   1.207   2.252   0.454 -0.2960  0.6284  0.1104
 1843SOL    HW1 9317   1.188   2.174   0.506  2.7524 -0.9957 -0.9654
 1843SOL    HW2 9318   1.157   2.239   0.373 -2.2655  1.4493  1.1136
 1844SOL     OW 9319   4.503   4.626   0.009 -0.1426  0.1016 -0.5871
 1844SOL    HW1 9320   4.471   4.541  -0.020 -1.8144  0.5455 -0.1606
 1844SOL    HW2 9321   4.452   4.690  -0.041  0.2545  0.8608 -0.0549
 1845SOL     OW 9322   7.555   3.460   8.306  0.2528 -0.2637  0.5125
 1845SOL    HW1 9323   7.491   3.523   8.274  0.1970  0.1956  1.5089
 1845SOL    HW2 9324   7.628   3.513   8.339  1.8709 -0.7888 -1.9684
 1846SOL     OW 9325   2.692   7.817   9.305 -0.0168 -0.2382 -0.5105
 1846SOL    HW1 9326   2.753   7.749   9.335  0.7482  0.6152 -0.0823
 1846SOL    HW2 9327   2.615   7.768   9.275  1.8779 -1.5665 -3.7071
 1847SOL     OW 9328   2.400   8.626   0.502 -0.5810  0.1232 -0.1402
 1847SOL    HW1 9329   2.466   8.601   0.436 -0.7024  2.1803 -1.1050
 1847SOL    HW2 9330   2.393   8.548   0.557  2.4201 -0.3343 -0.1840
 1848SOL     OW 9331   7.699   2.271   8.712 -0.2552  0.2738 -0.4993
 1848SOL    HW1 9332   7.667   2.250   8.624  0.1807  2.0469 -1.1197
 1848SOL    HW2 9333   7.660   2.204   8.768  0.6454 -1.8251 -2.2282
 1849SOL     OW 9334   9.683   9.509   6.414  0.5962  0.0535  0.3669
 1849SOL    HW1 9335   9.682   9.504   6.319  0.7986 -1.4197  0.4206
 1849SOL    HW2 9336   9.763   9.558   6.434  0.3979  0.6297 -0.2138
 1850SOL     OW 9337   3.346   1.224   4.075  0.3644 -0.2278  0.5899
 1850SOL    HW1 9338   3.258   1.209   4.109  0.2597  2.0981  1.5044
 1850SOL    HW2 9339   3.333   1.240   3.981 -0.1170 -0.3554  0.6334
 1851SOL     OW 9340   5.263   3.786   9.584 -0.2432  0.4713  0.0607
 1851SOL    HW1 9341   5.358   3.792   9.577  0.1105 -3.0402 -0.0212
 1851SOL    HW2 9342   5.230   3.857   9.528  2.2801  1.9304  0.2960
 1852SOL     OW 9343   1.941   3.505   1.619  0.4025 -0.1379 -0.2485
 1852SOL    HW1 9344   1.889   3.453   1.559  0.0176 -1.0742  0.8595
 1852SOL    HW2 9345   1.980   3.573   1.564 -1.5388  0.2820 -1.2227
 1853SOL     OW 9346   5.202   1.603   6.489  0.7050  0.2388  0.0184
 1853SOL    HW1 9347   5.271   1.595   6.556 -0.2602 -1.7850  0.8709
 1853SOL    HW2 9348   5.125   1.564   6.530 -0.4826  0.8354 -1.5667
 1854SOL     OW 9349   5.079   3.792   6.389 -0.2234 -0.0549  0.6730
 1854SOL    HW1 9350   5.089   3.711   6.339  1.0693  1.0269 -0.9057
 1854SOL    HW2 9351   4.990   3.787   6.424 -1.2635 -0.8317 -1.8690
 1855SOL     OW 9352   6.296   8.982   5.188  0.1076  0.0069  0.1503
 1855SOL    HW1 9353   6.288   8.912   5.124  2.0877 -0.1140 -0.0318
 1855SOL    HW2 9354   6.300   8.937   5.273  2.3894 -0.2777 -0.0259
 1856SOL     OW 9355   1.236   6.158   0.909  0.1055 -0.8135  0.0933
 1856SOL    HW1 9356   1.266   6.098   0.842 -0.3620 -0.5214 -0.3838
 1856SOL    HW2 9357   1.217   6.102   0.985  0.1760 -1.1985 -0.1726
 1857SOL     OW 9358   8.691   4.073   0.449  0.0958 -0.1496 -0.0674
 1857SOL    HW1 9359   8.686   4.078   0.353  0.7016  2.0212 -0.0509
 1857SOL    HW2 9360   8.673   4.163   0.478 -0.4080 -0.8358  1.8860
 1858SOL     OW 9361   3.769   1.573   7.746  0.8510  0.0367 -0.3002
 1858SOL    HW1 9362   3.702   1.548   7.811 -0.1370  1.1484 -0.8580
 1858SOL    HW2 9363   3.832   1.501   7.749 -0.0049 -0.7181  0.7482
 1859SOL     OW 9364   5.351   5.968   7.900  0.2652  0.0834  0.1777
 1859SOL    HW1 9365   5.442   5.969   7.929 -0.1837  0.3280  1.6969
 1859SOL    HW2 9366   5.334   5.877   7.876  0.8524  0.0006  0.0659
 1860SOL     OW 9367   5.802   2.039   3.914  0.1886 -0.4917 -0.5304
 1860SOL    HW1 9368   5.871   2.010   3.974  0.6583 -0.7196 -1.1791
 1860SOL    HW2 9369   5.755   1.959   3.890 -1.0837 -0.2116  0.8329
 1861SOL     OW 9370   5.182   9.037   3.269 -0.1779  0.0248 -0.4720
 1861SOL    HW1 9371   5.248   8.994   3.215  0.2370  1.9335 -1.5540
 1861SOL    HW2 9372   5.113   8.971   3.279  0.9791 -1.3195 -0.9647
 1862SOL     OW 9373   8.115   7.905   8.198  0.1602 -0.2978 -0.2609
 1862SOL    HW1 9374   8.125   7.974   8.263  1.0682 -0.0870 -0.5976
 1862SOL    HW2 9375   8.059   7.942   8.131  0.6089  0.1072 -0.4179
 1863SOL     OW 9376   5.644   0.519   7.077 -0.2400  0.0153 -0.0883
 1863SOL    HW1 9377   5.623   0.517   6.984 -0.9873  1.6802  0.0257
 1863SOL    HW2 9378   5.604   0.599   7.110  2.1207  0.8023  1.1523
 1864SOL     OW 9379   0.209   8.740   4.964 -0.0519  0.0298  0.2431
 1864SOL    HW1 9380   0.201   8.836   4.962 -1.1960 -0.0177 -2.6916
 1864SOL    HW2 9381   0.119   8.709   4.973  0.3822 -0.8563  2.1347
 1865SOL     OW 9382   4.566   7.739   0.215  0.1586  0.3322 -0.2045
 1865SOL    HW1 9383   4.538   7.669   0.157  0.2465 -0.0791  0.2397
 1865SOL    HW2 9384   4.549   7.820   0.166  0.7885 -0.0236 -1.0363
 1866SOL     OW 9385   9.892   3.680   8.312  0.2087 -0.4160  0.7467
 1866SOL    HW1 9386   9.971   3.685   8.259  0.1010 -1.3493  0.4666
 1866SOL    HW2 9387   9.894   3.591   8.348 -0.7471 -0.4718  0.6763
 1867SOL     OW 9388   1.323   9.851   8.302 -0.2036  0.3400 -0.2455
 1867SOL    HW1 9389   1.250   9.796   8.330  0.8404  0.1672  2.5106
 1867SOL    HW2 9390   1.285   9.915   8.243 -2.6778  0.4470  1.3291
 1868SOL     OW 9391   2.500   1.556   4.902  0.4076  0.2798  0.2221
 1868SOL    HW1 9392   2.476   1.492   4.835  1.0519 -1.3016  1.4341
 1868SOL    HW2 9393   2.527   1.633   4.853  0.0608 -0.5323 -1.3124
 1869SOL     OW 9394   7.897   4.529   7.579  0.1613 -0.0038  0.3983
 1869SOL    HW1 9395   7.884   4.617   7.543  1.0799  0.0778  0.2614
 1869SOL    HW2 9396   7.833   4.475   7.534 -0.4694  0.6052  0.5386
 1870SOL     OW 9397   9.626   7.786   1.768  0.5101 -0.3248  0.3146
 1870SOL    HW1 9398   9.570   7.755   1.840  0.2478 -0.3325  0.1100
 1870SOL    HW2 9399   9.568   7.785   1.692  0.8797 -0.6226  0.0395
 1871SOL     OW 9400   3.093   2.598   6.583 -0.3011  0.1566 -0.6005
 1871SOL    HW1 9401   3.062   2.673   6.635 -0.5139 -0.5376  0.2972
 1871SOL    HW2 9402   3.037   2.525   6.609  1.3834 -0.8843  0.3226
 1872SOL     OW 9403   1.507   7.812   4.559 -0.0233 -0.6553 -0.0077
 1872SOL    HW1 9404   1.536   7.902   4.578  0.0252 -0.5606 -0.4951
 1872SOL    HW2 9405   1.539   7.796   4.470  0.4250 -1.3527  0.2693
 1873SOL     OW 9406   1.436   4.605   6.362  0.2283  0.2752 -0.4138
 1873SOL    HW1 9407   1.393   4.629   6.280  1.2472  0.3281 -0.9515
 1873SOL    HW2 9408   1.402   4.518   6.383  0.0088  0.2344 -0.9256
 1874SOL     OW 9409   0.149   9.968   5.932 -0.0169 -0.4028  0.2219
 1874SOL    HW1 9410   0.183  10.058   5.931 -1.7497  0.2987  0.8388
 1874SOL    HW2 9411   0.128   9.952   6.024 -1.7421 -0.6221 -0.1953
 1875SOL     OW 9412   8.891   5.668   9.944  0.0185 -0.1836  0.6880
 1875SOL    HW1 9413   8.909   5.576   9.927 -2.7415 -0.6109 -0.4063
 1875SOL    HW2 9414   8.806   5.685   9.903 -0.9754  2.1056  3.2826
 1876SOL     OW 9415   6.800   3.697   6.880  0.2431 -0.1061 -0.2708
 1876SOL    HW1 9416   6.826   3.643   6.805  2.4810 -0.5698  0.7858
 1876SOL    HW2 9417   6.877   3.749   6.900 -0.7819  1.0259  0.8790
 1877SOL     OW 9418   7.756  10.121   6.802  0.1207 -0.0159 -1.0087
 1877SOL    HW1 9419   7.767  10.090   6.712  2.1222 -1.4343 -0.3638
 1877SOL    HW2 9420   7.835  10.172   6.820  0.3722 -0.8228  0.3169
 1878SOL     OW 9421   7.497   6.047   3.806  0.0995 -0.6864 -0.5565
 1878SOL    HW1 9422   7.571   6.107   3.817 -0.2119 -0.2246 -0.9702
 1878SOL    HW2 9423   7.487   6.039   3.711 -0.4246 -0.7028 -0.4992
 1879SOL     OW 9424   3.254   1.985   9.583  0.2177  0.0030  0.3010
 1879SOL    HW1 9425   3.288   2.018   9.666  1.7192 -1.3019  0.2545
 1879SOL    HW2 9426   3.332   1.962   9.533 -0.6976 -0.2002 -1.0640
 1880SOL     OW 9427   7.863   1.164   5.813 -0.1254 -0.6409  0.0053
 1880SOL    HW1 9428   7.808   1.174   5.735 -0.5088 -1.1342  0.2090
 1880SOL    HW2 9429   7.807   1.120   5.877  0.5038 -1.1533  0.2168
 1881SOL     OW 9430   7.469   8.708   3.145 -0.3327 -0.6832 -0.0714
 1881SOL    HW1 9431   7.457   8.747   3.232  0.6827  1.1597 -0.6925
 1881SOL    HW2 9432   7.386   8.665   3.126 -0.9065 -0.2769  1.4219
 1882SOL     OW 9433   8.347   9.335   0.474  0.1077  0.0604 -0.5646
 1882SOL    HW1 9434   8.386   9.352   0.388  1.3741 -0.0325 -0.0312
 1882SOL    HW2 9435   8.421   9.336   0.534 -0.8220  0.6708  0.6137
 1883SOL     OW 9436   1.283   5.998   5.684 -0.0040  0.4088  0.4177
 1883SOL    HW1 9437   1.262   5.936   5.755  0.8815  1.1200  1.3317
 1883SOL    HW2 9438   1.240   6.079   5.710 -0.7143  0.3417 -0.5090
 1884SOL     OW 9439   1.860   9.224   8.505  0.3033 -0.3385 -0.3613
 1884SOL    HW1 9440   1.819   9.185   8.583 -0.2552  1.1513  0.1249
 1884SOL    HW2 9441   1.947   9.250   8.535  0.6274 -1.0685 -0.6507
 1885SOL     OW 9442   7.052   9.802   0.927  0.2601  0.1128  0.1803
 1885SOL    HW1 9443   7.115   9.787   0.997  1.9496 -0.3433 -1.3515
 1885SOL    HW2 9444   7.089   9.756   0.852 -2.4012 -0.9974 -0.5765
 1886SOL     OW 9445   2.346   9.779   0.414  0.3630  0.0375  0.8969
 1886SOL    HW1 9446   2.349   9.776   0.509 -1.4790 -3.2320  0.9790
 1886SOL    HW2 9447   2.348   9.688   0.386  0.5116  0.8627 -2.2204
 1887SOL     OW 9448   8.422   4.028   5.582  0.1381 -0.0370 -0.5456
 1887SOL    HW1 9449   8.483   3.967   5.541  1.6103  0.9345  0.1416
 1887SOL    HW2 9450   8.388   3.980   5.658  1.6624  0.1352  0.2805
 1888SOL     OW 9451   8.313   3.561   8.413 -0.3836 -0.1642 -0.2663
 1888SOL    HW1 9452   8.349   3.473   8.425 -0.6574 -0.2504 -0.0488
 1888SOL    HW2 9453   8.281   3.561   8.322 -1.7508 -0.8166  0.1793
 1889SOL     OW 9454   9.179   3.029   0.386  0.0822  0.1114  0.2404
 1889SOL    HW1 9455   9.095   3.060   0.419  0.0834  0.1821  0.1785
 1889SOL    HW2 9456   9.203   2.956   0.443  0.5980  0.9072  1.0800
 1890SOL     OW 9457   4.313   5.243   9.318 -0.2358  0.1028 -0.6135
 1890SOL    HW1 9458   4.284   5.300   9.247 -0.6159  0.2480 -0.3442
 1890SOL    HW2 9459   4.315   5.299   9.395 -0.0775 -0.1164 -0.4570
 1891SOL     OW 9460   7.269   4.154  10.359 -0.5530 -0.2440 -0.5264
 1891SOL    HW1 9461   7.302   4.068  10.335  1.9138  0.5345 -0.2019
 1891SOL    HW2 9462   7.346   4.211  10.357 -1.6137  1.4359  1.7359
 1892SOL     OW 9463   5.014   0.235   8.389  0.3970 -0.6206  0.0371
 1892SOL    HW1 9464   5.015   0.305   8.454  1.7256 -0.1043 -0.5192
 1892SOL    HW2 9465   5.088   0.253   8.332  0.1112 -1.8724 -0.7788
 1893SOL     OW 9466   9.756   2.747   7.466 -0.1618 -0.3227  0.0059
 1893SOL    HW1 9467   9.807   2.679   7.510 -0.1302 -0.9343 -0.9610
 1893SOL    HW2 9468   9.667   2.735   7.500  0.4865  1.5695  2.6924
 1894SOL     OW 9469   7.266   5.394   5.137  0.4803  0.2211 -0.2321
 1894SOL    HW1 9470   7.305   5.327   5.194  0.7051  0.3589 -0.2210
 1894SOL    HW2 9471   7.331   5.408   5.068  0.4786  0.4906 -0.1836
 1895SOL     OW 9472   2.963   9.125   0.233  0.4106 -0.2599 -0.3148
 1895SOL    HW1 9473   2.874   9.156   0.249  0.1912 -0.8320 -0.4152
 1895SOL    HW2 9474   3.016   9.166   0.301 -0.1238 -0.8464  0.4637
 1896SOL     OW 9475   2.785   9.098   5.882 -0.0638 -0.6975  0.5792
 1896SOL    HW1 9476   2.700   9.125   5.917  0.1008  1.3445 -0.4402
 1896SOL    HW2 9477   2.795   9.007   5.910 -2.3815 -0.8505  1.1012
 1897SOL     OW 9478   8.657   1.404   2.256  0.1886  0.0766  0.2595
 1897SOL    HW1 9479   8.610   1.321   2.265  0.7544 -0.3025 -0.2231
 1897SOL    HW2 9480   8.593   1.470   2.282 -1.3923 -0.2217 -2.5050
 1898SOL     OW 9481   8.614   7.206   7.982  0.4837  0.2213 -0.4860
 1898SOL    HW1 9482   8.683   7.167   8.036  0.3822  1.7374  0.8412
 1898SOL    HW2 9483   8.643   7.296   7.967 -0.6409  0.5289 -0.9262
 1899SOL     OW 9484   5.525   9.597   7.962  0.0145  0.0331  0.7714
 1899SOL    HW1 9485   5.616   9.623   7.980  0.6198 -0.4966 -1.2634
 1899SOL    HW2 9486   5.500   9.544   8.038  1.7148 -0.5128  0.9962
 1900SOL     OW 9487   8.144   9.149   0.011  0.1273 -0.2761  0.1769
 1900SOL    HW1 9488   8.216   9.098  -0.026 -0.7713  0.4234 -2.7540
 1900SOL    HW2 9489   8.122   9.102   0.092  3.3542 -0.8861  0.8690
 1901SOL     OW 9490   2.307   3.861   6.309 -0.5240  0.5730 -0.4937
 1901SOL    HW1 9491   2.359   3.893   6.235 -0.4783  2.2328  0.2137
 1901SOL    HW2 9492   2.233   3.921   6.314 -0.8281  0.1418  0.4547
 1902SOL     OW 9493   0.554   0.795   8.239  0.1139  0.2649  0.3023
 1902SOL    HW1 9494   0.579   0.846   8.316  0.8233  0.6473 -0.1693
 1902SOL    HW2 9495   0.459   0.807   8.232  0.2269  1.2874  0.3691
 1903SOL     OW 9496   2.854   0.860   0.235 -0.8086 -0.0011  0.4109
 1903SOL    HW1 9497   2.862   0.806   0.313 -2.7089  0.3297  0.8910
 1903SOL    HW2 9498   2.801   0.808   0.174  1.3007 -0.5876 -1.0361
 1904SOL     OW 9499   9.816   8.599   7.232 -0.1223  0.5361  0.1208
 1904SOL    HW1 9500   9.755   8.604   7.305 -0.2457 -0.9023  0.1445
 1904SOL    HW2 9501   9.903   8.610   7.272 -0.0920 -1.3794  0.7053
 1905SOL     OW 9502   6.126   4.698   3.431 -0.1737 -0.2027  0.1823
 1905SOL    HW1 9503   6.199   4.638   3.446  1.8211  2.4754  2.1356
 1905SOL    HW2 9504   6.161   4.763   3.370 -1.4180  0.3262  0.0142
 1906SOL     OW 9505   4.851   0.326   5.485  0.2107  0.3296 -0.9414
 1906SOL    HW1 9506   4.760   0.317   5.512  0.5172  0.5300  0.2324
 1906SOL    HW2 9507   4.872   0.242   5.442  0.2717 -0.9030  1.3155
 1907SOL     OW 9508   3.231   8.265  10.268 -0.2163 -0.0796  0.3755
 1907SOL    HW1 9509   3.169   8.203  10.229 -0.0937  0.4446 -0.6931
 1907SOL    HW2 9510   3.311   8.214  10.282 -0.0239 -0.1224 -0.7566
 1908SOL     OW 9511   4.533   1.869   4.986 -0.3663 -0.3579 -0.6348
 1908SOL    HW1 9512   4.555   1.926   5.060  0.6519 -0.5082 -0.8120
 1908SOL    HW2 9513   4.536   1.781   5.022 -1.2618 -0.3554 -0.5294
 1909SOL     OW 9514   5.444   4.255   4.221 -0.2723 -0.5783 -0.2621
 1909SOL    HW1 9515   5.382   4.305   4.273  1.1843  0.1661  0.8152
 1909SOL    HW2 9516   5.421   4.164   4.238 -1.1490 -0.3197  0.0009
 1910SOL     OW 9517   8.291   1.976   4.405 -0.1242  0.3875 -0.0844
 1910SOL    HW1 9518   8.339   2.051   4.368  0.3461 -0.8696 -2.2215
 1910SOL    HW2 9519   8.201   1.988   4.375 -0.5524  1.2433  1.4855
 1911SOL     OW 9520   9.984   9.377   3.993 -0.3138 -0.7009 -0.0609
 1911SOL    HW1 9521   9.962   9.387   3.900  0.1327  2.6050  0.0645
 1911SOL    HW2 9522  10.077   9.355   3.994 -0.2855 -0.6044 -0.4040
 1912SOL     OW 9523   3.493   2.644   6.594 -0.5198 -0.2722 -0.1354
 1912SOL    HW1 9524   3.585   2.642   6.620 -1.3225  1.1663  3.3890
 1912SOL    HW2 9525   3.462   2.555   6.611  0.0085 -0.5687 -0.6476
 1913SOL     OW 9526  10.205   3.579   6.874 -0.2795 -0.2184  0.3476
 1913SOL    HW1 9527  10.273   3.644   6.890 -1.6465  1.8927 -1.8356
 1913SOL    HW2 9528  10.253   3.499   6.853  1.4741  0.5968  1.0371
 1914SOL     OW 9529   2.482   3.848   8.164  0.9192 -0.4941 -0.3135
 1914SOL    HW1 9530   2.403   3.795   8.168  1.2739 -1.1093 -1.1663
 1914SOL    HW2 9531   2.475   3.896   8.081  1.4118 -0.5178 -0.3730
 1915SOL     OW 9532   0.899   6.505   0.100 -0.2137 -0.0699 -0.4639
 1915SOL    HW1 9533   0.888   6.547   0.015 -1.6186 -0.9177 -0.7454
 1915SOL    HW2 9534   0.809   6.496   0.133  0.0618 -2.4205 -0.2376
 1916SOL     OW 9535   6.536   8.354   4.222  0.3737 -0.5460 -0.3737
 1916SOL    HW1 9536   6.568   8.416   4.156  0.7049  0.5105  0.7493
 1916SOL    HW2 9537   6.487   8.289   4.171  0.7894  0.1231 -1.6824
 1917SOL     OW 9538   3.264   9.060   9.840 -0.1711 -0.2226  0.5182
 1917SOL    HW1 9539   3.253   9.027   9.929  1.3571 -2.0763  0.0774
 1917SOL    HW2 9540   3.256   8.983   9.784  2.2933  0.2765 -0.6687
 1918SOL     OW 9541   4.040   0.856   1.726  0.0363 -0.0572  0.3112
 1918SOL    HW1 9542   3.988   0.872   1.647  0.3303  2.3992  0.5486
 1918SOL    HW2 9543   3.982   0.879   1.798  0.9130  1.2401  0.6351
 1919SOL     OW 9544   7.788   5.857   2.267  0.0445  0.0795  0.4350
 1919SOL    HW1 9545   7.713   5.831   2.213  0.7982 -1.6483  0.1238
 1919SOL    HW2 9546   7.861   5.806   2.231  1.2563  1.3143  1.0654
 1920SOL     OW 9547   0.640   9.566   1.658 -0.1009 -0.7120 -0.3085
 1920SOL    HW1 9548   0.700   9.623   1.704 -0.3633 -1.4684  1.0388
 1920SOL    HW2 9549   0.678   9.479   1.666 -1.4667 -1.2545  0.8174
 1921SOL     OW 9550   4.282   0.738   0.440  0.2005  0.1027 -0.3983
 1921SOL    HW1 9551   4.271   0.685   0.519 -0.6268 -1.2917 -1.4214
 1921SOL    HW2 9552   4.194   0.744   0.402  0.3876  1.7006 -0.6475
 1922SOL     OW 9553   4.523   7.620   2.476  0.3540 -0.1973 -0.4222
 1922SOL    HW1 9554   4.610   7.621   2.434 -0.0942 -0.2655 -1.3813
 1922SOL    HW2 9555   4.474   7.555   2.426  0.0969 -0.9938  0.8542
 1923SOL     OW 9556   0.361   2.146   3.242  0.0329  0.2029 -0.5399
 1923SOL    HW1 9557   0.361   2.241   3.230  1.1212  0.0321 -2.2321
 1923SOL    HW2 9558   0.445   2.127   3.284 -0.5677  0.0446  0.6397
 1924SOL     OW 9559   4.181   6.047   4.950  0.3271  0.3582 -0.0158
 1924SOL    HW1 9560   4.215   6.098   4.877 -2.3428  2.7394  0.1973
 1924SOL    HW2 9561   4.096   6.016   4.920 -1.3403  2.2990  2.2800
 1925SOL     OW 9562   5.796   2.194   4.543 -0.4607 -0.7575 -0.0001
 1925SOL    HW1 9563   5.857   2.141   4.594  0.6245  0.3757 -0.0726
 1925SOL    HW2 9564   5.730   2.222   4.606  0.9500  0.7608  0.8950
 1926SOL     OW 9565   2.591   5.366   6.656 -1.0017  0.2501 -0.2195
 1926SOL    HW1 9566   2.670   5.361   6.602 -1.5297  1.9396 -1.2050
 1926SOL    HW2 9567   2.521   5.338   6.598 -1.0256 -2.7912  1.1020
 1927SOL     OW 9568   9.340   2.250   8.012 -0.7182  0.1551  0.3530
 1927SOL    HW1 9569   9.390   2.192   7.955 -1.7061 -1.3534  0.9567
 1927SOL    HW2 9570   9.386   2.246   8.096 -0.8510  0.1600  0.4258
 1928SOL     OW 9571   9.138   1.561   3.178  0.2493 -0.2091 -0.3862
 1928SOL    HW1 9572   9.098   1.609   3.251 -0.1161  0.4582 -1.0085
 1928SOL    HW2 9573   9.135   1.623   3.104  0.2498 -1.0079 -1.0710
 1929SOL     OW 9574   7.863  10.065   5.375  0.2495  0.4414  0.2690
 1929SOL    HW1 9575   7.943  10.111   5.400 -0.2931  1.0216  1.0060
 1929SOL    HW2 9576   7.883  10.025   5.291  1.0011  1.3563 -0.0021
 1930SOL     OW 9577   1.643   3.405   3.120  0.2354 -0.2735  0.1713
 1930SOL    HW1 9578   1.666   3.315   3.142  3.0761  0.3054 -0.0723
 1930SOL    HW2 9579   1.548   3.405   3.114  0.1807 -3.3788 -0.3593
 1931SOL     OW 9580   5.448   6.675   9.568  0.0322  0.2199  0.3942
 1931SOL    HW1 9581   5.536   6.679   9.532 -0.7168  1.7206 -1.4584
 1931SOL    HW2 9582   5.454   6.714   9.654  1.1613  0.3917  0.2424
 1932SOL     OW 9583   0.855  10.032   4.890 -0.3641  0.1147  0.2351
 1932SOL    HW1 9584   0.827  10.091   4.960  1.8384 -0.2855  1.5486
 1932SOL    HW2 9585   0.804   9.952   4.905 -1.4708  0.7700  0.0407
 1933SOL     OW 9586   5.234   6.039   3.776  0.3127  0.0502  0.2332
 1933SOL    HW1 9587   5.173   6.055   3.848 -0.0605 -0.3805  0.0195
 1933SOL    HW2 9588   5.276   6.124   3.761 -0.7149  0.5263 -0.0515
 1934SOL     OW 9589   8.294   0.613  10.137 -0.3164  0.4881 -0.3821
 1934SOL    HW1 9590   8.340   0.686  10.179  2.2099 -1.2603  0.1375
 1934SOL    HW2 9591   8.274   0.644  10.049  1.2439  1.6595 -0.3683
 1935SOL     OW 9592   6.040   4.614  10.126 -0.3839  0.2813 -0.0309
 1935SOL    HW1 9593   6.130   4.644  10.115  0.3825 -1.9351 -0.4039
 1935SOL    HW2 9594   6.029   4.608  10.221  0.9297 -2.1169  0.0627
 1936SOL     OW 9595   3.148   0.147   4.134 -0.2394 -0.2534  0.1476
 1936SOL    HW1 9596   3.189   0.091   4.068  0.3121  0.7836 -0.4268
 1936SOL    HW2 9597   3.200   0.228   4.132 -2.7564  1.4664 -1.1894
 1937SOL     OW 9598   0.634   4.919   5.101  0.4590  0.1235  0.2910
 1937SOL    HW1 9599   0.635   4.980   5.174 -0.4234  0.0720  0.3513
 1937SOL    HW2 9600   0.576   4.959   5.036 -0.4253 -0.8150  0.4832
 1938SOL     OW 9601   3.682   3.990   7.496  0.0782 -0.1147  0.1325
 1938SOL    HW1 9602   3.646   4.037   7.570  0.0992 -0.5782  0.4416
 1938SOL    HW2 9603   3.631   4.021   7.421  0.3309  0.6530  0.2738
 1939SOL     OW 9604   8.251   9.539   1.785 -0.1695 -0.3872 -0.1077
 1939SOL    HW1 9605   8.323   9.477   1.802 -1.8150 -2.3341  0.1556
 1939SOL    HW2 9606   8.202   9.542   1.868 -0.8318  0.3148 -0.5165
 1940SOL     OW 9607   5.048   0.535   0.723  0.0042 -0.1094 -0.6946
 1940SOL    HW1 9608   5.138   0.502   0.725 -0.3215 -1.1625 -2.0789
 1940SOL    HW2 9609   5.057   0.630   0.736  1.3115 -0.1750 -0.9634
 1941SOL     OW 9610   1.561   1.451   5.728  0.1289  0.2661  0.2913
 1941SOL    HW1 9611   1.600   1.489   5.649  2.3514  0.0158  1.1879
 1941SOL    HW2 9612   1.536   1.362   5.701 -2.7707  1.3515 -1.1098
 1942SOL     OW 9613   4.789   9.882   6.174  0.0736  0.0605 -0.0310
 1942SOL    HW1 9614   4.820   9.901   6.263  0.8447 -0.2708 -0.2205
 1942SOL    HW2 9615   4.851   9.927   6.117  0.0515 -0.3889 -0.4134
 1943SOL     OW 9616   9.376   0.447   7.558 -0.1683 -0.2275  0.3529
 1943SOL    HW1 9617   9.440   0.378   7.573 -0.2355 -0.9191 -2.1523
 1943SOL    HW2 9618   9.298   0.418   7.606  0.1084 -1.4210  0.0995
 1944SOL     OW 9619   0.182  10.006   0.695  0.3103 -0.0289  0.9948
 1944SOL    HW1 9620   0.126  10.041   0.763  1.2819  0.7317  1.4382
 1944SOL    HW2 9621   0.180   9.911   0.707 -0.6670  0.0055  1.1439
 1945SOL     OW 9622   1.934   5.986   4.054  0.4252  0.0725 -0.5140
 1945SOL    HW1 9623   1.971   5.898   4.042  1.3814  0.1796  1.2871
 1945SOL    HW2 9624   1.892   5.983   4.140  2.0312  1.8477  0.4099
 1946SOL     OW 9625   3.631   2.736   6.056 -0.2309 -0.4408  0.7370
 1946SOL    HW1 9626   3.712   2.779   6.031  0.0272 -0.9907  0.6121
 1946SOL    HW2 9627   3.631   2.737   6.152 -1.4837  2.1648  0.7974
 1947SOL     OW 9628   6.886   5.132   5.939  0.0850 -0.1130 -0.2611
 1947SOL    HW1 9629   6.824   5.060   5.932 -0.8422  0.3409  2.2625
 1947SOL    HW2 9630   6.832   5.210   5.950  1.0921  0.6071 -0.2394
 1948SOL     OW 9631   6.575   7.806   6.961 -0.1302 -0.5370 -0.1994
 1948SOL    HW1 9632   6.559   7.775   7.051 -1.2954 -0.5783 -0.4044
 1948SOL    HW2 9633   6.559   7.900   6.966 -1.6342 -0.7455 -0.6532
 1949SOL     OW 9634   6.239   7.101   9.952 -0.1778  0.0070 -0.7173
 1949SOL    HW1 9635   6.261   7.057   9.870  1.6772 -0.5716  0.0396
 1949SOL    HW2 9636   6.294   7.059  10.018 -2.7179 -0.6011  1.1644
 1950SOL     OW 9637   1.175   3.811   6.174  0.0042  0.0959  0.3746
 1950SOL    HW1 9638   1.269   3.801   6.156 -0.3846 -0.7512 -1.4852
 1950SOL    HW2 9639   1.137   3.727   6.146 -1.1346 -0.2285  2.6919
 1951SOL     OW 9640   9.349   1.877   9.938  0.2493 -0.1690 -0.3217
 1951SOL    HW1 9641   9.282   1.940   9.911  0.7860  0.3744 -0.4054
 1951SOL    HW2 9642   9.307   1.791   9.930  0.7105 -0.1842 -3.9893
 1952SOL     OW 9643   5.104   8.868   8.593  0.6065  0.1286  0.1980
 1952SOL    HW1 9644   5.110   8.881   8.688 -1.2283 -3.4409  1.0003
 1952SOL    HW2 9645   5.013   8.888   8.572  0.1313 -2.1420 -0.1227
 1953SOL     OW 9646   2.710   3.144   8.216 -0.3186 -0.4050 -0.0795
 1953SOL    HW1 9647   2.659   3.167   8.294  1.8949 -0.1771  1.4039
 1953SOL    HW2 9648   2.709   3.224   8.163 -0.4337  0.0266  0.5539
 1954SOL     OW 9649   6.911   0.027   4.869 -0.0076  0.1926  0.1341
 1954SOL    HW1 9650   6.847   0.051   4.936 -0.0333  0.3022  0.0692
 1954SOL    HW2 9651   6.992   0.068   4.898 -0.0404  0.3191  0.0487
 1955SOL     OW 9652   6.375   5.809   4.303  0.2183 -0.3067 -0.3667
 1955SOL    HW1 9653   6.409   5.898   4.291  0.8786 -0.6811 -1.4816
 1955SOL    HW2 9654   6.422   5.757   4.237 -1.2167 -1.1960 -0.7243
 1956SOL     OW 9655   1.981   8.643   0.570 -0.4205  0.1012  0.0718
 1956SOL    HW1 9656   1.978   8.660   0.664 -0.0347  0.2037  0.0671
 1956SOL    HW2 9657   1.972   8.729   0.529 -0.2933  0.0917  0.0218
 1957SOL     OW 9658   7.549   4.956   7.495  0.8080 -0.0034  0.0525
 1957SOL    HW1 9659   7.630   5.003   7.474  2.8992 -2.2480  2.3557
 1957SOL    HW2 9660   7.526   4.911   7.414  1.9420  0.5750 -0.6153
 1958SOL     OW 9661   3.490   0.494   1.078 -0.7027  0.2738 -0.1959
 1958SOL    HW1 9662   3.434   0.473   1.004 -0.0327  0.5920 -0.8025
 1958SOL    HW2 9663   3.492   0.590   1.080 -2.2554  0.3226  1.4213
 1959SOL     OW 9664   7.221   1.961   0.333  0.1855 -0.0600  0.3323
 1959SOL    HW1 9665   7.226   1.868   0.355  1.2529  0.3190  1.8377
 1959SOL    HW2 9666   7.245   2.007   0.414 -1.6958  1.5796  0.0606
 1960SOL     OW 9667   7.364   3.483   4.159 -0.4259  0.2131  0.2675
 1960SOL    HW1 9668   7.454   3.452   4.154 -0.6930 -0.4376 -0.6930
 1960SOL    HW2 9669   7.371   3.577   4.169  0.3593  0.5553 -2.6814
 1961SOL     OW 9670   2.816   6.664   0.785 -0.3115  0.1248 -0.2620
 1961SOL    HW1 9671   2.726   6.694   0.773  0.1669  1.3275 -0.9855
 1961SOL    HW2 9672   2.857   6.676   0.699  0.5420 -0.4484  0.0460
 1962SOL     OW 9673   3.989   6.601   1.650  0.8808  0.0836  0.4223
 1962SOL    HW1 9674   4.027   6.514   1.636 -2.1904 -1.0721 -2.0929
 1962SOL    HW2 9675   4.052   6.661   1.612  1.3839 -1.4718 -1.3781
 1963SOL     OW 9676   1.140   8.353   2.808  0.3591  0.6646 -0.4833
 1963SOL    HW1 9677   1.179   8.313   2.730  0.3694 -1.8875  0.7514
 1963SOL    HW2 9678   1.046   8.341   2.797  0.4046 -0.4497  0.2523
 1964SOL     OW 9679   9.426   5.924   1.212  0.5348 -0.2051 -0.1604
 1964SOL    HW1 9680   9.417   6.006   1.260 -2.0508 -1.4047  1.6549
 1964SOL    HW2 9681   9.512   5.930   1.170  0.9196  2.9124  0.8133
 1965SOL     OW 9682   9.123   8.249   0.217  0.0476  0.0110 -0.1461
 1965SOL    HW1 9683   9.171   8.191   0.157  0.3286 -0.6490  0.6889
 1965SOL    HW2 9684   9.031   8.226   0.203  0.1692 -0.8955  0.3923
 1966SOL     OW 9685   5.950   0.304   8.319  0.1274  0.2798  0.3499
 1966SOL    HW1 9686   6.033   0.352   8.314  0.1826  0.2528  0.9375
 1966SOL    HW2 9687   5.918   0.321   8.407  0.3274 -1.0403  0.7001
 1967SOL     OW 9688   7.202   6.964   3.603 -0.4456  0.1906 -0.0702
 1967SOL    HW1 9689   7.241   6.889   3.648  0.4081  0.5138 -0.2680
 1967SOL    HW2 9690   7.131   6.992   3.661 -2.4435 -2.2930 -1.1342
 1968SOL     OW 9691   0.331   2.547   3.457 -0.6893  0.0739 -0.1856
 1968SOL    HW1 9692   0.354   2.638   3.439  1.1351  0.4131  3.0061
 1968SOL    HW2 9693   0.236   2.549   3.474 -0.5683  1.5199  0.4574
 1969SOL     OW 9694   6.744   4.944   5.410 -0.0605  0.0561  0.3593
 1969SOL    HW1 9695   6.794   5.011   5.362 -0.3921  0.1773  0.1710
 1969SOL    HW2 9696   6.808   4.900   5.465  0.0972  0.8006  0.7872
 1970SOL     OW 9697   8.530   4.012   3.601 -0.0636  0.2941  0.3189
 1970SOL    HW1 9698   8.500   3.973   3.683 -0.8918 -0.8761 -0.5130
 1970SOL    HW2 9699   8.603   3.957   3.574 -0.0231  0.4567  0.0983
 1971SOL     OW 9700   9.478   9.745  10.264  0.1773 -0.1113 -0.5376
 1971SOL    HW1 9701   9.444   9.818  10.213 -1.6704 -1.1389 -0.8635
 1971SOL    HW2 9702   9.455   9.667  10.214  0.2948 -1.0236  0.7677
 1972SOL     OW 9703   6.139   4.419   2.078 -0.2702  0.1938 -0.2157
 1972SOL    HW1 9704   6.225   4.411   2.118 -0.2004  2.6109  0.2526
 1972SOL    HW2 9705   6.146   4.496   2.022 -2.3046  0.8412  0.3415
 1973SOL     OW 9706   2.710   9.186   0.339 -0.1161 -0.2892 -0.3416
 1973SOL    HW1 9707   2.617   9.164   0.348  0.2495 -1.8910 -0.0521
 1973SOL    HW2 9708   2.733   9.229   0.421  0.2827 -3.5246  1.4197
 1974SOL     OW 9709   5.289   5.784   5.866 -0.2468  0.3822 -0.0884
 1974SOL    HW1 9710   5.384   5.794   5.864 -0.3376  1.1653 -0.9615
 1974SOL    HW2 9711   5.257   5.864   5.909 -0.4908 -0.0719  0.5873
 1975SOL     OW 9712   4.181   7.497   0.909 -0.1509  0.1395 -0.1916
 1975SOL    HW1 9713   4.200   7.404   0.909  1.4410  0.4118 -1.5706
 1975SOL    HW2 9714   4.177   7.521   1.002 -0.0616 -1.1988  0.1759
 1976SOL     OW 9715   6.324  10.337   5.609 -0.0855 -0.2013  0.1397
 1976SOL    HW1 9716   6.324  10.425   5.646  0.0912 -0.0423 -0.2400
 1976SOL    HW2 9717   6.348  10.349   5.517 -3.5754 -0.1876 -0.9354
 1977SOL     OW 9718   4.819   4.152   6.909  0.2600 -0.0872 -0.1081
 1977SOL    HW1 9719   4.848   4.061   6.913 -0.8192 -0.5486 -1.6505
 1977SOL    HW2 9720   4.729   4.149   6.941  0.4207  0.5694  0.4261
 1978SOL     OW 9721   1.513   1.108   9.537  0.0615  0.0446 -0.6640
 1978SOL    HW1 9722   1.423   1.075   9.539  0.3197 -0.6739 -0.6327
 1978SOL    HW2 9723   1.504   1.204   9.534 -0.6934  0.3273  3.8209
 1979SOL     OW 9724   3.000   7.741  10.292  0.5397 -0.3141  0.2148
 1979SOL    HW1 9725   3.064   7.677  10.323  2.3184  0.7464 -1.0790
 1979SOL    HW2 9726   3.047   7.792  10.227 -0.9602  1.9750  0.8064
 1980SOL     OW 9727   8.054   5.143   6.685 -0.5688 -0.0137  0.1844
 1980SOL    HW1 9728   8.083   5.093   6.609 -1.1696 -0.1332  0.0262
 1980SOL    HW2 9729   7.967   5.175   6.660 -0.8332 -0.1794  0.8741
 1981SOL     OW 9730   2.804   0.286   6.460 -0.3021 -0.2962  0.2170
 1981SOL    HW1 9731   2.828   0.378   6.450  0.1778 -0.4863 -0.4875
 1981SOL    HW2 9732   2.795   0.273   6.554 -0.2439  0.4412  0.3269
 1982SOL     OW 9733   1.981   7.888   5.048 -0.7284  0.7780  0.1111
 1982SOL    HW1 9734   1.984   7.982   5.066  0.3708  0.6680  0.5775
 1982SOL    HW2 9735   1.984   7.882   4.953  0.5920  1.2002  0.1010
 1983SOL     OW 9736   2.746   9.077   9.312 -0.4024  0.1069 -0.0818
 1983SOL    HW1 9737   2.796   9.060   9.392  0.4901 -1.6774 -0.9486
 1983SOL    HW2 9738   2.678   9.009   9.312 -1.4639  1.1532 -0.0056
 1984SOL     OW 9739   2.448   0.250   4.626 -0.2188 -0.0992  0.1546
 1984SOL    HW1 9740   2.493   0.224   4.707 -0.7936 -0.6521  0.3030
 1984SOL    HW2 9741   2.422   0.340   4.642  0.2517  0.0118  0.3261
 1985SOL     OW 9742   6.810   0.522   5.053 -0.4590  0.5703 -0.6289
 1985SOL    HW1 9743   6.767   0.522   5.138  0.4649 -1.1691 -0.1191
 1985SOL    HW2 9744   6.740   0.510   4.990 -0.8940 -0.9025  0.0981
 1986SOL     OW 9745   8.800   5.982   4.865 -0.0014 -0.1843  0.2526
 1986SOL    HW1 9746   8.877   5.984   4.808 -0.1611 -0.3872  0.0285
 1986SOL    HW2 9747   8.732   6.029   4.816 -0.3795 -1.0543 -0.0847
 1987SOL     OW 9748   2.272   9.901   1.869  0.3960 -0.1921  0.5393
 1987SOL    HW1 9749   2.296   9.830   1.928  1.0001  1.9793  3.0685
 1987SOL    HW2 9750   2.354   9.946   1.850 -0.1222  0.5258 -0.1018
 1988SOL     OW 9751   4.137  10.266   2.492  0.3978  0.0378 -0.0874
 1988SOL    HW1 9752   4.225  10.283   2.523  0.2907 -0.1568  0.3304
 1988SOL    HW2 9753   4.124  10.172   2.507 -0.5893  0.4140  1.7379
 1989SOL     OW 9754   5.394   7.224   9.603 -0.7892  0.2436  0.0798
 1989SOL    HW1 9755   5.362   7.227   9.694 -1.6319  0.9313 -0.2190
 1989SOL    HW2 9756   5.411   7.132   9.587 -0.2756  0.1525  1.0573
 1990SOL     OW 9757  10.344   2.252   6.672  0.0756 -0.5968 -0.3854
 1990SOL    HW1 9758  10.402   2.180   6.697  0.0058 -1.1104 -1.6236
 1990SOL    HW2 9759  10.256   2.218   6.687  0.0642 -0.3855  0.0244
 1991SOL     OW 9760   4.665   3.661   6.875  0.3379 -0.1922  0.4227
 1991SOL    HW1 9761   4.652   3.685   6.966 -0.8343 -1.9040  0.7589
 1991SOL    HW2 9762   4.686   3.568   6.877 -0.4907 -0.4450 -1.0792
 1992SOL     OW 9763   5.823   8.814   1.778 -0.5727  0.1371 -0.0132
 1992SOL    HW1 9764   5.857   8.862   1.853 -1.0185 -0.0741  0.3289
 1992SOL    HW2 9765   5.881   8.739   1.769 -1.5818 -0.8586  1.2883
 1993SOL     OW 9766   5.600   2.600   1.915 -0.3915 -0.1728  0.2810
 1993SOL    HW1 9767   5.640   2.618   2.000 -1.6380 -1.2170  1.1307
 1993SOL    HW2 9768   5.665   2.548   1.868  0.7670  1.3699  0.1254
 1994SOL     OW 9769   5.532   5.638   1.754 -0.1130 -0.0848 -0.1950
 1994SOL    HW1 9770   5.578   5.572   1.702 -0.5551 -0.6335  0.1008
 1994SOL    HW2 9771   5.449   5.650   1.709  1.4154  3.1921 -2.5641
 1995SOL     OW 9772   0.228   8.254   1.468  0.1980 -0.2546  0.0135
 1995SOL    HW1 9773   0.322   8.273   1.468  0.4906 -1.5703 -0.1896
 1995SOL    HW2 9774   0.215   8.199   1.546 -0.2888 -0.5836 -0.2943
 1996SOL     OW 9775   4.947   4.447   6.135  0.1539 -0.2055 -0.5677
 1996SOL    HW1 9776   4.944   4.540   6.110  0.1000  0.2611  1.0592
 1996SOL    HW2 9777   4.952   4.448   6.231  2.0167 -1.8721 -0.5874
 1997SOL     OW 9778   0.263   5.545   9.912  0.7463  0.2221  0.2015
 1997SOL    HW1 9779   0.235   5.636   9.898 -0.0850  0.0982  0.9898
 1997SOL    HW2 9780   0.285   5.542  10.005  3.8165  0.4142 -0.4044
 1998SOL     OW 9781   7.221   7.032   1.670  0.1886  0.0302 -0.1995
 1998SOL    HW1 9782   7.240   6.966   1.603  1.6343  1.3746 -1.1897
 1998SOL    HW2 9783   7.255   7.114   1.633 -0.0757  1.0409  1.6816
 1999SOL     OW 9784   6.605   9.312   1.159 -0.0898 -0.2329 -0.4061
 1999SOL    HW1 9785   6.561   9.284   1.079 -1.0160  0.6723 -0.2312
 1999SOL    HW2 9786   6.632   9.230   1.202 -1.8981 -0.8319 -0.3514
 2000SOL     OW 9787   9.182   1.335   3.037  0.5399  0.0313  0.4863
 2000SOL    HW1 9788   9.163   1.417   3.082  0.5908  0.3575 -0.0705
 2000SOL    HW2 9789   9.109   1.278   3.058 -0.9463  1.1435 -1.3406
 2001SOL     OW 9790   0.862   5.133   5.476  0.6437 -0.3704  0.0386
 2001SOL    HW1 9791   0.941   5.185   5.462  0.6016  0.6347  2.7804
 2001SOL    HW2 9792   0.886   5.045   5.450  2.9410 -0.2294  1.4066
 2002SOL     OW 9793   7.496   9.846   6.494  0.3117  0.3005  0.3542
 2002SOL    HW1 9794   7.533   9.873   6.410 -0.9277  0.8153 -0.0381
 2002SOL    HW2 9795   7.563   9.789   6.532  0.8861  0.0503 -0.9796
 2003SOL     OW 9796   4.063   3.943   7.275 -0.1843 -0.1187 -0.2821
 2003SOL    HW1 9797   4.125   4.007   7.310 -1.0880  0.7566 -0.2626
 2003SOL    HW2 9798   3.987   3.948   7.332 -1.1991  0.4740 -1.6489
 2004SOL     OW 9799   4.990   9.882   6.473 -0.0757 -0.0195  0.1187
 2004SOL    HW1 9800   4.980   9.957   6.414 -0.9946 -0.6266 -0.5328
 2004SOL    HW2 9801   5.073   9.897   6.519 -0.6711  1.8357  0.6566
 2005SOL     OW 9802   5.730   4.393   3.962 -0.5881 -0.3758  0.6249
 2005SOL    HW1 9803   5.638   4.395   3.937 -0.2296 -1.5649 -1.0005
 2005SOL    HW2 9804   5.768   4.324   3.907  1.1527 -0.3146  1.6694
 2006SOL     OW 9805   1.153   5.583   0.664  0.3542  0.6074  0.6246
 2006SOL    HW1 9806   1.173   5.667   0.706  2.3867 -0.9960  3.1883
 2006SOL    HW2 9807   1.216   5.522   0.703 -0.8575 -2.0708 -1.3498
 2007SOL     OW 9808   0.851   3.363   4.206  0.4032  0.3860  0.7851
 2007SOL    HW1 9809   0.884   3.291   4.153  0.3083  0.5958  0.4394
 2007SOL    HW2 9810   0.761   3.339   4.227 -0.9417  2.0385 -2.4059
 2008SOL     OW 9811   0.239   0.392   9.506 -0.5292  0.0388 -0.1378
 2008SOL    HW1 9812   0.176   0.328   9.475 -0.7801  1.0573 -1.8607
 2008SOL    HW2 9813   0.239   0.382   9.601  0.2615 -3.2580 -0.3552
 2009SOL     OW 9814   4.368   1.830   7.945 -0.3631 -0.3201  0.1014
 2009SOL    HW1 9815   4.304   1.886   7.990 -0.4762 -1.1342  0.9809
 2009SOL    HW2 9816   4.431   1.892   7.908 -0.0670  0.3908  1.7004
 2010SOL     OW 9817   3.453   7.309   3.541  0.1595  0.2113 -0.2720
 2010SOL    HW1 9818   3.479   7.232   3.491 -0.6858 -0.3463  0.1265
 2010SOL    HW2 9819   3.490   7.383   3.492  0.8853 -0.4285 -0.7148
 2011SOL     OW 9820   9.444   9.277   0.192  0.2093  0.2716  0.2371
 2011SOL    HW1 9821   9.525   9.230   0.213 -0.0617  0.1086  0.9397
 2011SOL    HW2 9822   9.472   9.346   0.132  0.8699  0.2154  0.4704
 2012SOL     OW 9823   4.394   1.253   8.326 -0.2388 -0.2474  0.6232
 2012SOL    HW1 9824   4.327   1.219   8.267 -0.5134 -0.6713  1.1713
 2012SOL    HW2 9825   4.477   1.225   8.286 -0.4642 -2.4026  1.5062
 2013SOL     OW 9826   8.474   0.855   6.444 -0.8244 -0.2765 -0.8191
 2013SOL    HW1 9827   8.515   0.889   6.524 -0.9477  0.0123 -0.8759
 2013SOL    HW2 9828   8.380   0.869   6.457 -1.0160 -1.8749 -0.2509
 2014SOL     OW 9829   9.095   0.934   1.140 -0.0519  0.2080  0.0481
 2014SOL    HW1 9830   9.110   0.975   1.055  0.3941 -1.6642 -0.8418
 2014SOL    HW2 9831   9.071   1.006   1.198 -0.3127  1.5488 -1.6417
 2015SOL     OW 9832   4.233   8.996   3.343 -0.2814 -0.1685 -0.6269
 2015SOL    HW1 9833   4.306   9.058   3.349 -0.2911 -0.2610  1.3502
 2015SOL    HW2 9834   4.272   8.912   3.367 -0.8438 -0.3883 -0.4724
 2016SOL     OW 9835   4.021   7.239   2.780  0.4158  0.3796  0.5210
 2016SOL    HW1 9836   3.992   7.178   2.712  0.1670  1.4953 -0.3864
 2016SOL    HW2 9837   3.953   7.232   2.848 -1.5208  2.1707 -1.1122
 2017SOL     OW 9838   2.861   7.189   3.730  0.9930 -0.1750  0.3320
 2017SOL    HW1 9839   2.921   7.257   3.760 -0.0528  1.0412 -0.2263
 2017SOL    HW2 9840   2.777   7.234   3.718  1.0245 -0.7610 -3.2439
 2018SOL     OW 9841   3.699   2.129   4.637 -0.2243  0.1621  0.2836
 2018SOL    HW1 9842   3.744   2.067   4.580 -1.0651  0.9394 -1.3054
 2018SOL    HW2 9843   3.762   2.200   4.650 -0.2363  0.2808 -0.2486
 2019SOL     OW 9844   8.781   5.493   7.959  0.3282  0.2907 -0.0568
 2019SOL    HW1 9845   8.803   5.451   8.042 -1.0005 -2.4058 -0.9720
 2019SOL    HW2 9846   8.710   5.553   7.982 -0.6890 -1.1267  0.6624
 2020SOL     OW 9847   1.736   9.938   4.565 -0.2281  0.6620 -0.1550
 2020SOL    HW1 9848   1.660   9.887   4.595  0.7474 -0.7150  0.0597
 2020SOL    HW2 9849   1.755   9.997   4.638 -0.1719 -0.0630  0.4363
 2021SOL     OW 9850   5.081   5.071   9.880  0.6887 -0.2497  0.0631
 2021SOL    HW1 9851   5.120   5.032   9.958  0.6891 -0.0284  0.1727
 2021SOL    HW2 9852   5.110   5.162   9.881 -1.3043  0.4445  1.1402
 2022SOL     OW 9853   0.781   3.139   3.626  0.4279  0.6963 -0.1700
 2022SOL    HW1 9854   0.843   3.208   3.647 -2.0943  3.3260 -0.7506
 2022SOL    HW2 9855   0.766   3.147   3.532 -1.2438  0.6175  0.0535
 2023SOL     OW 9856   6.645   2.682   7.497  0.1311 -0.4406 -0.4999
 2023SOL    HW1 9857   6.713   2.676   7.431  1.2050  0.7339  0.4503
 2023SOL    HW2 9858   6.590   2.756   7.469 -0.0277 -0.5950 -0.6034
 2024SOL     OW 9859   3.917   1.169   3.885 -0.3527 -0.3503  0.2890
 2024SOL    HW1 9860   3.934   1.239   3.948 -0.1899 -2.0265  2.2023
 2024SOL    HW2 9861   3.958   1.091   3.924 -0.2769 -1.4823 -1.8898
 2025SOL     OW 9862   9.231   5.394   2.971 -0.1222 -0.2165 -0.2779
 2025SOL    HW1 9863   9.223   5.303   2.943  1.1429 -0.0013 -1.4560
 2025SOL    HW2 9864   9.282   5.389   3.052 -1.1508 -0.6321  0.3592
 2026SOL     OW 9865   3.112   1.520   2.335  0.4378 -0.5588 -0.0673
 2026SOL    HW1 9866   3.170   1.494   2.407  0.0933 -1.6600 -0.1604
 2026SOL    HW2 9867   3.043   1.570   2.378  0.1340 -1.3643  0.4118
 2027SOL     OW 9868   9.619   8.152   1.858 -0.5540  0.5561 -0.1672
 2027SOL    HW1 9869   9.561   8.219   1.896  0.1841 -0.1453  2.4232
 2027SOL    HW2 9870   9.571   8.070   1.870  1.1574 -0.1851  2.9544
 2028SOL     OW 9871   8.029   0.932   5.834 -1.1425  0.0026 -0.5679
 2028SOL    HW1 9872   8.086   0.954   5.908  0.5963 -0.1427 -1.8063
 2028SOL    HW2 9873   8.014   1.015   5.789 -3.3165  0.3295  0.6444
 2029SOL     OW 9874   3.345   7.080   4.670  0.1603 -0.4148  0.5462
 2029SOL    HW1 9875   3.289   7.138   4.723 -0.3492 -0.9119  0.5687
 2029SOL    HW2 9876   3.328   7.107   4.580 -0.0273 -0.4842  0.5601
 2030SOL     OW 9877   7.658  10.340   9.027 -0.0174  0.1374  0.3770
 2030SOL    HW1 9878   7.723  10.285   9.069  0.3872 -0.6504 -1.2087
 2030SOL    HW2 9879   7.667  10.425   9.070  1.2107 -0.2885  1.0050
 2031SOL     OW 9880   3.472   4.807   6.078  0.1039  0.3424  0.0686
 2031SOL    HW1 9881   3.518   4.728   6.050  1.1531  0.8210  0.4011
 2031SOL    HW2 9882   3.425   4.836   6.000 -0.8959 -1.0063  0.1419
 2032SOL     OW 9883   5.011  10.128   5.688  0.3057 -0.1165 -0.5041
 2032SOL    HW1 9884   4.947  10.094   5.625  0.5958 -1.7387  0.0255
 2032SOL    HW2 9885   5.084  10.066   5.683 -0.0523 -0.8585  2.0528
 2033SOL     OW 9886   9.973   2.781   0.903  0.1876  0.4340 -0.0690
 2033SOL    HW1 9887   9.885   2.744   0.916  0.0588  0.8227  0.1714
 2033SOL    HW2 9888  10.023   2.709   0.864 -0.4465  0.4401 -0.9292
 2034SOL     OW 9889  10.008   3.015   8.379 -0.0304  0.7693  0.5491
 2034SOL    HW1 9890   9.978   3.038   8.467  0.8366  1.2585  0.7373
 2034SOL    HW2 9891   9.932   3.030   8.323 -0.8093 -0.2401  1.3040
 2035SOL     OW 9892   8.019   1.143   2.959 -0.3539  0.3705 -0.1967
 2035SOL    HW1 9893   7.942   1.090   2.980 -1.0918  1.1167 -0.9388
 2035SOL    HW2 9894   8.071   1.142   3.039 -1.8603  1.0660  0.8336
 2036SOL     OW 9895   0.005   9.342   2.978 -0.2516 -0.1530 -0.1087
 2036SOL    HW1 9896  -0.019   9.409   3.043 -0.0557 -1.0013  0.8581
 2036SOL    HW2 9897  -0.077   9.318   2.937 -1.0184 -2.2175  2.3824
 2037SOL     OW 9898   4.040   4.503   2.153  0.4736  0.3206 -0.2166
 2037SOL    HW1 9899   4.027   4.411   2.128 -2.4282  0.1528  1.4258
 2037SOL    HW2 9900   4.126   4.505   2.194  0.7924 -1.5601 -0.6942
 2038SOL     OW 9901   4.969   7.289   7.200 -0.2482  0.1970 -0.0312
 2038SOL    HW1 9902   4.933   7.215   7.249  0.4002  0.6339  1.1366
 2038SOL    HW2 9903   4.899   7.354   7.199 -0.3831  0.0521  0.0114
 2039SOL     OW 9904   9.705   4.787   7.902  0.0005 -0.2310  0.0963
 2039SOL    HW1 9905   9.728   4.749   7.987  2.1415 -0.9423 -0.7388
 2039SOL    HW2 9906   9.762   4.863   7.894  0.3146 -0.5627 -0.9793
 2040SOL     OW 9907   8.038   6.990   3.065  0.3347  0.2116 -0.3323
 2040SOL    HW1 9908   7.967   6.927   3.050  1.7159 -1.1084 -1.7097
 2040SOL    HW2 9909   7.994   7.075   3.069 -1.5662 -0.7735  1.3838
 2041SOL     OW 9910   6.423   7.300   8.633  0.0202  0.0936  0.0053
 2041SOL    HW1 9911   6.401   7.211   8.659  0.0184 -0.1154 -0.6797
 2041SOL    HW2 9912   6.495   7.325   8.691 -0.2981 -0.1731  0.5242
 2042SOL     OW 9913   8.974   0.571   8.892 -0.2310 -0.3129  0.1952
 2042SOL    HW1 9914   8.997   0.549   8.803 -0.5771 -1.2339  0.3272
 2042SOL    HW2 9915   9.038   0.637   8.918 -0.2793  0.1511 -0.8078
 2043SOL     OW 9916   9.574   2.535   2.823  0.0944  0.9332  0.5481
 2043SOL    HW1 9917   9.501   2.576   2.778 -0.3452 -0.7536 -0.3693
 2043SOL    HW2 9918   9.624   2.608   2.860 -1.8238  2.1432  0.8735
 2044SOL     OW 9919   2.903   3.113   7.877 -0.1051 -0.6786 -0.7561
 2044SOL    HW1 9920   2.844   3.188   7.885 -0.1759 -0.8444  0.5492
 2044SOL    HW2 9921   2.893   3.084   7.786 -1.8433 -0.5380 -0.6575
 2045SOL     OW 9922   4.705   4.004   2.059  0.8565 -0.3159 -0.3485
 2045SOL    HW1 9923   4.667   4.028   2.143  0.3667 -0.1433 -0.6144
 2045SOL    HW2 9924   4.721   3.910   2.067  0.0669 -0.4603 -0.3380
 2046SOL     OW 9925   5.913   4.585   0.615  0.3347 -0.1544 -0.4235
 2046SOL    HW1 9926   5.950   4.625   0.537  0.3636 -0.6401 -0.6629
 2046SOL    HW2 9927   5.867   4.507   0.583 -0.2734  0.0369 -0.0455
 2047SOL     OW 9928   9.703   9.755   2.162  0.4573 -0.1783  0.4743
 2047SOL    HW1 9929   9.784   9.707   2.146  1.0416  1.1192 -0.6716
 2047SOL    HW2 9930   9.719   9.842   2.124 -1.2055  0.3339  0.8814
 2048SOL     OW 9931   8.982   0.972   3.899 -0.1077 -0.1421 -0.2268
 2048SOL    HW1 9932   8.971   0.906   3.831 -1.2367  1.1267 -1.3269
 2048SOL    HW2 9933   8.953   1.054   3.858 -0.4839  0.7219  1.6689
 2049SOL     OW 9934   4.236   2.604   7.266 -0.5033 -0.2901  0.0277
 2049SOL    HW1 9935   4.332   2.606   7.268 -0.4134 -1.1902 -1.6850
 2049SOL    HW2 9936   4.210   2.667   7.333  1.2869  1.0261 -0.4199
 2050SOL     OW 9937   1.416   4.877   7.709  0.2047 -0.1109  0.2925
 2050SOL    HW1 9938   1.416   4.965   7.669  0.3415 -1.0890 -2.0422
 2050SOL    HW2 9939   1.454   4.890   7.795 -0.6594  2.2779  0.4012
 2051SOL     OW 9940   3.995   8.536   5.780 -0.2237  0.0848 -0.1484
 2051SOL    HW1 9941   3.915   8.491   5.807 -1.1031  2.9441  2.6837
 2051SOL    HW2 9942   3.967   8.594   5.709 -1.1092  1.9468  1.6094
 2052SOL     OW 9943   1.837   7.242   7.240 -0.1568 -0.4185 -0.2193
 2052SOL    HW1 9944   1.832   7.231   7.145  2.6819 -0.8472 -0.4117
 2052SOL    HW2 9945   1.929   7.264   7.256  0.0303 -2.7642  2.6462
 2053SOL     OW 9946   7.244   5.987   3.904  0.3350  0.4333 -0.4741
 2053SOL    HW1 9947   7.324   6.036   3.920  0.9777 -1.0188  0.9679
 2053SOL    HW2 9948   7.211   5.964   3.991 -1.9144  1.3502 -0.9907
 2054SOL     OW 9949   6.287   9.742   9.178  0.1431  0.6998  0.2686
 2054SOL    HW1 9950   6.261   9.801   9.107  0.8003  1.8729  0.9723
 2054SOL    HW2 9951   6.266   9.790   9.258 -0.0899 -0.3863  0.8818
 2055SOL     OW 9952   8.438   4.560   4.396  0.7812 -0.7135 -0.9357
 2055SOL    HW1 9953   8.502   4.497   4.362  0.4066 -1.4645 -0.2721
 2055SOL    HW2 9954   8.385   4.510   4.456 -0.5890 -0.1543 -1.6411
 2056SOL     OW 9955   9.606   2.255   1.232 -0.7745  0.2589  0.4502
 2056SOL    HW1 9956   9.593   2.318   1.162  1.4316 -1.2537 -1.4628
 2056SOL    HW2 9957   9.669   2.296   1.291  0.4567  0.0342 -0.6529
 2057SOL     OW 9958  10.349  10.245   1.852  0.2891 -0.0906  0.0154
 2057SOL    HW1 9959  10.297  10.178   1.897 -0.1286  0.3506  0.1947
 2057SOL    HW2 9960  10.431  10.249   1.903  0.1699 -0.2031  0.2196
 2058SOL     OW 9961   2.833   8.344   9.092  0.5440  0.0574 -0.2348
 2058SOL    HW1 9962   2.852   8.287   9.018 -0.0521 -0.9610  0.3731
 2058SOL    HW2 9963   2.740   8.365   9.084  0.0641 -1.3323  1.0229
 2059SOL     OW 9964   1.178   4.685   5.507 -0.1681  0.0254  0.1904
 2059SOL    HW1 9965   1.254   4.709   5.559  0.2563 -0.3930 -0.2244
 2059SOL    HW2 9966   1.210   4.617   5.447 -0.6633  0.4165 -0.5410
 2060SOL     OW 9967   4.203   1.162   6.006  0.4677  0.5088  0.1407
 2060SOL    HW1 9968   4.126   1.212   5.982  1.2171  1.1173 -1.0674
 2060SOL    HW2 9969   4.224   1.191   6.095 -1.9220 -1.2512  1.3827
 2061SOL     OW 9970   4.444   9.865   4.556 -0.0352  0.0633 -0.6516
 2061SOL    HW1 9971   4.478   9.953   4.537  0.0029 -0.1487 -1.6423
 2061SOL    HW2 9972   4.412   9.834   4.471  1.6307 -1.6138 -0.7142
 2062SOL     OW 9973   5.198   0.154  10.285  0.1933 -0.2910  0.1863
 2062SOL    HW1 9974   5.233   0.191  10.204  0.1620  1.4195  0.9187
 2062SOL    HW2 9975   5.256   0.081  10.305 -0.2751 -1.2743 -1.7789
 2063SOL     OW 9976   3.641   4.698   1.016  0.6484 -0.4142 -0.5800
 2063SOL    HW1 9977   3.549   4.696   0.992 -0.2198  0.4139  2.2959
 2063SOL    HW2 9978   3.675   4.777   0.974 -0.0837 -0.4388 -1.2415
 2064SOL     OW 9979   2.470   8.822   4.758 -0.0729 -0.3993 -0.2004
 2064SOL    HW1 9980   2.392   8.812   4.813  0.2352 -0.9779  0.1367
 2064SOL    HW2 9981   2.472   8.744   4.703 -0.6797  0.4256 -1.4448
 2065SOL     OW 9982   5.252   0.799   7.171 -0.6781 -0.1281 -0.0158
 2065SOL    HW1 9983   5.268   0.884   7.213 -0.7296  0.1921 -0.6362
 2065SOL    HW2 9984   5.197   0.819   7.096 -3.7426 -1.1427  1.7901
 2066SOL     OW 9985   0.745   0.892   7.445  0.3622  0.4969  0.2782
 2066SOL    HW1 9986   0.796   0.972   7.449  1.6669 -0.3286  0.8472
 2066SOL    HW2 9987   0.664   0.917   7.400 -0.5223  2.7834  2.8591
 2067SOL     OW 9988   5.993   7.849   1.662 -0.6695 -0.0554 -0.0516
 2067SOL    HW1 9989   5.926   7.793   1.622 -0.6971  0.8411 -1.3423
 2067SOL    HW2 9990   6.076   7.808   1.638 -0.7222 -0.6485  0.7471
 2068SOL     OW 9991   4.565   7.952   0.837  0.1043 -0.3616  0.2088
 2068SOL    HW1 9992   4.551   7.941   0.743 -0.7056 -0.1035  0.2912
 2068SOL    HW2 9993   4.659   7.965   0.846  0.2926 -1.1393 -0.4915
 2069SOL     OW 9994   7.656   3.319   0.570 -0.0742  0.5742  0.3093
 2069SOL    HW1 9995   7.609   3.240   0.543 -1.6342  1.9115 -1.0883
 2069SOL    HW2 9996   7.633   3.385   0.504  1.3536  2.1538  1.3043
 2070SOL     OW 9997   0.441   2.442   0.350  0.0712 -0.0499  0.3301
 2070SOL    HW1 9998   0.510   2.390   0.308 -0.1102  0.6594 -0.8890
 2070SOL    HW2 9999   0.413   2.503   0.282 -0.6048  0.7909  1.3436
 2071SOL     OW10000   6.748   2.331   5.098  0.3035  0.2071 -0.4385
 2071SOL    HW110001   6.814   2.334   5.028  2.0314 -3.7257  0.6904
 2071SOL    HW210002   6.771   2.404   5.156  1.1705  1.2910 -2.0615
 2072SOL     OW10003   9.953   7.601   8.648  0.2859  0.0283  0.4684
 2072SOL    HW110004   9.934   7.671   8.586  0.2661 -0.7968 -0.4827
 2072SOL    HW210005   9.890   7.615   8.719 -0.7095  0.1342 -0.4003
 2073SOL     OW10006   5.430   0.612   5.555  0.0119  0.0843  0.4121
 2073SOL    HW110007   5.404   0.529   5.594 -0.5027  1.3579  2.9711
 2073SOL    HW210008   5.524   0.602   5.537 -0.0131 -0.9828  0.7974
 2074SOL     OW10009   8.411   7.512   4.459 -0.1368  0.3259 -0.7421
 2074SOL    HW110010   8.365   7.429   4.445 -0.1217  0.4158 -1.3372
 2074SOL    HW210011   8.358   7.558   4.524 -1.3110  0.7390 -1.9408
 2075SOL     OW10012   5.897   1.279   9.703 -0.4037 -0.7398 -0.4525
 2075SOL    HW110013   5.867   1.312   9.788  0.0577  1.3089 -1.0321
 2075SOL    HW210014   5.987   1.251   9.719 -0.5623 -1.0601 -0.1042
 2076SOL     OW10015   6.287   2.424   2.802  0.0004 -0.2549  0.4486
 2076SOL    HW110016   6.362   2.478   2.774 -0.3988  0.0388 -0.0710
 2076SOL    HW210017   6.324   2.362   2.865  0.4632  0.6828  1.1393
 2077SOL     OW10018  10.212   9.348   9.405  0.0924  0.2749  0.2021
 2077SOL    HW110019  10.260   9.426   9.433 -0.7105  1.4652 -1.5101
 2077SOL    HW210020  10.213   9.353   9.309 -0.4237 -1.5690  0.0559
 2078SOL     OW10021   9.385   0.446   8.221 -0.2832 -0.1505  0.5363
 2078SOL    HW110022   9.454   0.504   8.191 -0.3972  0.2017  0.9522
 2078SOL    HW210023   9.431   0.371   8.259 -0.1373 -0.2566  0.1538
 2079SOL     OW10024   5.868  10.005   1.239 -0.4863  0.1050  0.5865
 2079SOL    HW110025   5.857   9.911   1.225  0.4538  0.1736 -0.7025
 2079SOL    HW210026   5.962  10.018   1.246 -0.5376  1.0753 -0.2615
 2080SOL     OW10027   2.701   3.887   1.333  0.2980  0.1265  0.2318
 2080SOL    HW110028   2.659   3.942   1.398  1.0497 -0.1857  1.0123
 2080SOL    HW210029   2.678   3.926   1.249 -2.4567 -0.6737  0.5200
 2081SOL     OW10030   9.969   1.424   7.208 -0.2486 -0.3560 -0.0964
 2081SOL    HW110031  10.037   1.483   7.241 -0.6682 -0.0738  0.2840
 2081SOL    HW210032   9.994   1.338   7.241 -0.6540 -0.0811  0.9717
 2082SOL     OW10033   1.179   2.073   6.717 -0.2139  0.0446 -0.3222
 2082SOL    HW110034   1.117   2.044   6.784 -0.2836 -1.4553 -0.9898
 2082SOL    HW210035   1.160   2.017   6.641  2.6508 -1.2519 -0.1980
 2083SOL     OW10036   1.211   9.545   4.524 -0.2162  0.4270 -0.3532
 2083SOL    HW110037   1.214   9.468   4.581 -0.5238 -0.5579 -1.6235
 2083SOL    HW210038   1.128   9.587   4.544 -0.4879 -0.1129 -0.3360
 2084SOL     OW10039  10.299   6.464   7.335  0.2434 -0.0255  0.0395
 2084SOL    HW110040  10.209   6.433   7.342  0.1604  0.0796 -0.5152
 2084SOL    HW210041  10.317   6.466   7.241  0.6353  0.4861  0.1171
 2085SOL     OW10042   5.250  10.131   8.892  0.2397 -0.7581 -0.4704
 2085SOL    HW110043   5.263  10.188   8.816 -0.0413 -0.4915 -0.3211
 2085SOL    HW210044   5.252  10.190   8.967  0.1670 -0.9747 -0.2953
 2086SOL     OW10045   3.906   4.078   8.511 -0.6039 -0.1020  0.4196
 2086SOL    HW110046   3.954   4.100   8.430 -0.7779 -0.8977  0.0965
 2086SOL    HW210047   3.819   4.052   8.481 -1.3941  1.6351  1.0216
 2087SOL     OW10048   1.824   7.378   9.648  0.4714  0.0973  0.0249
 2087SOL    HW110049   1.756   7.374   9.716 -0.1366  1.0847 -0.5042
 2087SOL    HW210050   1.839   7.471   9.635  0.2960 -0.0683 -1.4735
 2088SOL     OW10051   6.456   6.107   5.106 -0.3316 -0.0278  0.0056
 2088SOL    HW110052   6.437   6.162   5.182  0.0433 -0.4193  0.3824
 2088SOL    HW210053   6.410   6.151   5.033 -0.1366  0.7164  0.3197
 2089SOL     OW10054   0.985   8.577   4.488 -0.1525 -0.1553 -0.1392
 2089SOL    HW110055   0.956   8.594   4.578  0.5583  1.5087 -0.2027
 2089SOL    HW210056   0.926   8.507   4.458 -1.5897  0.5010  1.0019
 2090SOL     OW10057   4.034   4.520   1.861  0.0746 -0.0847 -0.0583
 2090SOL    HW110058   4.088   4.524   1.939 -0.2219 -0.9973  0.2080
 2090SOL    HW210059   4.073   4.583   1.801  0.0103  0.9858  0.9989
 2091SOL     OW10060   0.939   7.548   8.732 -0.1872  0.2592 -0.3699
 2091SOL    HW110061   0.910   7.458   8.747  0.2777  0.2415  0.4748
 2091SOL    HW210062   0.982   7.574   8.814  0.2063  1.0458 -0.8106
 2092SOL     OW10063   1.731   8.267   5.874  0.0245 -0.5032  0.1191
 2092SOL    HW110064   1.765   8.213   5.946  0.4417 -1.0000 -0.4428
 2092SOL    HW210065   1.720   8.206   5.801  0.2004  0.1188 -0.4378
 2093SOL     OW10066   2.232   9.935   2.200  0.0114  0.4550 -0.4018
 2093SOL    HW110067   2.296   9.992   2.243  1.6899 -2.5774  1.5066
 2093SOL    HW210068   2.285   9.873   2.150 -1.7696  1.0762 -3.2678
 2094SOL     OW10069   6.891   4.568   5.025 -0.6678  0.0832  0.2639
 2094SOL    HW110070   6.953   4.511   4.980  0.1215 -0.1844  1.6264
 2094SOL    HW210071   6.824   4.587   4.960  0.7631  0.2685 -1.2171
 2095SOL     OW10072   5.911   5.112   4.257 -0.2402 -0.1617 -0.2374
 2095SOL    HW110073   5.884   5.021   4.245  2.8875 -1.1233 -0.9909
 2095SOL    HW210074   6.000   5.106   4.294  0.7331  2.5161 -1.8422
 2096SOL     OW10075   7.522  10.224   8.345  0.7223  0.0384 -0.4717
 2096SOL    HW110076   7.469  10.174   8.406 -0.6771  0.9129 -0.9122
 2096SOL    HW210077   7.481  10.311   8.344  2.0196  0.6692 -1.0321
 2097SOL     OW10078   5.493   1.497   1.432 -0.5282  0.2248  0.0549
 2097SOL    HW110079   5.428   1.466   1.369 -0.4755 -0.4872  0.3438
 2097SOL    HW210080   5.574   1.453   1.406 -0.5243 -0.1398  0.6650
 2098SOL     OW10081   6.410   9.980   3.533  0.0119 -0.4903 -0.5715
 2098SOL    HW110082   6.386  10.034   3.608 -0.6460 -1.7056  0.1139
 2098SOL    HW210083   6.384   9.891   3.557  0.3991 -1.0160 -1.9698
 2099SOL     OW10084   8.148   3.390   3.325 -0.2718 -0.2396  0.4484
 2099SOL    HW110085   8.165   3.362   3.415  2.1517  1.8528  0.7521
 2099SOL    HW210086   8.221   3.354   3.274  0.0971  1.1650 -0.0686
 2100SOL     OW10087   3.604   0.002   0.647  0.4919  0.2230 -0.0975
 2100SOL    HW110088   3.654  -0.041   0.578  0.1536  1.2824 -1.0166
 2100SOL    HW210089   3.660  -0.005   0.725  0.6247 -1.5096 -0.2919
 2101SOL     OW10090   4.893   6.955   1.104 -0.1156  0.0337  0.2231
 2101SOL    HW110091   4.838   7.020   1.147 -0.3980  1.0244 -1.5507
 2101SOL    HW210092   4.878   6.969   1.011 -2.1365 -4.1623 -0.3184
 2102SOL     OW10093   6.122   1.167   6.989 -0.8793 -0.4261 -0.2585
 2102SOL    HW110094   6.164   1.113   7.055 -1.2487 -0.3078  0.0776
 2102SOL    HW210095   6.078   1.236   7.038  1.8023  1.8343 -0.7719
 2103SOL     OW10096   3.233   4.595   9.913 -0.0085  0.4074 -0.3904
 2103SOL    HW110097   3.236   4.585   9.818  0.2958  0.9738 -0.4419
 2103SOL    HW210098   3.316   4.635   9.936 -0.2425  0.6313  0.0735
 2104SOL     OW10099   3.577   3.829   0.878 -0.2289 -0.3076  0.2529
 2104SOL    HW110100   3.658   3.796   0.839  0.5453 -0.0495  1.5726
 2104SOL    HW210101   3.560   3.910   0.830  2.0101  1.2690  1.8503
 2105SOL     OW10102   8.859   4.607   6.605 -0.0771  1.0169  0.0660
 2105SOL    HW110103   8.869   4.671   6.675 -1.0570  1.1928  0.0614
 2105SOL    HW210104   8.783   4.555   6.630 -0.0872  0.7089 -0.5764
 2106SOL     OW10105   1.551   5.305   4.837 -0.0408  0.3236 -0.1960
 2106SOL    HW110106   1.471   5.357   4.834  0.8261  1.7837  0.8847
 2106SOL    HW210107   1.571   5.297   4.930 -0.7463 -3.0008 -0.1881
 2107SOL     OW10108   4.027   1.760   0.463  0.1034  0.9878 -0.5720
 2107SOL    HW110109   4.018   1.739   0.556 -0.4497  3.8453  0.1277
 2107SOL    HW210110   3.943   1.733   0.424  0.7152 -1.1491 -0.5103
 2108SOL     OW10111   5.185   1.452   9.568 -0.1180  0.3015 -0.6632
 2108SOL    HW110112   5.206   1.439   9.660  1.5086  2.0946 -0.7236
 2108SOL    HW210113   5.091   1.433   9.562  0.2087 -2.3366  0.8147
 2109SOL     OW10114   2.146   2.985   1.567 -0.0705  0.4730  0.0008
 2109SOL    HW110115   2.072   2.962   1.511 -0.0528  1.7926 -0.5828
 2109SOL    HW210116   2.106   3.006   1.652 -0.1939 -0.4307  0.1821
 2110SOL     OW10117   0.815   7.954   5.612  0.1660 -0.3124 -0.1428
 2110SOL    HW110118   0.787   7.949   5.521  0.0230 -0.3565 -0.0959
 2110SOL    HW210119   0.838   8.047   5.625 -0.9272 -0.0697  0.1062
 2111SOL     OW10120   6.306   2.107   2.046  0.2606 -0.7396 -0.3666
 2111SOL    HW110121   6.211   2.120   2.046  0.4163  0.9798  1.7120
 2111SOL    HW210122   6.328   2.084   1.956 -1.9781  0.0262 -1.1635
 2112SOL     OW10123   9.395   7.781   0.581 -0.4243  0.1660  0.3904
 2112SOL    HW110124   9.446   7.766   0.661  1.4277  0.8983 -0.5874
 2112SOL    HW210125   9.460   7.780   0.510 -1.7753  1.1440 -0.9391
 2113SOL     OW10126   8.914   6.636   5.700 -0.3925 -0.3495 -0.0984
 2113SOL    HW110127   8.922   6.706   5.765 -0.6419  0.5512 -1.0098
 2113SOL    HW210128   8.985   6.576   5.721  0.3372  0.5917  0.2203
 2114SOL     OW10129   8.012   7.987   6.972  0.7647  0.3578 -0.1524
 2114SOL    HW110130   8.019   7.897   6.939  0.7531  0.4336 -0.3625
 2114SOL    HW210131   7.941   7.984   7.035 -0.2116  0.5280 -1.2075
 2115SOL     OW10132   4.323   7.883   2.054  0.2893  0.4825  0.1153
 2115SOL    HW110133   4.342   7.844   2.140  0.6201 -1.3471 -0.7468
 2115SOL    HW210134   4.408   7.915   2.024  0.5228 -0.5138 -0.3024
 2116SOL     OW10135   4.119   4.888   5.020 -0.0016 -0.8477 -0.0177
 2116SOL    HW110136   4.087   4.881   4.930 -2.1315  1.0396  0.4966
 2116SOL    HW210137   4.050   4.850   5.073 -0.0908  0.5921  0.9621
 2117SOL     OW10138   7.900   4.787   9.317  0.3725  0.1826 -0.1785
 2117SOL    HW110139   7.841   4.856   9.347  1.0739  0.6350  0.1885
 2117SOL    HW210140   7.958   4.771   9.392  2.4907  1.6752 -1.3956
 2118SOL     OW10141   1.639   4.888   7.503 -0.3399 -0.1927 -0.7044
 2118SOL    HW110142   1.579   4.814   7.492 -0.7898  0.1098 -0.2662
 2118SOL    HW210143   1.609   4.932   7.582  1.1157 -0.6611  0.1493
 2119SOL     OW10144   1.418   3.903   5.234 -0.0320 -0.1004  0.9758
 2119SOL    HW110145   1.389   3.992   5.215 -2.6531 -0.7658  1.4287
 2119SOL    HW210146   1.470   3.911   5.314  1.2790  1.2065  0.0423
 2120SOL     OW10147   5.202   6.061   8.413 -0.3069  0.1585 -0.1061
 2120SOL    HW110148   5.176   6.042   8.323  1.2066 -1.0356 -0.3376
 2120SOL    HW210149   5.207   6.156   8.417  0.9222  0.1966 -1.7091
 2121SOL     OW10150   9.114  10.113   3.580 -0.2666 -0.1069 -0.2716
 2121SOL    HW110151   9.035  10.061   3.595 -1.3804  0.4840 -3.2347
 2121SOL    HW210152   9.090  10.202   3.605  0.4205 -0.3595  1.3768
 2122SOL     OW10153   5.262   1.503   7.338 -0.0420  0.0076  0.8077
 2122SOL    HW110154   5.185   1.493   7.283 -0.2662  2.1241  0.6451
 2122SOL    HW210155   5.258   1.594   7.368  2.9080  0.4844  0.0075
 2123SOL     OW10156   6.224   7.559   1.053 -0.1391 -0.5406  0.0035
 2123SOL    HW110157   6.301   7.502   1.059 -0.2971 -0.7132  0.5071
 2123SOL    HW210158   6.192   7.546   0.964  1.3038  0.7150 -0.7433
 2124SOL     OW10159   2.058   5.599   3.423 -0.1235  0.4476  0.1140
 2124SOL    HW110160   2.127   5.659   3.454 -0.8052  1.7593 -0.7811
 2124SOL    HW210161   2.028   5.554   3.502  2.1355 -0.5965  0.4449
 2125SOL     OW10162   1.188   7.619   7.361 -0.1163 -0.4331  0.0362
 2125SOL    HW110163   1.243   7.632   7.284 -0.2478  0.7280  0.1111
 2125SOL    HW210164   1.222   7.540   7.402 -0.2117 -1.2195 -1.3382
 2126SOL     OW10165   8.248   7.401   2.921 -0.4929  0.2494 -0.0342
 2126SOL    HW110166   8.201   7.455   2.857  1.5269  1.7663 -0.3382
 2126SOL    HW210167   8.310   7.351   2.870 -0.1459  0.0577  0.5641
 2127SOL     OW10168   6.137   1.607   1.710 -0.4135  0.2199  0.4805
 2127SOL    HW110169   6.134   1.685   1.765  1.1338  0.8320 -0.2655
 2127SOL    HW210170   6.169   1.538   1.768 -3.0720 -0.2646  1.5227
 2128SOL     OW10171   1.781   2.389   6.052 -0.5785  0.2978 -0.1744
 2128SOL    HW110172   1.801   2.413   5.962  0.1452  0.3512 -0.0074
 2128SOL    HW210173   1.781   2.293   6.051 -1.5023  0.2889 -0.4201
 2129SOL     OW10174   7.211   7.524   7.700  0.0448  0.3651 -0.1378
 2129SOL    HW110175   7.142   7.496   7.640 -0.5415  0.4185  0.5029
 2129SOL    HW210176   7.284   7.465   7.681 -0.9891 -1.2950  0.8320
 2130SOL     OW10177   8.715   9.113   3.419  0.6999  0.4141  0.2214
 2130SOL    HW110178   8.652   9.041   3.428  0.6327  0.6000  1.4120
 2130SOL    HW210179   8.664   9.183   3.378 -0.3034  1.0197  2.3335
 2131SOL     OW10180   0.838   2.136   8.660  0.1114 -0.3888 -0.5278
 2131SOL    HW110181   0.801   2.051   8.684 -2.7613  1.6370  3.1785
 2131SOL    HW210182   0.894   2.160   8.733  0.9328  0.9388 -1.5484
 2132SOL     OW10183   2.753   2.590   1.600 -0.4099 -0.2574 -0.3484
 2132SOL    HW110184   2.771   2.642   1.522 -0.1793 -1.7745 -1.3438
 2132SOL    HW210185   2.838   2.584   1.645 -0.6535  1.0804  0.3642
 2133SOL     OW10186   5.647   9.334   0.348  0.0763  0.0957  0.3418
 2133SOL    HW110187   5.645   9.267   0.280 -2.1424  0.3726  0.0329
 2133SOL    HW210188   5.665   9.415   0.301 -0.9396  0.2116  0.1226
 2134SOL     OW10189   9.627   3.111   4.127  0.3932  0.7581 -0.4062
 2134SOL    HW110190   9.595   3.149   4.045  2.0413  1.0600 -0.9338
 2134SOL    HW210191   9.720   3.098   4.113  0.6877  0.6950  1.3867
 2135SOL     OW10192   4.577   1.152   7.659 -0.0261 -0.0699  0.1267
 2135SOL    HW110193   4.545   1.164   7.748 -1.8150 -0.3594 -0.4489
 2135SOL    HW210194   4.617   1.065   7.660  1.4117  0.5585  1.0123
 2136SOL     OW10195   4.564   3.020   7.948 -0.1329  0.0993  0.5611
 2136SOL    HW110196   4.497   3.045   8.012 -1.4425 -0.2134 -0.6335
 2136SOL    HW210197   4.615   2.952   7.992 -1.6496 -0.8417  0.9472
 2137SOL     OW10198   9.054   8.041  10.085  0.5090  0.0786  0.4193
 2137SOL    HW110199   8.959   8.049  10.077  0.4695 -1.4420 -0.9812
 2137SOL    HW210200   9.069   7.948  10.098  1.8852  0.1276 -0.6373
 2138SOL     OW10201   8.652   1.687   7.293  0.1119  0.4667  0.5877
 2138SOL    HW110202   8.595   1.754   7.331 -0.8545 -0.6517  1.2000
 2138SOL    HW210203   8.652   1.617   7.358  1.8661  0.2492  0.3949
 2139SOL     OW10204   1.895  10.220   6.020 -0.2850  0.4257 -0.0337
 2139SOL    HW110205   1.890  10.238   5.926  1.0095  2.0096  0.1658
 2139SOL    HW210206   1.907  10.306   6.061  0.4430 -0.3529  1.4817
 2140SOL     OW10207   9.483   8.297  10.174 -0.5029 -0.2718 -0.7903
 2140SOL    HW110208   9.409   8.342  10.214  0.3018  0.8730 -0.5558
 2140SOL    HW210209   9.560   8.333  10.217  0.1615 -3.9462  1.5328
 2141SOL     OW10210   7.837   8.768   8.180  0.0771 -0.1591  0.1413
 2141SOL    HW110211   7.844   8.844   8.238 -0.0830 -0.1005  0.0848
 2141SOL    HW210212   7.900   8.785   8.110 -1.1700  0.7416 -0.7930
 2142SOL     OW10213   3.845   3.831   4.755  0.2047 -0.0599 -0.3624
 2142SOL    HW110214   3.893   3.771   4.698 -0.0235 -0.2063 -0.4026
 2142SOL    HW210215   3.801   3.773   4.818  2.6372  0.2052  1.6990
 2143SOL     OW10216   6.028   9.120   9.581  0.1967  0.6137 -0.3151
 2143SOL    HW110217   6.002   9.070   9.504  2.2483 -0.6565 -0.2719
 2143SOL    HW210218   6.116   9.152   9.560  0.5352  0.7845  1.2288
 2144SOL     OW10219   4.668   0.764   5.981  0.0521  0.1733 -0.0342
 2144SOL    HW110220   4.716   0.717   5.913  0.1990  0.9283 -0.4504
 2144SOL    HW210221   4.735   0.811   6.030 -0.0146 -0.6090  0.8440
 2145SOL     OW10222  10.114   0.190   9.091 -0.1253 -0.0091  0.2159
 2145SOL    HW110223  10.199   0.230   9.108  0.0686 -0.8656  1.3567
 2145SOL    HW210224  10.135   0.113   9.037  0.2097 -1.7968  2.7162
 2146SOL     OW10225   2.534   1.128   1.436  0.1877 -0.0087  0.8394
 2146SOL    HW110226   2.439   1.130   1.435  0.2019  1.6008 -0.3831
 2146SOL    HW210227   2.558   1.153   1.525 -0.5313  0.2908  0.9548
 2147SOL     OW10228   0.352   1.628   1.320 -0.4903  0.2324  0.3084
 2147SOL    HW110229   0.290   1.693   1.288 -1.0172 -0.4732 -0.1356
 2147SOL    HW210230   0.423   1.630   1.256 -0.6335  0.1847  0.1461
 2148SOL     OW10231   7.586   5.398   1.541 -0.2529  0.5978  0.5940
 2148SOL    HW110232   7.645   5.443   1.480 -0.4524 -0.1756 -0.1774
 2148SOL    HW210233   7.500   5.434   1.523 -0.4662 -0.2990 -0.2475
 2149SOL     OW10234   9.001   9.249   8.818  0.5799  0.0852  0.0305
 2149SOL    HW110235   9.020   9.336   8.783  0.4914  0.2183  0.3113
 2149SOL    HW210236   9.078   9.226   8.870  0.8768 -0.2760 -0.5604
 2150SOL     OW10237   4.748   6.841   3.462 -0.3788  0.1390 -0.1116
 2150SOL    HW110238   4.713   6.918   3.506 -0.0395  0.7597 -0.8965
 2150SOL    HW210239   4.701   6.768   3.500 -0.6146  0.7249  0.7386
 2151SOL     OW10240   0.910   2.929   9.800 -1.0012  0.0872  0.2624
 2151SOL    HW110241   0.941   2.870   9.868 -1.1696  0.7983  0.9746
 2151SOL    HW210242   0.875   3.004   9.848 -0.7993  0.7569 -0.6116
 2152SOL     OW10243   5.080   0.996   2.741  0.1720  0.3513 -0.0537
 2152SOL    HW110244   5.170   0.965   2.727 -0.3067 -1.8736  1.2861
 2152SOL    HW210245   5.026   0.938   2.688 -0.6964 -0.6801  1.8290
 2153SOL     OW10246   4.553   9.790   4.160  0.0765 -0.0061  0.1661
 2153SOL    HW110247   4.622   9.798   4.094 -0.7967 -0.4049 -0.8205
 2153SOL    HW210248   4.487   9.733   4.120 -0.1346 -0.8789  1.6883
 2154SOL     OW10249   2.786   4.255   3.263 -0.2696  0.1556 -0.2343
 2154SOL    HW110250   2.855   4.190   3.254 -0.8621 -0.6289  0.6506
 2154SOL    HW210251   2.832   4.338   3.274  0.5077 -0.2291 -0.5609
 2155SOL     OW10252   1.920   4.591   0.340  0.5830  0.1904  0.6960
 2155SOL    HW110253   1.825   4.592   0.332  0.5554 -0.1541  0.9307
 2155SOL    HW210254   1.938   4.518   0.400  1.0473 -0.3532 -0.0753
 2156SOL     OW10255   9.218   5.026   7.407  0.2494  0.0158  0.1984
 2156SOL    HW110256   9.149   5.090   7.391 -0.2386 -0.0827  1.8039
 2156SOL    HW210257   9.265   5.021   7.323 -1.2415  0.5981 -0.7119
 2157SOL     OW10258   6.262   9.329   9.448  0.4330 -0.2596  0.2687
 2157SOL    HW110259   6.320   9.394   9.488  1.3769  1.6619 -3.7773
 2157SOL    HW210260   6.187   9.379   9.417 -0.6057 -1.7700  0.2250
 2158SOL     OW10261   0.624   8.791   4.618  0.3472 -0.4363 -0.1173
 2158SOL    HW110262   0.565   8.865   4.627 -1.8531 -2.0099 -0.5752
 2158SOL    HW210263   0.658   8.776   4.706  0.8537  1.0847 -0.0301
 2159SOL     OW10264   7.167   4.804   7.406 -0.5266  0.0652 -0.1314
 2159SOL    HW110265   7.216   4.849   7.337 -2.3918  1.5953 -0.5503
 2159SOL    HW210266   7.234   4.776   7.469  1.1848 -0.8618 -2.2115
 2160SOL     OW10267   2.019   4.649   6.545  0.7133 -0.1820 -0.0174
 2160SOL    HW110268   1.987   4.699   6.470 -0.5515 -0.5843  0.2304
 2160SOL    HW210269   1.978   4.563   6.535  1.4336 -0.6012  0.5271
 2161SOL     OW10270   4.109   1.897   5.413  0.1084 -0.4376 -0.1949
 2161SOL    HW110271   4.080   1.857   5.495 -1.7842 -0.7857 -0.9852
 2161SOL    HW210272   4.059   1.852   5.345  2.0860 -0.6027 -1.6460
 2162SOL     OW10273   5.738   7.911   8.799 -0.4127  1.0689  0.0353
 2162SOL    HW110274   5.660   7.888   8.850  0.2388 -0.1653  0.5140
 2162SOL    HW210275   5.778   7.826   8.777  0.3621  1.6554 -0.8908
 2163SOL     OW10276   7.605   1.087   2.009 -0.3508  0.1347 -0.1033
 2163SOL    HW110277   7.647   1.152   1.954 -0.3300  0.8103  0.6878
 2163SOL    HW210278   7.574   1.136   2.085  0.8379 -0.9736  1.1564
 2164SOL     OW10279  10.269   2.925   5.120  0.0480  0.1924 -0.1600
 2164SOL    HW110280  10.357   2.928   5.082  0.0966 -0.1248 -0.0697
 2164SOL    HW210281  10.260   2.836   5.154 -0.4698  0.0913 -0.5503
 2165SOL     OW10282   9.478   5.026   6.376 -0.1712  0.2084 -0.1026
 2165SOL    HW110283   9.478   4.945   6.324  0.2873  0.0865  0.0838
 2165SOL    HW210284   9.418   5.007   6.449 -0.1114  0.0555 -0.0919
 2166SOL     OW10285   3.059   1.020   3.843 -0.6919  0.2460  0.2314
 2166SOL    HW110286   3.148   0.984   3.832 -0.8611 -0.2781  0.5338
 2166SOL    HW210287   3.072   1.098   3.897 -0.4418  0.0223  0.5026
 2167SOL     OW10288   1.603   3.942   5.050 -0.4712  0.5484 -0.3715
 2167SOL    HW110289   1.533   3.929   5.114 -0.1704  1.8806  0.2611
 2167SOL    HW210290   1.593   3.869   4.988 -0.2989 -1.2449  1.5961
 2168SOL     OW10291   6.307   2.045   5.803 -0.0261  0.4495 -0.0832
 2168SOL    HW110292   6.219   2.083   5.808  0.4052  1.5602 -0.7097
 2168SOL    HW210293   6.315   1.992   5.883 -0.1409  2.7666  1.5506
 2169SOL     OW10294   9.127   0.704   7.795  0.3127  0.3136 -0.5989
 2169SOL    HW110295   9.191   0.769   7.765 -1.0277  0.9941 -2.1051
 2169SOL    HW210296   9.159   0.621   7.759  0.7647  0.5067 -0.6555
 2170SOL     OW10297   6.575   7.192  10.071  0.1761 -0.2394 -0.1031
 2170SOL    HW110298   6.493   7.235  10.096 -0.2129 -0.5895 -0.7613
 2170SOL    HW210299   6.635   7.263  10.053 -0.0328  0.0211  0.2139
 2171SOL     OW10300  10.062   4.831   6.073  1.0655 -0.1545  0.0554
 2171SOL    HW110301  10.139   4.870   6.114  1.8225 -1.5860  0.0481
 2171SOL    HW210302  10.093   4.750   6.034 -0.5008 -0.9370  0.3198
 2172SOL     OW10303   4.660   4.944   0.899 -0.3240 -0.2064 -0.2565
 2172SOL    HW110304   4.680   4.897   0.980 -1.0564  1.5276  0.9997
 2172SOL    HW210305   4.733   5.006   0.889 -0.3382 -0.2759 -0.8490
 2173SOL     OW10306   1.856   8.121  10.271  0.9555 -0.0214  0.4140
 2173SOL    HW110307   1.787   8.175  10.310  0.3203 -1.0091  0.7005
 2173SOL    HW210308   1.894   8.177  10.203  1.9083  1.6332  2.2232
 2174SOL     OW10309   1.220   2.505   4.756  0.3219  0.1334  0.0208
 2174SOL    HW110310   1.245   2.596   4.741  0.6226 -0.1754 -1.5858
 2174SOL    HW210311   1.149   2.509   4.820  0.6623  1.4456  0.3429
 2175SOL     OW10312   1.989   9.069   1.987 -0.1517 -0.1192 -0.5230
 2175SOL    HW110313   1.938   8.999   1.945 -0.7140  0.9823 -1.7430
 2175SOL    HW210314   1.927   9.110   2.047 -0.0137 -0.2579 -0.2866
 2176SOL     OW10315  10.262  10.204   5.689  0.4368 -0.0985  0.8730
 2176SOL    HW110316  10.269  10.250   5.773 -0.8744 -0.2267  1.0792
 2176SOL    HW210317  10.214  10.124   5.709  1.7690 -1.0735  0.3225
 2177SOL     OW10318   0.405   1.892   8.742 -0.0167 -0.4159 -0.1420
 2177SOL    HW110319   0.374   1.867   8.655 -1.1615  1.3767 -0.2958
 2177SOL    HW210320   0.370   1.824   8.800 -0.7271 -0.6855 -0.8617
 2178SOL     OW10321   6.748   2.097   3.725 -0.3064  0.1563 -0.5047
 2178SOL    HW110322   6.831   2.106   3.679 -0.0553 -0.7103 -0.2434
 2178SOL    HW210323   6.693   2.045   3.666 -0.6059  0.5733 -0.5982
 2179SOL     OW10324   1.438   9.657   5.190  0.4940  0.3526  0.6824
 2179SOL    HW110325   1.375   9.614   5.248  2.7174 -2.4118  1.2457
 2179SOL    HW210326   1.390   9.732   5.155 -2.0953  0.1589  3.3734
 2180SOL     OW10327   6.102   1.351   6.331  0.2748 -0.0731 -0.0292
 2180SOL    HW110328   6.111   1.434   6.284  3.6088 -1.4605 -2.2082
 2180SOL    HW210329   6.149   1.365   6.413  0.2594  0.3736 -0.0932
 2181SOL     OW10330   4.318   9.504   0.634 -0.0024 -0.4700  0.0707
 2181SOL    HW110331   4.291   9.431   0.578 -1.2216 -0.8076  1.0439
 2181SOL    HW210332   4.353   9.462   0.713  3.7896 -0.0671 -1.1858
 2182SOL     OW10333   6.906   5.599   3.288 -0.5631  0.3740  0.1641
 2182SOL    HW110334   6.966   5.610   3.362 -0.2343  0.9272 -0.1805
 2182SOL    HW210335   6.883   5.506   3.290  0.1374  0.1947  0.4312
 2183SOL     OW10336   9.769   7.019   3.581  0.3239  0.1066 -0.0103
 2183SOL    HW110337   9.809   7.088   3.635  1.6381  0.2610 -1.1217
 2183SOL    HW210338   9.801   6.937   3.619 -1.3236  0.0426  1.3781
 2184SOL     OW10339   9.862   1.007   3.575 -0.0704  0.2689  0.1049
 2184SOL    HW110340   9.843   0.913   3.575 -1.1040  0.4646  0.3944
 2184SOL    HW210341   9.850   1.034   3.485  3.3708 -0.4254 -0.7288
 2185SOL     OW10342   0.838   9.692   7.968  0.5375 -0.3452  0.2163
 2185SOL    HW110343   0.778   9.622   7.943  0.8373 -0.4070 -0.3636
 2185SOL    HW210344   0.786   9.751   8.021 -0.7897  0.9688 -2.3673
 2186SOL     OW10345   2.359   4.197   6.784 -0.3774  0.3180 -0.0966
 2186SOL    HW110346   2.295   4.226   6.850  0.0509  0.1472  0.3980
 2186SOL    HW210347   2.346   4.102   6.778  0.4489  0.1389  0.6867
 2187SOL     OW10348   5.543   2.324   2.365 -0.3654  0.1334  0.6394
 2187SOL    HW110349   5.486   2.338   2.440 -1.1694  0.9821 -0.1033
 2187SOL    HW210350   5.520   2.394   2.304  0.4704 -0.3632 -0.2748
 2188SOL     OW10351   8.993   1.545   4.356 -0.1873  0.5068 -0.0774
 2188SOL    HW110352   9.037   1.500   4.427 -0.3076 -0.0087 -0.3267
 2188SOL    HW210353   8.925   1.597   4.398 -1.1399 -0.8343  0.0722
 2189SOL     OW10354   7.715   3.991   3.645 -0.2046  0.1663 -0.1447
 2189SOL    HW110355   7.651   4.062   3.647 -2.2303 -1.5710  0.0792
 2189SOL    HW210356   7.792   4.027   3.689 -1.0624  2.2791 -0.2352
 2190SOL     OW10357   1.281   4.968   9.761 -0.1843  0.8081  0.5898
 2190SOL    HW110358   1.324   4.927   9.836 -0.5666  0.2859  0.5318
 2190SOL    HW210359   1.334   5.044   9.741  1.3791 -0.4322 -0.1840
 2191SOL     OW10360   4.717   3.952   9.563 -0.1581 -0.0271  0.2310
 2191SOL    HW110361   4.788   3.950   9.627 -0.2470 -0.4809  0.3125
 2191SOL    HW210362   4.640   3.922   9.610 -0.1051 -0.9344 -0.2304
 2192SOL     OW10363  10.145   1.395   1.831  0.1378  0.2442 -0.3343
 2192SOL    HW110364  10.141   1.401   1.926 -1.4864  0.6692 -0.3968
 2192SOL    HW210365  10.142   1.486   1.801 -3.7117  0.1530 -0.8163
 2193SOL     OW10366   9.373   0.269   6.498 -0.5467 -0.6292  0.0311
 2193SOL    HW110367   9.344   0.189   6.543  1.5660 -1.3728  0.1754
 2193SOL    HW210368   9.405   0.238   6.413 -0.5580  0.2050 -0.2817
 2194SOL     OW10369   0.289   4.795   0.186  0.2325  0.1547 -0.5822
 2194SOL    HW110370   0.211   4.815   0.135  0.9871 -0.3026 -1.9554
 2194SOL    HW210371   0.299   4.701   0.179 -0.9519 -0.2957  2.4000
 2195SOL     OW10372   6.234   6.018   9.801  0.0596  0.2365  0.0545
 2195SOL    HW110373   6.299   5.990   9.865  0.2025  0.9239  0.2240
 2195SOL    HW210374   6.282   6.018   9.718 -0.0059 -0.2348  0.0146
 2196SOL     OW10375   2.614   2.718   0.554 -0.0597  0.3406 -0.0061
 2196SOL    HW110376   2.577   2.632   0.573  0.2748  0.5422  1.8119
 2196SOL    HW210377   2.606   2.766   0.637  1.5083  1.3957 -0.4171
 2197SOL     OW10378   7.492   6.284   2.440 -0.8165  0.0438  0.4805
 2197SOL    HW110379   7.409   6.310   2.480 -0.1869  0.3964  1.6211
 2197SOL    HW210380   7.547   6.362   2.447 -1.3378  0.8999 -3.1492
 2198SOL     OW10381   5.175   2.931   3.287  0.8036  0.3796 -0.0930
 2198SOL    HW110382   5.206   2.844   3.264  0.2916 -0.5011  2.2025
 2198SOL    HW210383   5.093   2.916   3.335  0.7845  2.0929  0.5128
 2199SOL     OW10384   8.544   4.537   6.731  0.1978 -0.5846  0.3398
 2199SOL    HW110385   8.556   4.457   6.680 -0.6752 -0.7124  0.3218
 2199SOL    HW210386   8.500   4.508   6.811 -0.3298 -0.1048  0.2328
 2200SOL     OW10387   7.434   3.375   7.414  0.2723  0.0512 -0.3256
 2200SOL    HW110388   7.485   3.386   7.333 -0.7899  1.2972 -0.8708
 2200SOL    HW210389   7.396   3.461   7.430 -2.1153 -0.9310 -0.2721
 2201SOL     OW10390   8.497   8.973   7.029 -0.5719  0.0757 -0.1078
 2201SOL    HW110391   8.497   9.006   6.939 -2.6544  0.4072 -0.0364
 2201SOL    HW210392   8.475   9.049   7.082 -1.3390 -0.5429  0.4754
 2202SOL     OW10393   2.096   9.690   8.881  0.4784 -0.7088 -0.2948
 2202SOL    HW110394   2.095   9.689   8.976  1.8423 -1.7142 -0.2602
 2202SOL    HW210395   2.188   9.702   8.857 -0.1099  1.9837 -1.5233
 2203SOL     OW10396   8.683   0.809   6.933 -0.9110 -0.1140 -0.1012
 2203SOL    HW110397   8.766   0.849   6.957  0.0798 -2.7512  1.1978
 2203SOL    HW210398   8.620   0.847   6.994 -0.3285  0.6037  0.0632
 2204SOL     OW10399   0.880   3.999   7.465  0.0388 -0.1052  0.2591
 2204SOL    HW110400   0.919   3.921   7.425 -1.1178  0.0937 -1.3856
 2204SOL    HW210401   0.836   4.043   7.392 -2.4290  0.1797  1.8095
 2205SOL     OW10402   9.239   7.322   1.991  0.1732  1.0344  0.1048
 2205SOL    HW110403   9.319   7.336   2.042  0.8301 -1.2353 -0.1950
 2205SOL    HW210404   9.269   7.276   1.913 -1.5619 -1.2060  0.6687
 2206SOL     OW10405   5.385   7.103   1.314  0.1625  0.2638 -0.3330
 2206SOL    HW110406   5.330   7.114   1.236  1.2426  1.3784 -0.9833
 2206SOL    HW210407   5.397   7.009   1.322 -1.9683 -0.0352 -0.0492
 2207SOL     OW10408   0.333   4.203   5.056 -0.0413  0.4648 -0.1256
 2207SOL    HW110409   0.321   4.158   5.140  0.9114  2.7114  1.2833
 2207SOL    HW210410   0.416   4.248   5.065  0.2503  0.4710 -2.4539
 2208SOL     OW10411   5.297   4.845   9.282 -0.3107  0.2381 -0.5472
 2208SOL    HW110412   5.330   4.789   9.353  0.7885  1.1300 -0.3140
 2208SOL    HW210413   5.360   4.918   9.279 -2.2672  2.0353 -0.1216
 2209SOL     OW10414   4.858  10.280   3.346  0.2122  0.5993  0.8414
 2209SOL    HW110415   4.801  10.254   3.273  0.9622  0.7686  0.1715
 2209SOL    HW210416   4.800  10.322   3.409 -0.5775 -0.2593  0.7011
 2210SOL     OW10417   0.925   1.944   7.299  0.4766 -0.0119  0.2682
 2210SOL    HW110418   0.885   1.869   7.343  1.4338  0.1672  1.4790
 2210SOL    HW210419   0.862   1.968   7.231 -1.4222  0.1773  2.0068
 2211SOL     OW10420   4.627   3.185   8.779 -0.0101 -0.3331 -0.6244
 2211SOL    HW110421   4.708   3.167   8.731  0.3105  1.5237 -0.8868
 2211SOL    HW210422   4.563   3.126   8.742  1.0850 -1.4358 -0.8274
 2212SOL     OW10423   8.231   7.356   2.500 -0.1502 -0.7025 -0.2981
 2212SOL    HW110424   8.252   7.449   2.497  0.3071 -0.8347 -2.0660
 2212SOL    HW210425   8.173   7.347   2.576 -0.5363  1.0748 -0.3446
 2213SOL     OW10426   4.952   0.738   3.094 -0.0556 -0.4574  0.2368
 2213SOL    HW110427   4.988   0.673   3.155  0.4271 -0.9021 -0.4972
 2213SOL    HW210428   4.919   0.808   3.150 -0.6351 -1.3534  1.0506
 2214SOL     OW10429   9.155   1.102   0.634 -0.2309 -0.0644 -0.1939
 2214SOL    HW110430   9.061   1.095   0.621 -0.0602 -1.1701 -0.9414
 2214SOL    HW210431   9.187   1.145   0.555  0.2149 -2.3071 -1.2880
 2215SOL     OW10432  10.358   0.817   6.828  0.4278 -0.0385  0.4535
 2215SOL    HW110433  10.346   0.852   6.740 -0.0652 -1.4373 -0.0731
 2215SOL    HW210434  10.444   0.775   6.826  1.2125  1.4852  1.2146
 2216SOL     OW10435   9.489   3.379   2.873 -0.0002 -0.1571 -0.9721
 2216SOL    HW110436   9.442   3.410   2.796 -0.8462 -1.3732 -0.9769
 2216SOL    HW210437   9.492   3.284   2.863  2.2872 -0.1728 -0.8514
 2217SOL     OW10438   3.522   9.956   6.925  0.4555 -0.3385  0.3484
 2217SOL    HW110439   3.467   9.905   6.984 -0.6334  0.6165  0.1828
 2217SOL    HW210440   3.564  10.021   6.981  1.1407 -0.8172  0.4098
 2218SOL     OW10441   0.350   4.669   9.497 -0.1438 -0.0632 -0.1661
 2218SOL    HW110442   0.426   4.644   9.548  1.3678  1.8939 -1.2958
 2218SOL    HW210443   0.332   4.759   9.524 -1.3715 -0.1277 -0.7165
 2219SOL     OW10444   2.833   8.216   5.662 -0.5269 -0.2530 -0.1820
 2219SOL    HW110445   2.743   8.198   5.634 -0.8052  0.4442  0.2472
 2219SOL    HW210446   2.862   8.286   5.604  0.5107 -1.9136 -1.7693
 2220SOL     OW10447   0.483   0.635   9.209  0.1718 -0.6376  0.3204
 2220SOL    HW110448   0.484   0.727   9.238  0.9322 -0.9208  1.2355
 2220SOL    HW210449   0.566   0.622   9.165  0.0422 -0.8724  0.1438
 2221SOL     OW10450   0.946   7.555  10.323 -0.4625 -0.4659 -0.1106
 2221SOL    HW110451   0.964   7.461  10.315 -0.6755 -0.6062  0.9295
 2221SOL    HW210452   0.997   7.583  10.398 -1.4619 -0.0418  0.4237
 2222SOL     OW10453   9.777   1.761   8.643 -0.0902  1.2476  0.6511
 2222SOL    HW110454   9.773   1.688   8.705 -1.8657 -0.1637 -0.9894
 2222SOL    HW210455   9.870   1.782   8.637  0.5771 -1.2949  0.7719
 2223SOL     OW10456   3.134   7.553   2.471 -0.1103 -0.0329 -0.1230
 2223SOL    HW110457   3.046   7.559   2.508 -0.5707 -2.3997 -0.6382
 2223SOL    HW210458   3.192   7.589   2.538 -1.2938 -0.3818  1.1238
 2224SOL     OW10459   8.698   3.687   6.920 -0.4927 -0.4693 -0.0517
 2224SOL    HW110460   8.611   3.678   6.959 -1.0179  1.4232 -0.6757
 2224SOL    HW210461   8.739   3.757   6.971  1.3572 -2.4477  1.3293
 2225SOL     OW10462   2.580   4.499   4.768  0.2858 -0.0791  0.0526
 2225SOL    HW110463   2.517   4.431   4.741  0.2439  0.3475 -0.9629
 2225SOL    HW210464   2.630   4.458   4.839 -1.2376 -0.3750  1.0068
 2226SOL     OW10465   4.844   3.638   8.153 -0.4465 -0.0397 -1.1416
 2226SOL    HW110466   4.871   3.570   8.215  2.5222 -0.0088 -2.2698
 2226SOL    HW210467   4.864   3.720   8.197 -0.1410  0.0243 -1.4006
 2227SOL     OW10468   3.867   9.047   1.485 -0.6209  0.1308  0.1306
 2227SOL    HW110469   3.829   8.967   1.520  1.6351 -1.1198 -0.0683
 2227SOL    HW210470   3.851   9.042   1.391 -1.2017  0.3401  0.2155
 2228SOL     OW10471   4.186   3.935   9.766  0.8274  0.2358 -0.3072
 2228SOL    HW110472   4.148   3.985   9.838 -1.0626 -0.5328 -0.7054
 2228SOL    HW210473   4.166   3.987   9.688 -2.0504 -1.4361 -0.8497
 2229SOL     OW10474  10.036   5.525   0.613 -0.1697  0.5731  0.2178
 2229SOL    HW110475  10.036   5.542   0.519  0.5620  1.2885  0.3265
 2229SOL    HW210476   9.975   5.452   0.625 -0.4189  0.6024 -0.7808
 2230SOL     OW10477   9.001   9.614   2.569 -0.0718  0.8528 -0.3173
 2230SOL    HW110478   8.920   9.598   2.618  0.4406 -0.0903  0.2581
 2230SOL    HW210479   8.999   9.550   2.498  0.5785  0.1958  0.2345
 2231SOL     OW10480   6.822   4.586   3.921  0.0427  0.0573 -0.3667
 2231SOL    HW110481   6.896   4.550   3.969  0.4320  1.4784  0.1567
 2231SOL    HW210482   6.762   4.617   3.988 -0.6647 -0.3409 -0.7959
 2232SOL     OW10483   6.044   2.758   2.869 -0.1398 -0.3546  0.3702
 2232SOL    HW110484   5.955   2.760   2.835  0.2797  0.1674 -0.7525
 2232SOL    HW210485   6.099   2.780   2.794  0.9676 -1.0207  0.9528
 2233SOL     OW10486   4.992   8.781   0.583 -0.4875  0.0476 -0.1163
 2233SOL    HW110487   5.069   8.776   0.526 -0.9365  0.8696 -0.8249
 2233SOL    HW210488   4.991   8.872   0.614 -0.4232 -0.3101  0.9778
 2234SOL     OW10489   8.182   7.169   3.272  0.0851  0.3800  0.3838
 2234SOL    HW110490   8.248   7.221   3.227 -0.8615 -0.1112 -1.7199
 2234SOL    HW210491   8.154   7.104   3.207  0.1986 -1.8591  2.4328
 2235SOL     OW10492   3.261   1.031   1.574 -0.0109  0.2474 -0.0538
 2235SOL    HW110493   3.182   0.992   1.538  0.2458  0.5663 -0.9933
 2235SOL    HW210494   3.252   1.125   1.556 -0.2737  0.5501  1.5083
 2236SOL     OW10495   9.968   3.906   4.055 -0.0435  0.1357 -0.6694
 2236SOL    HW110496  10.028   3.834   4.078  0.8537  1.2166  0.5738
 2236SOL    HW210497   9.961   3.957   4.136 -0.6349  1.4523 -1.5221
 2237SOL     OW10498   4.227   0.698   4.053  0.0431 -0.6077 -0.2210
 2237SOL    HW110499   4.259   0.736   3.971  0.8161 -0.0593  0.3208
 2237SOL    HW210500   4.141   0.737   4.066 -0.1653 -0.8350 -0.8535
 2238SOL     OW10501   2.220   5.574   7.626 -0.0252 -0.0547 -0.0993
 2238SOL    HW110502   2.179   5.498   7.583 -0.4741  0.1946 -0.1195
 2238SOL    HW210503   2.281   5.608   7.560 -0.9049  0.4856 -0.6626
 2239SOL     OW10504   0.501   1.341   3.007 -0.1065 -0.4595 -0.1236
 2239SOL    HW110505   0.504   1.366   2.914 -1.0201 -0.6105 -0.2012
 2239SOL    HW210506   0.556   1.263   3.012  1.8119  0.8303 -0.0936
 2240SOL     OW10507   5.826   2.057   5.728  0.2811 -0.6804 -0.2504
 2240SOL    HW110508   5.779   2.097   5.654  1.4383 -1.1283 -1.2700
 2240SOL    HW210509   5.770   2.073   5.804 -1.8199 -1.7554 -1.4960
 2241SOL     OW10510   2.976   6.456   2.031  0.3294  0.3764 -0.0305
 2241SOL    HW110511   3.031   6.531   2.055  0.9635  0.2988 -1.1579
 2241SOL    HW210512   2.980   6.398   2.107  1.2221  0.7120  0.1926
 2242SOL     OW10513   4.835   0.056   5.402 -0.0749  0.1482  0.3353
 2242SOL    HW110514   4.783   0.041   5.323  0.9325 -0.6290 -0.1885
 2242SOL    HW210515   4.774   0.037   5.474 -0.0552 -2.5906 -0.2710
 2243SOL     OW10516   2.527   2.107   9.584  0.1858  0.0091 -0.2799
 2243SOL    HW110517   2.438   2.083   9.611  0.4890 -0.7218  0.1041
 2243SOL    HW210518   2.525   2.202   9.575 -0.1015  0.2504  1.8039
 2244SOL     OW10519   3.044   9.950   2.140 -0.1883  0.0929 -0.0097
 2244SOL    HW110520   3.095   9.878   2.101 -1.4102  0.3366 -2.2485
 2244SOL    HW210521   2.966   9.956   2.085 -0.4300  2.7330  0.4993
 2245SOL     OW10522   6.725   4.147   7.069 -0.4183  0.0064  0.5261
 2245SOL    HW110523   6.731   4.052   7.076  1.0095  0.0961  0.8281
 2245SOL    HW210524   6.705   4.176   7.158 -0.4605  0.0092  0.5156
 2246SOL     OW10525   4.978   8.659   9.184 -0.0729 -0.1617 -0.6007
 2246SOL    HW110526   4.895   8.664   9.137 -0.6751  0.7070  0.5033
 2246SOL    HW210527   5.020   8.743   9.167  0.6710 -0.6690 -1.3010
 2247SOL     OW10528   2.003   4.227   7.842 -0.1321  0.4646 -0.2077
 2247SOL    HW110529   1.988   4.151   7.897  3.8971 -0.5661 -0.2145
 2247SOL    HW210530   2.023   4.298   7.904 -3.4723  1.5825 -0.2176
 2248SOL     OW10531   7.714   1.541  10.098 -0.2455  0.3764 -0.1105
 2248SOL    HW110532   7.661   1.621  10.094 -0.6289  0.1393  0.0764
 2248SOL    HW210533   7.779   1.552  10.029  0.0405  1.0791  0.2581
 2249SOL     OW10534   9.459   3.974   0.118  0.0853  0.1707  0.0875
 2249SOL    HW110535   9.546   3.935   0.127 -0.9166 -2.6666 -1.4395
 2249SOL    HW210536   9.448   4.024   0.199  1.6138 -2.5922  2.2040
 2250SOL     OW10537   7.637   0.588   4.083 -0.1712 -0.3741 -0.4248
 2250SOL    HW110538   7.619   0.585   4.177  0.6128  1.4118 -0.1727
 2250SOL    HW210539   7.633   0.681   4.061  0.1687 -0.7157 -2.0624
 2251SOL     OW10540   8.656   6.535   6.035  0.4248  0.1754  0.2862
 2251SOL    HW110541   8.698   6.545   6.120 -0.0924  1.1826  0.4444
 2251SOL    HW210542   8.666   6.442   6.014 -0.6890 -0.4084  2.1042
 2252SOL     OW10543   4.099   6.160   1.810 -0.5848 -0.0923 -0.4152
 2252SOL    HW110544   4.038   6.104   1.762 -1.9092 -0.6987  1.7994
 2252SOL    HW210545   4.059   6.169   1.897  2.1886  0.0012  0.9431
 2253SOL     OW10546   3.256   8.075   5.625  0.4828 -0.1781 -0.0850
 2253SOL    HW110547   3.266   7.997   5.570 -0.4689  0.7258 -1.6134
 2253SOL    HW210548   3.325   8.134   5.594 -0.1708  0.4036 -0.4615
 2254SOL     OW10549   9.434   1.277   1.068 -0.2371  0.1703 -0.7646
 2254SOL    HW110550   9.367   1.209   1.067  0.0115 -0.1228  0.5663
 2254SOL    HW210551   9.511   1.235   1.106  0.2630  0.8943 -0.9479
 2255SOL     OW10552   5.753   6.314   7.086 -0.0574  0.4616 -0.3065
 2255SOL    HW110553   5.734   6.234   7.135  0.0142 -0.2479 -1.3893
 2255SOL    HW210554   5.667   6.342   7.052  0.1386 -0.1195 -1.3224
 2256SOL     OW10555   2.131   4.987   0.012  0.0886 -0.5432  0.3296
 2256SOL    HW110556   2.177   5.044  -0.049 -0.7300  0.1745  0.3632
 2256SOL    HW210557   2.140   4.899  -0.025  2.5695 -0.6535  0.9985
 2257SOL     OW10558   9.583  10.203   3.075 -0.0668 -0.3592  0.4966
 2257SOL    HW110559   9.629  10.122   3.097  0.1884 -0.2841  0.2419
 2257SOL    HW210560   9.500  10.197   3.123 -1.0762 -1.8396 -1.2878
 2258SOL     OW10561   1.205   6.054   4.611  0.4487  0.0178  0.5973
 2258SOL    HW110562   1.123   6.083   4.650 -2.3708 -1.3474 -3.6278
 2258SOL    HW210563   1.224   6.119   4.544  1.3339 -1.0862 -0.2529
 2259SOL     OW10564   1.580   4.345   3.082 -0.3821  0.0220  0.1984
 2259SOL    HW110565   1.518   4.283   3.119  0.0902 -0.7540 -0.2854
 2259SOL    HW210566   1.596   4.408   3.153 -3.1053  1.3444 -0.2418
 2260SOL     OW10567   8.525   0.486   0.563 -0.1894 -0.6193 -0.0078
 2260SOL    HW110568   8.592   0.459   0.499 -0.5784 -1.8191  0.0706
 2260SOL    HW210569   8.575   0.525   0.635  0.3628 -0.6735 -0.3571
 2261SOL     OW10570  10.116   0.220   6.357  0.3194 -0.3361  0.1399
 2261SOL    HW110571  10.140   0.255   6.442 -0.4710  2.8800 -0.8451
 2261SOL    HW210572  10.021   0.209   6.360  0.4745 -2.0261  0.2210
 2262SOL     OW10573   7.951   1.408   3.146  0.3960  0.6899  0.3469
 2262SOL    HW110574   7.947   1.331   3.203 -0.1345  0.6379  0.2424
 2262SOL    HW210575   7.910   1.380   3.064  0.8536  0.8675  0.0531
 2263SOL     OW10576   1.519   2.872   8.917  0.3493  0.1143 -0.1250
 2263SOL    HW110577   1.560   2.826   8.990  0.5203  0.1840 -0.1762
 2263SOL    HW210578   1.592   2.913   8.870  0.1770  0.6916  0.0948
 2264SOL     OW10579   4.098   5.506   2.225 -0.1537 -0.6133 -0.3685
 2264SOL    HW110580   4.043   5.582   2.242 -0.1452 -0.6477 -0.1771
 2264SOL    HW210581   4.048   5.431   2.259  0.4801 -0.5200  0.8443
 2265SOL     OW10582   2.529   4.000   4.860  0.5332  0.0737  0.3611
 2265SOL    HW110583   2.526   3.969   4.770 -1.4913  3.4613 -0.9420
 2265SOL    HW210584   2.439   3.989   4.892  0.6427  1.0957  1.0821
 2266SOL     OW10585   0.628   5.223   4.572  0.0966 -0.0166  0.4165
 2266SOL    HW110586   0.604   5.266   4.490  0.0878 -0.0445  0.4044
 2266SOL    HW210587   0.697   5.279   4.609  0.2586 -0.1256  0.2806
 2267SOL     OW10588   1.476   4.444   7.911 -0.2137 -0.0955  0.0087
 2267SOL    HW110589   1.432   4.384   7.851 -1.4358 -0.0622  0.8455
 2267SOL    HW210590   1.559   4.464   7.868 -1.8202  1.4485 -2.6532
 2268SOL     OW10591   1.158   1.319   1.707  0.4319  0.0519 -0.3169
 2268SOL    HW110592   1.252   1.322   1.724  0.8921 -0.1321 -2.5274
 2268SOL    HW210593   1.148   1.255   1.637 -1.1096  1.3368 -1.3465
 2269SOL     OW10594  10.158   9.263   6.376 -0.4746  0.3423 -0.1799
 2269SOL    HW110595  10.215   9.289   6.304  2.0777 -1.4423  1.0474
 2269SOL    HW210596  10.131   9.174   6.355  0.7907 -0.4310  1.2588
 2270SOL     OW10597   5.513   5.888   8.187  0.2087 -0.1757  0.3582
 2270SOL    HW110598   5.479   5.954   8.248  1.1719  1.9799 -1.2870
 2270SOL    HW210599   5.548   5.939   8.114  0.9492 -2.5593 -1.0645
 2271SOL     OW10600   6.562   6.603  10.130 -0.1750  0.2331 -0.7105
 2271SOL    HW110601   6.481   6.594  10.079  1.0581  1.4739 -3.0734
 2271SOL    HW210602   6.534   6.636  10.215 -2.3493 -1.8580 -0.5094
 2272SOL     OW10603   1.361   1.696   3.363 -0.0766  0.1319 -0.6336
 2272SOL    HW110604   1.384   1.756   3.433  1.5295  1.3272 -2.0831
 2272SOL    HW210605   1.295   1.743   3.312 -1.1728 -0.6933 -0.0150
 2273SOL     OW10606   2.818   0.342   1.304 -0.2571  0.0408 -0.6216
 2273SOL    HW110607   2.901   0.390   1.303 -0.3657  0.2248 -0.6916
 2273SOL    HW210608   2.804   0.321   1.396  0.4032 -0.9097 -0.7173
 2274SOL     OW10609   1.884   9.094   2.583 -0.2711  0.6941  0.0192
 2274SOL    HW110610   1.964   9.071   2.630  0.1537 -0.2396 -1.1103
 2274SOL    HW210611   1.818   9.036   2.619  0.4781 -1.4354 -1.7914
 2275SOL     OW10612   1.136   4.593   2.969  0.5238 -0.1315 -0.0072
 2275SOL    HW110613   1.200   4.651   3.010  1.0617  0.0280 -1.0348
 2275SOL    HW210614   1.150   4.508   3.011 -1.8868  0.8885  3.2904
 2276SOL     OW10615   6.421   9.786   7.820 -0.2413 -0.4407  0.1879
 2276SOL    HW110616   6.479   9.806   7.894  0.9000 -4.1996  0.5509
 2276SOL    HW210617   6.440   9.853   7.755  0.2659  1.7670  2.4336
 2277SOL     OW10618  10.341   2.308   3.239 -0.4544  0.8112 -0.4899
 2277SOL    HW110619  10.423   2.303   3.190  0.1018  3.4394 -0.0208
 2277SOL    HW210620  10.364   2.276   3.327 -0.0726  0.9918 -0.5209
 2278SOL     OW10621   8.672   5.097   7.979  0.6025  0.2023  0.0162
 2278SOL    HW110622   8.711   5.093   8.066  0.3418 -0.6084  0.1070
 2278SOL    HW210623   8.578   5.084   7.994  0.6156 -0.4766 -0.4244
 2279SOL     OW10624   2.604   0.238   4.853  0.1213 -0.4640  0.4679
 2279SOL    HW110625   2.579   0.191   4.932 -1.2004 -0.7637 -0.1001
 2279SOL    HW210626   2.700   0.231   4.850  0.0702 -1.7516  1.2230
 2280SOL     OW10627   3.955   2.478   7.072 -0.7149 -0.3103  0.0604
 2280SOL    HW110628   3.909   2.562   7.070  1.1287  0.9980  3.4994
 2280SOL    HW210629   3.886   2.412   7.066 -2.3033  1.3993 -1.7418
 2281SOL     OW10630   1.615   2.150   0.477 -0.9317 -0.3003  0.5587
 2281SOL    HW110631   1.686   2.201   0.516  0.4830 -1.9786  0.2970
 2281SOL    HW210632   1.548   2.147   0.545 -0.3700  0.5108  1.1766
 2282SOL     OW10633   5.758   1.834   0.082  0.6039  0.0449  0.3766
 2282SOL    HW110634   5.728   1.768   0.019 -0.2232 -0.1631  0.9719
 2282SOL    HW210635   5.811   1.785   0.145  0.1905 -0.0245  0.6801
 2283SOL     OW10636   2.461  10.088   1.854  0.0669 -0.0061  0.3434
 2283SOL    HW110637   2.554  10.084   1.832 -0.2096 -1.7742 -0.6621
 2283SOL    HW210638   2.429  10.166   1.809  1.0054  0.5138  0.5403
 2284SOL     OW10639   6.796   8.056   6.944  0.6425  0.3126 -0.4963
 2284SOL    HW110640   6.712   8.102   6.933  0.2422  0.1155  1.3983
 2284SOL    HW210641   6.851   8.117   6.992  1.0536 -0.1407 -0.3807
 2285SOL     OW10642   9.779   0.360   3.548 -0.6659  0.0769 -0.2605
 2285SOL    HW110643   9.777   0.265   3.556 -1.9385  0.1216  0.1349
 2285SOL    HW210644   9.721   0.380   3.475  0.5717  0.4932 -1.1677
 2286SOL     OW10645   8.551   5.619   3.382  0.2842  0.5227 -0.3310
 2286SOL    HW110646   8.575   5.532   3.413 -1.2460  0.1481 -0.1347
 2286SOL    HW210647   8.633   5.656   3.349  1.2094 -0.4854  0.7659
 2287SOL     OW10648   9.139   2.170   6.613  0.2534 -0.0291 -0.4137
 2287SOL    HW110649   9.154   2.251   6.565 -1.0446  0.1068 -0.6362
 2287SOL    HW210650   9.221   2.121   6.605  1.0126  1.2052 -0.3659
 2288SOL     OW10651   5.289   8.577   0.554 -0.1848 -0.2752 -0.4368
 2288SOL    HW110652   5.360   8.639   0.568 -0.4604 -0.4791  2.3974
 2288SOL    HW210653   5.333   8.492   0.543  0.0623 -0.0636 -1.1541
 2289SOL     OW10654   7.289   5.702   7.832  0.5518  0.9626 -0.2345
 2289SOL    HW110655   7.237   5.715   7.912  0.3369 -0.4856 -0.1019
 2289SOL    HW210656   7.256   5.767   7.771 -0.4718  0.9839  0.3154
 2290SOL     OW10657   1.046   7.522   1.574 -0.2183 -0.1365  0.4269
 2290SOL    HW110658   0.986   7.597   1.573  0.9397  0.8208  0.7901
 2290SOL    HW210659   1.130   7.559   1.599  0.3660 -1.5861  0.6917
 2291SOL     OW10660   2.735   0.893   4.642  0.0162 -0.6241  0.0292
 2291SOL    HW110661   2.722   0.800   4.622  1.0140 -0.6632 -0.5032
 2291SOL    HW210662   2.677   0.938   4.580 -0.2561 -0.8814  0.0927
 2292SOL     OW10663   4.996   6.121   4.536 -0.4728  0.0943  0.3332
 2292SOL    HW110664   5.046   6.173   4.599 -0.5458 -0.5265  0.9194
 2292SOL    HW210665   4.940   6.184   4.492 -0.0516  0.6162  0.5298
 2293SOL     OW10666   8.213   2.258   5.812 -0.3959 -0.2291 -0.2523
 2293SOL    HW110667   8.276   2.287   5.746 -1.2678 -0.5325 -1.2567
 2293SOL    HW210668   8.183   2.172   5.781  0.2243 -1.0506  1.3006
 2294SOL     OW10669   7.765   5.373   0.612  0.1218  0.0212  0.0582
 2294SOL    HW110670   7.754   5.360   0.706 -0.2731 -0.2535 -0.0241
 2294SOL    HW210671   7.859   5.363   0.597  0.0716 -0.8543  0.2818
 2295SOL     OW10672   6.106   3.937   7.164  0.1706 -0.2669  0.2446
 2295SOL    HW110673   6.045   4.007   7.140  1.0511  0.4331 -0.0270
 2295SOL    HW210674   6.077   3.862   7.112  0.1463  0.3449 -0.6603
 2296SOL     OW10675   6.011   6.323   2.581 -0.0672 -0.2212 -0.2406
 2296SOL    HW110676   5.951   6.272   2.637 -2.1130  1.1814 -1.0272
 2296SOL    HW210677   6.053   6.384   2.641 -0.4372 -0.3189  0.1297
 2297SOL     OW10678   1.301   8.488   2.072  0.1370 -0.1280  0.3701
 2297SOL    HW110679   1.371   8.425   2.058 -1.6399 -2.4760  1.3440
 2297SOL    HW210680   1.312   8.553   2.002  0.3321 -3.1378 -2.6394
 2298SOL     OW10681   8.423   6.985   1.507 -0.0465 -0.2105 -0.2399
 2298SOL    HW110682   8.378   6.917   1.557 -1.0870 -1.3929 -2.6282
 2298SOL    HW210683   8.368   7.063   1.517 -1.0145 -0.8259 -0.6555
 2299SOL     OW10684   0.211   1.439   3.790 -0.2871 -0.3787  0.2187
 2299SOL    HW110685   0.266   1.397   3.723  1.3064  1.5548  0.2443
 2299SOL    HW210686   0.160   1.367   3.827 -0.2925 -1.7144 -2.1718
 2300SOL     OW10687   2.239  10.236   4.138  0.8512 -0.3148  0.0052
 2300SOL    HW110688   2.262  10.241   4.045  1.2730 -2.0747 -0.0179
 2300SOL    HW210689   2.321  10.254   4.184  1.5313 -2.9780 -0.0407
 2301SOL     OW10690   8.604   9.281   8.495 -0.1188  0.2596 -0.2881
 2301SOL    HW110691   8.694   9.310   8.483 -0.0484  0.3549  0.3900
 2301SOL    HW210692   8.607   9.187   8.476  0.1921  0.2019  0.0169
 2302SOL     OW10693   5.329   6.356   2.243  0.3563  0.0587 -0.2786
 2302SOL    HW110694   5.400   6.406   2.284  0.4933  0.0807 -0.5411
 2302SOL    HW210695   5.363   6.267   2.234 -0.3605 -0.4292  1.4069
 2303SOL     OW10696   0.316   8.000   3.987  0.2927 -0.2694  0.3131
 2303SOL    HW110697   0.408   7.993   3.963  0.4815  0.1004  0.9062
 2303SOL    HW210698   0.297   7.918   4.033  0.8892  0.4941  1.9912
 2304SOL     OW10699   2.332   9.241   6.490  0.0441  0.7718 -0.2208
 2304SOL    HW110700   2.338   9.162   6.543  0.0382  0.3532 -0.8421
 2304SOL    HW210701   2.384   9.306   6.538 -2.9542  1.5470  2.2922
 2305SOL     OW10702   6.535   1.298   8.593 -0.3952 -0.2994  0.5789
 2305SOL    HW110703   6.471   1.264   8.531 -0.4494  0.9004 -0.0403
 2305SOL    HW210704   6.619   1.267   8.561 -0.4277  0.2847 -0.0795
 2306SOL     OW10705   1.220   2.362   3.906 -0.1595 -0.0617 -0.1156
 2306SOL    HW110706   1.147   2.305   3.928 -0.6457  1.6650  3.5202
 2306SOL    HW210707   1.179   2.443   3.876  0.3391  0.0446 -0.5241
 2307SOL     OW10708   7.857   1.945  10.197 -0.2255 -0.7351  0.0730
 2307SOL    HW110709   7.779   1.998  10.181  1.7050  2.4702  0.5747
 2307SOL    HW210710   7.908   1.952  10.117  1.3086  0.5252  1.1189
 2308SOL     OW10711   8.666   8.241   2.425 -0.2640  0.0419 -0.0553
 2308SOL    HW110712   8.682   8.243   2.520 -1.3396  0.4964  0.1392
 2308SOL    HW210713   8.700   8.156   2.397  0.8752  0.2745  0.5804
 2309SOL     OW10714   8.408   6.778   0.177 -0.4806 -0.6045 -0.1180
 2309SOL    HW110715   8.452   6.824   0.248  1.9385 -0.6544 -1.4890
 2309SOL    HW210716   8.409   6.686   0.203 -0.1607 -0.5483  0.0655
 2310SOL     OW10717   9.361   6.814   6.342 -0.3268  0.6193  0.3998
 2310SOL    HW110718   9.292   6.863   6.296  0.4622  0.3514 -1.1304
 2310SOL    HW210719   9.436   6.818   6.283  1.8170  2.9265  3.0588
 2311SOL     OW10720   9.622   8.219   6.843  0.3050 -0.3618  0.1050
 2311SOL    HW110721   9.531   8.192   6.835 -0.3467  1.1114  1.8810
 2311SOL    HW210722   9.661   8.153   6.900 -0.8641  1.3064  3.0571
 2312SOL     OW10723   7.529   2.039   3.459  0.1969  0.0664 -0.3400
 2312SOL    HW110724   7.544   2.133   3.447  1.3307 -0.3153 -2.4567
 2312SOL    HW210725   7.587   2.014   3.530  0.0208  0.9223  0.1183
 2313SOL     OW10726   0.227   5.028   3.231  0.2670 -0.1659 -0.0428
 2313SOL    HW110727   0.236   4.942   3.189  1.2985 -1.2160  2.1609
 2313SOL    HW210728   0.295   5.082   3.191  1.1704 -1.1065  0.1894
 2314SOL     OW10729   8.274   2.451   8.942 -0.4514  0.3189  0.6280
 2314SOL    HW110730   8.290   2.426   8.851 -3.1063  1.9110 -0.3804
 2314SOL    HW210731   8.347   2.509   8.964 -0.3543  0.8076 -0.8738
 2315SOL     OW10732   6.270   7.453   6.922 -0.5921 -0.3221 -0.3131
 2315SOL    HW110733   6.273   7.457   6.826 -0.5841  0.6642 -0.2903
 2315SOL    HW210734   6.361   7.458   6.949 -0.6801  2.2559 -0.2210
 2316SOL     OW10735   7.423   2.372   2.948  0.3119  0.1138  0.4164
 2316SOL    HW110736   7.332   2.394   2.967  0.2433  0.6239 -0.4701
 2316SOL    HW210737   7.439   2.405   2.860  1.3065 -0.1319  0.4835
 2317SOL     OW10738   3.793   9.760   3.807  0.5555 -0.1635 -0.7383
 2317SOL    HW110739   3.722   9.716   3.762  1.0262  1.2354 -3.0196
 2317SOL    HW210740   3.751   9.836   3.849  0.3623 -0.6139 -0.1029
 2318SOL     OW10741   5.975   1.454   0.337  0.1937  0.0272  0.4462
 2318SOL    HW110742   5.987   1.381   0.397 -1.4305 -0.2682  0.4629
 2318SOL    HW210743   5.953   1.413   0.253  1.2952  0.4662 -0.0819
 2319SOL     OW10744   1.305   4.642   4.745 -0.0279  0.5066  0.6356
 2319SOL    HW110745   1.338   4.552   4.747  1.1589  0.9143  1.9026
 2319SOL    HW210746   1.351   4.682   4.671 -0.6763  0.0527 -0.0298
 2320SOL     OW10747   9.040   8.305   4.426  0.5084 -0.6445  0.0149
 2320SOL    HW110748   9.036   8.245   4.501  0.8814  1.6433  1.9980
 2320SOL    HW210749   8.950   8.333   4.413  0.7080  0.5336  1.0242
 2321SOL     OW10750   0.022   3.257   0.299  0.5865  0.7661 -0.1175
 2321SOL    HW110751   0.006   3.345   0.335 -3.9103 -0.0943  0.5595
 2321SOL    HW210752   0.044   3.273   0.207 -0.4573  2.6634 -0.0958
 2322SOL     OW10753   4.367   9.058   0.863 -0.3933 -0.3095 -0.9694
 2322SOL    HW110754   4.427   9.007   0.917 -0.8396 -0.9698 -1.0845
 2322SOL    HW210755   4.286   9.008   0.863 -1.8870  1.8886  1.4191
 2323SOL     OW10756   3.912   5.560   0.271  0.2645  0.1727 -0.0805
 2323SOL    HW110757   3.980   5.611   0.228  0.6043  1.5126  1.8968
 2323SOL    HW210758   3.906   5.479   0.220  1.3587  1.2018 -1.9296
 2324SOL     OW10759   6.183   6.289   9.721  0.3676 -0.5702  0.0496
 2324SOL    HW110760   6.244   6.223   9.690 -0.7017 -0.7128 -1.9711
 2324SOL    HW210761   6.099   6.243   9.726  0.3786 -0.4368  2.9575
 2325SOL     OW10762   1.352   8.384   0.523 -0.2047 -0.7142 -0.2039
 2325SOL    HW110763   1.347   8.353   0.613 -0.6367 -0.1139 -0.0158
 2325SOL    HW210764   1.400   8.467   0.530  0.2115 -0.9170 -0.5942
 2326SOL     OW10765   0.805   5.320   3.059 -0.0832  0.2342  0.8208
 2326SOL    HW110766   0.847   5.288   2.979 -0.9259 -0.4796  0.6479
 2326SOL    HW210767   0.752   5.394   3.030  1.4675  1.5064  1.1351
 2327SOL     OW10768   3.441   3.028   2.980  0.3349  0.8775 -0.3592
 2327SOL    HW110769   3.451   3.081   2.901  1.4511 -1.4033 -1.8490
 2327SOL    HW210770   3.492   2.948   2.963  0.3228  0.1137  2.5224
 2328SOL     OW10771   3.376   4.335  10.263  0.0469 -0.0791 -0.1586
 2328SOL    HW110772   3.428   4.257  10.281  0.8729  0.5085  0.0572
 2328SOL    HW210773   3.440   4.406  10.255 -0.6561  0.5113 -0.7493
 2329SOL     OW10774   1.840  10.130   2.376  0.7070 -0.2425 -1.0290
 2329SOL    HW110775   1.754  10.089   2.388  0.6752 -0.6267 -2.3738
 2329SOL    HW210776   1.824  10.224   2.389  0.5093 -0.4931  0.7186
 2330SOL     OW10777   3.314   4.794   9.371 -0.5047 -0.0331  0.2252
 2330SOL    HW110778   3.356   4.731   9.313 -1.1793 -0.7917  0.5500
 2330SOL    HW210779   3.346   4.771   9.458  1.9152  2.1955  0.0689
 2331SOL     OW10780   1.105   5.607   3.849 -0.0105 -0.5059 -0.8800
 2331SOL    HW110781   1.046   5.648   3.786 -0.3866 -0.2202 -0.3540
 2331SOL    HW210782   1.051   5.592   3.927  0.6960  0.1024 -0.2538
 2332SOL     OW10783   2.694   7.600   8.997  0.2150 -0.1105  0.0877
 2332SOL    HW110784   2.707   7.680   8.945  1.7875 -1.0477 -1.0679
 2332SOL    HW210785   2.669   7.631   9.084  0.3165  1.6225 -0.4713
 2333SOL     OW10786   2.717   5.779   6.059 -0.1568 -0.2947 -0.3323
 2333SOL    HW110787   2.687   5.793   5.969 -0.9597  0.1409 -0.0066
 2333SOL    HW210788   2.659   5.834   6.112  0.7343 -0.0476  0.3948
 2334SOL     OW10789   0.431   6.848   5.507  0.3680 -0.6623 -0.4499
 2334SOL    HW110790   0.395   6.882   5.589  1.0624 -1.5551  0.2340
 2334SOL    HW210791   0.485   6.919   5.473  0.2458 -0.3645 -0.0255
 2335SOL     OW10792   9.431   2.427  10.042  0.6727 -0.2161 -0.3380
 2335SOL    HW110793   9.519   2.436  10.079  0.8161  0.6139 -0.8407
 2335SOL    HW210794   9.425   2.499   9.979 -0.6312  0.1779  0.2087
 2336SOL     OW10795   8.657  10.248   7.303 -0.3251  0.6960  0.1855
 2336SOL    HW110796   8.713  10.322   7.278  0.4920 -0.2483 -0.8415
 2336SOL    HW210797   8.692  10.174   7.255 -2.5132  0.0752 -0.5390
 2337SOL     OW10798   0.038   8.759   1.347 -0.0564  0.1442 -0.0180
 2337SOL    HW110799   0.048   8.832   1.408  0.9162  1.8410 -2.0875
 2337SOL    HW210800  -0.056   8.753   1.332 -0.0595  2.2269 -1.1688
 2338SOL     OW10801   8.004   9.104   3.372 -0.0255 -0.7964  0.4033
 2338SOL    HW110802   7.979   9.017   3.404  0.9736 -1.9998 -1.8478
 2338SOL    HW210803   8.092   9.092   3.338  0.0761  1.0989 -0.0746
 2339SOL     OW10804   1.776   9.628   9.382 -0.1566  0.0700 -0.5866
 2339SOL    HW110805   1.716   9.628   9.307 -0.2880  0.9770 -0.5002
 2339SOL    HW210806   1.842   9.562   9.361 -0.2903  0.1905 -1.4158
 2340SOL     OW10807   0.194   7.464   4.401 -0.2764 -0.2014 -0.2971
 2340SOL    HW110808   0.243   7.382   4.413 -0.8782 -0.7025 -1.1856
 2340SOL    HW210809   0.233   7.524   4.465  2.1999 -0.2519 -1.6332
 2341SOL     OW10810   9.086   5.217   8.510 -0.5971 -0.2410 -0.1527
 2341SOL    HW110811   9.039   5.257   8.438 -0.3938 -2.1733 -1.4288
 2341SOL    HW210812   9.162   5.274   8.524 -0.7262  0.2522 -1.3548
 2342SOL     OW10813   3.673   4.044   8.370  0.1591  0.4230 -0.2680
 2342SOL    HW110814   3.633   4.038   8.457  1.3706  0.9344  0.3566
 2342SOL    HW210815   3.630   3.976   8.319  0.1743 -0.6275  1.0452
 2343SOL     OW10816   9.007   1.720   9.534 -0.3505  0.3883  0.2685
 2343SOL    HW110817   9.096   1.708   9.567 -0.6124 -1.2248  0.4956
 2343SOL    HW210818   8.989   1.639   9.486 -2.1816  0.0426  1.4423
 2344SOL     OW10819   6.011   7.887   0.435 -0.0950 -0.7226 -0.0442
 2344SOL    HW110820   6.059   7.955   0.482  0.0404 -1.5361  1.0407
 2344SOL    HW210821   6.020   7.910   0.343 -0.6183  1.0901  0.3148
 2345SOL     OW10822   4.045   8.261   4.675 -0.0558  0.3056 -0.2200
 2345SOL    HW110823   4.108   8.333   4.678  1.0834 -0.6800  1.2733
 2345SOL    HW210824   4.068   8.212   4.596  0.5090  0.4365 -0.1392
 2346SOL     OW10825   5.287  10.033   1.674 -0.1926  0.5669  0.3171
 2346SOL    HW110826   5.248  10.109   1.629  0.7844  0.9973  0.1578
 2346SOL    HW210827   5.377  10.061   1.692  0.7182 -1.1538 -1.2573
 2347SOL     OW10828  10.130   2.761   7.137 -0.3743 -0.0894 -0.4283
 2347SOL    HW110829  10.219   2.732   7.157 -0.9027 -1.6350 -0.1212
 2347SOL    HW210830  10.099   2.800   7.219 -0.2332 -0.2779 -0.2824
 2348SOL     OW10831   6.774   1.733   1.900 -0.3329  0.7477 -0.3066
 2348SOL    HW110832   6.802   1.749   1.810  1.0188  1.1684  0.1618
 2348SOL    HW210833   6.853   1.747   1.952 -1.1159  0.5971  0.9547
 2349SOL     OW10834   5.937  10.213   6.399 -0.0503  0.1116 -0.5389
 2349SOL    HW110835   5.946  10.262   6.317 -1.0091  2.2315  0.5409
 2349SOL    HW210836   6.027  10.198   6.428  0.2737  0.1855 -1.4853
 2350SOL     OW10837   7.402   1.860   4.837 -0.2770  0.1217  0.0228
 2350SOL    HW110838   7.362   1.942   4.865  1.8755  1.2400  0.0566
 2350SOL    HW210839   7.495   1.872   4.853  0.0219 -2.7988  1.1322
 2351SOL     OW10840   1.799   7.268   9.226  0.3517 -0.1914 -0.2051
 2351SOL    HW110841   1.776   7.203   9.292 -0.0285 -0.8637 -0.9790
 2351SOL    HW210842   1.889   7.294   9.247  0.0445  0.0278  0.8945
 2352SOL     OW10843   3.601   4.089   6.346 -0.0593 -0.2331  0.1834
 2352SOL    HW110844   3.598   3.994   6.349  0.9604 -0.2488  1.1800
 2352SOL    HW210845   3.526   4.117   6.399 -0.8391 -0.4617 -0.7729
 2353SOL     OW10846   7.426   7.128   9.340 -0.2156  0.2836  0.3569
 2353SOL    HW110847   7.354   7.082   9.296 -0.3273 -2.8730  3.3655
 2353SOL    HW210848   7.504   7.078   9.317  0.1971  0.5381  1.1624
 2354SOL     OW10849   3.975   1.672   7.047  0.6198  0.9155  0.1638
 2354SOL    HW110850   3.896   1.725   7.055 -1.5428 -1.8569 -1.0995
 2354SOL    HW210851   3.989   1.664   6.953  0.6097 -1.0438  0.2956
 2355SOL     OW10852   8.564   2.149   2.218  0.5050 -0.3323 -0.0123
 2355SOL    HW110853   8.605   2.130   2.302  1.2910  0.5982 -0.1558
 2355SOL    HW210854   8.538   2.063   2.183  1.4615 -0.8645  0.5395
 2356SOL     OW10855   8.085   4.468   4.562  0.2124  0.0086 -0.0318
 2356SOL    HW110856   8.000   4.456   4.518  0.3348 -0.4751 -0.1417
 2356SOL    HW210857   8.142   4.404   4.520  0.7758  0.6970 -0.3207
 2357SOL     OW10858   1.101   1.269   8.698 -0.2158  0.1405  0.5357
 2357SOL    HW110859   1.174   1.292   8.756  0.7253  0.7518 -0.8187
 2357SOL    HW210860   1.041   1.343   8.705 -0.2021  0.1204  0.8750
 2358SOL     OW10861   9.410   2.977   6.525 -0.4220  0.6777 -0.3842
 2358SOL    HW110862   9.397   3.065   6.489  0.8069  0.3969 -1.6218
 2358SOL    HW210863   9.496   2.981   6.568 -0.0077 -0.0984 -1.1122
 2359SOL     OW10864   4.591   6.673   3.072 -0.3894  0.1588 -0.3059
 2359SOL    HW110865   4.556   6.759   3.096  0.1773  0.1050  0.7501
 2359SOL    HW210866   4.605   6.679   2.977 -2.6930  0.3716 -0.6858
 2360SOL     OW10867   8.153   2.482   7.559  0.1332  0.4200  0.2905
 2360SOL    HW110868   8.210   2.406   7.546 -0.9175 -0.0591 -2.1296
 2360SOL    HW210869   8.135   2.514   7.470 -2.5827  1.1155  0.9809
 2361SOL     OW10870   5.956   7.791   0.740  0.3517  0.5058  0.2957
 2361SOL    HW110871   5.880   7.779   0.683 -0.1849  0.2906  1.0360
 2361SOL    HW210872   5.949   7.721   0.805  1.5958  0.0336 -0.0612
 2362SOL     OW10873   8.860   4.777   0.544 -0.2942  0.3041 -0.0704
 2362SOL    HW110874   8.849   4.716   0.471 -0.2287  0.3203 -0.0937
 2362SOL    HW210875   8.954   4.793   0.548 -0.1086 -1.0161  1.0965
 2363SOL     OW10876   4.341   2.057   1.175  0.4687  0.1443  0.5485
 2363SOL    HW110877   4.426   2.099   1.159 -0.5544  1.4779 -1.9174
 2363SOL    HW210878   4.300   2.051   1.088 -1.4111 -1.7366  1.4714
 2364SOL     OW10879   8.404   0.618   3.612 -0.0337  0.1693 -0.3337
 2364SOL    HW110880   8.366   0.671   3.682 -1.0642  0.0338 -0.7743
 2364SOL    HW210881   8.364   0.652   3.531  0.8548  0.0781 -0.8309
 2365SOL     OW10882   6.722   7.587   5.240  0.1431  0.0865 -0.3524
 2365SOL    HW110883   6.710   7.531   5.164 -0.1593 -0.0388 -0.2155
 2365SOL    HW210884   6.751   7.528   5.309  0.7786  0.2608 -0.4686
 2366SOL     OW10885   2.838   0.541   8.702 -0.1666 -0.3259  0.5056
 2366SOL    HW110886   2.923   0.505   8.678 -0.2050  0.4489 -0.8929
 2366SOL    HW210887   2.785   0.465   8.727  0.5831 -0.9297  0.2839
 2367SOL     OW10888   6.815   7.374   0.212  0.0404  0.9262  0.1310
 2367SOL    HW110889   6.781   7.302   0.158  0.5998  0.7032  0.0706
 2367SOL    HW210890   6.910   7.360   0.214 -0.0762 -0.0041  2.5155
 2368SOL     OW10891   1.227   1.844   3.184  0.0132  0.0527 -0.6184
 2368SOL    HW110892   1.251   1.918   3.240 -0.2281  0.6553 -1.2912
 2368SOL    HW210893   1.225   1.881   3.095 -0.2706 -0.7254 -0.9465
 2369SOL     OW10894   2.860   0.009   4.711 -0.0655  0.6656  0.5150
 2369SOL    HW110895   2.802  -0.052   4.758  1.7950 -0.3683  1.5642
 2369SOL    HW210896   2.870   0.083   4.771 -2.4969  2.2706 -0.8423
 2370SOL     OW10897   1.335   3.085   4.415  0.2389 -0.0155  0.2848
 2370SOL    HW110898   1.431   3.092   4.407  0.0654  2.3944 -0.7372
 2370SOL    HW210899   1.311   3.164   4.463 -1.2200 -0.8704  0.9975
 2371SOL     OW10900   1.149  10.197   2.780 -0.4474 -0.3272 -0.1576
 2371SOL    HW110901   1.149  10.130   2.712  0.8220 -1.0172  0.4911
 2371SOL    HW210902   1.122  10.151   2.859 -0.3386  0.1001  0.1321
 2372SOL     OW10903   8.339   2.577   0.392 -0.3437 -0.1482 -0.2044
 2372SOL    HW110904   8.367   2.542   0.477 -0.5311  0.6713  0.2047
 2372SOL    HW210905   8.265   2.522   0.367  0.4542 -1.1523 -0.4111
 2373SOL     OW10906   5.816   3.918   5.582  0.0623 -0.4472  0.6114
 2373SOL    HW110907   5.782   3.835   5.617 -0.2294 -0.2381  0.8327
 2373SOL    HW210908   5.865   3.893   5.503 -0.2595 -0.7996  0.5197
 2374SOL     OW10909   8.033   3.136   5.914 -0.1040  0.2037  0.1192
 2374SOL    HW110910   8.036   3.064   5.851  0.3198  0.2400  0.0959
 2374SOL    HW210911   7.950   3.180   5.896  0.4690  0.8457 -1.1351
 2375SOL     OW10912   9.228   8.419   9.952 -0.0541 -0.2278  0.0484
 2375SOL    HW110913   9.283   8.452   9.881 -1.1041 -1.0905 -1.2154
 2375SOL    HW210914   9.271   8.449  10.032  0.7032  1.5121 -0.9635
 2376SOL     OW10915  10.245   8.401   2.051  0.1293 -0.2421  0.1870
 2376SOL    HW110916  10.151   8.382   2.055 -0.3088  1.8191  0.9498
 2376SOL    HW210917  10.276   8.389   2.141  0.4094 -0.0269  0.1207
 2377SOL     OW10918   2.658   7.142   0.019  0.1350 -0.3332  0.0216
 2377SOL    HW110919   2.696   7.224  -0.012  0.2876 -0.4926 -0.2128
 2377SOL    HW210920   2.664   7.082  -0.056 -0.7222 -0.3163 -0.0726
 2378SOL     OW10921   3.186   8.626  10.109  0.6445  0.4004  0.3041
 2378SOL    HW110922   3.203   8.720  10.111  0.6290  0.4787 -1.6133
 2378SOL    HW210923   3.155   8.609  10.020 -2.2649 -0.9563  1.4451
 2379SOL     OW10924  10.008   8.761   0.274 -0.5932  0.0928 -0.0391
 2379SOL    HW110925   9.946   8.797   0.337 -0.9544  0.4964 -0.6225
 2379SOL    HW210926  10.023   8.671   0.305 -0.0926  0.5515  1.1147
 2380SOL     OW10927   9.716   9.128   2.818 -0.0483  0.1853 -0.4659
 2380SOL    HW110928   9.736   9.053   2.874  1.1247 -1.5220 -2.9661
 2380SOL    HW210929   9.623   9.121   2.799  0.0297 -0.5938 -0.5828
 2381SOL     OW10930   5.857   6.130   8.371  0.5231  0.6323 -0.2686
 2381SOL    HW110931   5.903   6.085   8.442 -0.8560  0.8745  0.8247
 2381SOL    HW210932   5.840   6.061   8.306  0.5375  0.0833  0.2956
 2382SOL     OW10933   4.405   5.993   4.445 -0.6514  0.1408  0.2788
 2382SOL    HW110934   4.373   5.903   4.435  0.8447 -0.2839 -1.3844
 2382SOL    HW210935   4.390   6.033   4.359  0.8335  0.7109  0.2537
 2383SOL     OW10936   6.625   5.143   8.830  0.2188  0.4098  0.4097
 2383SOL    HW110937   6.557   5.199   8.867 -0.9791 -0.5646 -0.2217
 2383SOL    HW210938   6.623   5.064   8.884  0.5852  0.2222  0.1540
 2384SOL     OW10939   1.867   4.767   7.211 -0.4429  0.1352 -0.2435
 2384SOL    HW110940   1.906   4.774   7.124 -1.9156  2.5791 -0.8104
 2384SOL    HW210941   1.939   4.783   7.272  0.6587 -1.8950 -0.9396
 2385SOL     OW10942   9.194   3.426   4.557  0.3347  0.2565 -1.0045
 2385SOL    HW110943   9.150   3.344   4.534  0.2839  0.4212 -1.5092
 2385SOL    HW210944   9.281   3.399   4.585  0.3616  0.0412 -1.2940
 2386SOL     OW10945   2.538   8.336   9.054  0.2437  0.2120  0.7979
 2386SOL    HW110946   2.458   8.387   9.039  1.0329  0.9610 -1.2992
 2386SOL    HW210947   2.535   8.268   8.986  0.9506 -0.3072  1.2825
 2387SOL     OW10948   6.745   2.029   4.247  0.6995 -0.0186  0.8748
 2387SOL    HW110949   6.728   2.034   4.153  0.9169  0.5866  0.8608
 2387SOL    HW210950   6.765   1.937   4.263  3.5817  0.3166 -0.2056
 2388SOL     OW10951   4.080   3.268   3.660  0.1504 -0.5741 -0.3234
 2388SOL    HW110952   3.998   3.311   3.685  0.1839 -0.0047 -1.1750
 2388SOL    HW210953   4.058   3.174   3.659 -0.8157 -0.3546 -1.6745
 2389SOL     OW10954   2.869   7.511   9.738  0.5022 -0.1355 -0.4082
 2389SOL    HW110955   2.873   7.420   9.769  1.4052  0.2273  0.6130
 2389SOL    HW210956   2.815   7.555   9.804  0.4975  0.1723 -0.6205
 2390SOL     OW10957   8.803   4.762   1.906 -0.3735 -0.1575 -0.2089
 2390SOL    HW110958   8.731   4.795   1.852  0.8356  3.5020  0.1888
 2390SOL    HW210959   8.797   4.812   1.988  1.4228 -1.2605  0.6616
 2391SOL     OW10960   3.915   0.312   2.793  0.5072  0.6124  0.1311
 2391SOL    HW110961   3.866   0.249   2.740 -1.0791  2.3817 -0.6483
 2391SOL    HW210962   3.864   0.321   2.873  1.6376 -0.3008  0.9861
 2392SOL     OW10963   0.761   2.793   9.578  0.0199 -0.2177  0.3687
 2392SOL    HW110964   0.836   2.824   9.628  0.1285  1.1220 -0.5913
 2392SOL    HW210965   0.687   2.843   9.613 -0.0771 -0.0321 -0.1061
 2393SOL     OW10966   4.308   1.582   8.624  0.2988  0.1765 -0.0255
 2393SOL    HW110967   4.379   1.527   8.658 -0.0392 -0.2191  0.0405
 2393SOL    HW210968   4.277   1.537   8.546 -0.4372 -0.0908  0.4093
 2394SOL     OW10969   8.398   3.035   6.928 -0.5102 -0.5145  0.3942
 2394SOL    HW110970   8.361   3.121   6.951 -2.0928 -1.8232  3.3432
 2394SOL    HW210971   8.489   3.039   6.958 -1.0812 -0.3933  2.2492
 2395SOL     OW10972   2.129   4.826   9.971  0.1589 -0.0219  0.0063
 2395SOL    HW110973   2.069   4.861  10.037 -0.3033 -0.3627 -0.2216
 2395SOL    HW210974   2.078   4.827   9.890  0.1383 -1.1678 -0.0179
 2396SOL     OW10975   7.069   2.925   8.322 -0.2714 -0.3308  0.2569
 2396SOL    HW110976   7.034   2.846   8.363 -0.8067 -0.5866 -0.6533
 2396SOL    HW210977   7.129   2.893   8.255  1.1018  0.0927  1.2410
 2397SOL     OW10978   4.651   4.747   5.628 -0.2759 -0.2155  0.0518
 2397SOL    HW110979   4.569   4.742   5.677 -0.7927 -1.6394 -0.8981
 2397SOL    HW210980   4.711   4.688   5.675 -1.2069 -2.7478 -1.6995
 2398SOL     OW10981   5.125   1.734  10.143  0.1551 -0.2186 -0.2833
 2398SOL    HW110982   5.090   1.823  10.147 -1.3265 -0.8051  1.0452
 2398SOL    HW210983   5.106   1.704  10.054 -2.1408 -0.2355  0.1563
 2399SOL     OW10984   1.134   1.194   3.974  0.2054 -0.4028  0.1598
 2399SOL    HW110985   1.107   1.104   3.958  0.4935 -0.2187 -1.6136
 2399SOL    HW210986   1.084   1.246   3.911  2.5643  0.2421 -1.3196
 2400SOL     OW10987   5.928  10.322   2.764  0.5565  0.1930  0.8389
 2400SOL    HW110988   5.863  10.370   2.714  0.9344 -0.5399 -0.4023
 2400SOL    HW210989   6.003  10.315   2.706  2.4932  2.5609  2.8443
 2401SOL     OW10990   6.254   7.995   6.890 -0.4639 -0.2741  0.2955
 2401SOL    HW110991   6.290   7.974   6.804  1.2134  2.2451  0.2840
 2401SOL    HW210992   6.248   7.910   6.934  0.3500 -1.4201 -1.6666
 2402SOL     OW10993   0.005   5.654   5.215 -0.0626 -0.5480  0.6243
 2402SOL    HW110994   0.071   5.620   5.276  0.2857 -0.3460  0.3663
 2402SOL    HW210995  -0.026   5.577   5.168  0.5083 -0.5553  0.2521
 2403SOL     OW10996   7.988   5.964   1.774 -0.5121  0.4310  0.0583
 2403SOL    HW110997   8.073   5.929   1.745  0.3183  0.5466  2.1441
 2403SOL    HW210998   7.930   5.888   1.773  0.2779 -0.2062  0.9358
 2404SOL     OW10999   8.506   7.926   7.332  0.3626 -0.4527 -0.0417
 2404SOL    HW111000   8.440   7.874   7.285  1.0254 -0.2923 -1.2026
 2404SOL    HW211001   8.584   7.920   7.276  1.0074  0.2396  0.7706
 2405SOL     OW11002   2.803   5.708   7.795  0.1284 -0.0240 -0.2610
 2405SOL    HW111003   2.876   5.646   7.792  0.1773  0.0571 -0.8488
 2405SOL    HW211004   2.728   5.656   7.821  0.4900 -0.0090  0.8833
 2406SOL     OW11005   2.866   5.461  10.281 -0.3529  0.5660 -0.1893
 2406SOL    HW111006   2.933   5.401  10.314 -1.9209  0.0924  2.4601
 2406SOL    HW211007   2.863   5.531  10.346 -2.1118  0.8001 -0.4721
 2407SOL     OW11008   1.574   5.464   2.803  1.2970  0.0381  0.2570
 2407SOL    HW111009   1.553   5.476   2.895 -1.7687  0.7310 -0.4382
 2407SOL    HW211010   1.576   5.369   2.791 -0.0425 -0.0645  0.7219
 2408SOL     OW11011   8.653   8.105   0.231  0.7677 -0.0880 -0.1511
 2408SOL    HW111012   8.617   8.190   0.255  1.2377  0.4867 -1.3807
 2408SOL    HW211013   8.660   8.058   0.314 -0.0229  0.8578  0.4817
 2409SOL     OW11014   6.238   7.715   1.992 -0.1040  0.1468 -0.0606
 2409SOL    HW111015   6.294   7.638   1.995  0.1796  0.3829  1.0046
 2409SOL    HW211016   6.149   7.681   1.998 -0.1406 -0.2635 -2.2069
 2410SOL     OW11017   0.954   2.875   5.480 -0.5137  0.3408 -0.0130
 2410SOL    HW111018   0.910   2.930   5.415 -0.4266  0.1674 -0.2226
 2410SOL    HW211019   0.942   2.921   5.563 -0.8464  0.4373 -0.1119
 2411SOL     OW11020   0.857   6.811   5.116  0.4612  0.6979  0.2783
 2411SOL    HW111021   0.806   6.746   5.068 -0.1929  0.0680  1.7464
 2411SOL    HW211022   0.928   6.835   5.057 -1.4951  1.5916 -1.8527
 2412SOL     OW11023   8.744   3.727   8.469  0.5610  0.3447  0.0040
 2412SOL    HW111024   8.813   3.793   8.457 -0.1629  1.3791  1.2973
 2412SOL    HW211025   8.677   3.772   8.520 -0.9702 -0.7331 -0.9909
 2413SOL     OW11026   7.030   3.208   2.104 -0.5116 -0.2121  0.7870
 2413SOL    HW111027   7.019   3.171   2.192 -1.1378 -0.9349  0.4159
 2413SOL    HW211028   7.056   3.134   2.050  1.1192  0.4562  0.5779
 2414SOL     OW11029   9.030   0.456   7.218  0.2348  0.0389 -0.2148
 2414SOL    HW111030   9.122   0.436   7.233  0.1653  0.4359  0.8428
 2414SOL    HW211031   9.018   0.545   7.252 -0.8273 -0.5291  1.0070
 2415SOL     OW11032   0.185   6.362   2.553 -1.1343 -0.2310 -0.2796
 2415SOL    HW111033   0.144   6.300   2.494 -0.8176 -0.1201 -0.6196
 2415SOL    HW211034   0.135   6.443   2.541  0.1209  0.3652 -1.8585
 2416SOL     OW11035   7.231   2.009   1.625  0.5526 -0.4039  0.1734
 2416SOL    HW111036   7.318   1.996   1.662  0.0013  2.3981  2.9656
 2416SOL    HW211037   7.244   2.069   1.552  1.1131 -1.1774 -0.3607
 2417SOL     OW11038   3.824   5.832   2.823 -0.1899  0.3243  0.0030
 2417SOL    HW111039   3.859   5.823   2.734 -1.4477  0.2273 -0.4952
 2417SOL    HW211040   3.765   5.907   2.818  0.5764  1.0195  1.0442
 2418SOL     OW11041   4.305   1.760   4.330 -0.2061 -0.6881  0.7498
 2418SOL    HW111042   4.307   1.692   4.397 -0.5687 -0.3241  1.1353
 2418SOL    HW211043   4.393   1.797   4.331  0.0632 -1.3082  0.3716
 2419SOL     OW11044   5.112   9.980   7.333  0.2555  0.1470  0.2543
 2419SOL    HW111045   5.023   9.971   7.298  0.1622 -1.2221  0.8067
 2419SOL    HW211046   5.101   9.980   7.428  0.8435  0.1695  0.3256
 2420SOL     OW11047   9.887   5.309   3.703 -0.5113 -0.4696 -0.2064
 2420SOL    HW111048   9.830   5.339   3.774 -0.5190 -1.9024  0.4323
 2420SOL    HW211049   9.830   5.308   3.626 -0.2815  1.9493 -0.4989
 2421SOL     OW11050   1.217   7.036   3.995 -0.0118 -0.1604  0.1081
 2421SOL    HW111051   1.165   6.958   3.980  1.1711 -1.2178  1.2640
 2421SOL    HW211052   1.190   7.097   3.926 -1.3082 -1.3949 -0.5136
 2422SOL     OW11053   3.787   3.787   3.672 -0.3716  0.0606 -0.3882
 2422SOL    HW111054   3.828   3.721   3.728  0.2382 -0.4729 -1.4299
 2422SOL    HW211055   3.857   3.850   3.654  0.3970 -1.3845 -3.0013
 2423SOL     OW11056   3.567   7.057   9.708 -0.5617 -0.5288  0.0207
 2423SOL    HW111057   3.631   7.037   9.776 -0.2265  1.8751  0.4715
 2423SOL    HW211058   3.618   7.056   9.627 -0.2576 -0.0543  0.2046
 2424SOL     OW11059   6.928   6.475   6.359 -0.0795  0.4306 -0.0809
 2424SOL    HW111060   6.978   6.523   6.293 -0.9890  1.9269  0.2815
 2424SOL    HW211061   6.930   6.531   6.436 -0.5269 -0.4839  0.6182
 2425SOL     OW11062   5.132   7.800   9.327 -0.5722  0.3913  0.5126
 2425SOL    HW111063   5.110   7.720   9.374 -0.7936  0.0480 -0.1584
 2425SOL    HW211064   5.224   7.817   9.350 -0.0141 -0.9661 -0.6057
 2426SOL     OW11065   7.964   6.408   7.795  0.4023  0.4135  0.2016
 2426SOL    HW111066   8.059   6.397   7.806  0.6496  1.0667 -1.1425
 2426SOL    HW211067   7.938   6.338   7.736 -0.1902 -0.5126  1.5158
 2427SOL     OW11068   0.820   1.657   9.565  0.5385 -0.1549  0.3854
 2427SOL    HW111069   0.914   1.654   9.547  0.6769  0.5608  0.9396
 2427SOL    HW211070   0.797   1.568   9.593  0.3788 -1.2540 -2.8477
 2428SOL     OW11071   5.556   9.775   4.835 -0.1732 -0.1221 -0.6268
 2428SOL    HW111072   5.491   9.837   4.867 -0.1394 -0.4209  0.0426
 2428SOL    HW211073   5.505   9.710   4.787 -0.3823 -0.3888 -0.0516
 2429SOL     OW11074   5.871   8.791   4.685  0.2700 -0.1789  0.0027
 2429SOL    HW111075   5.780   8.780   4.659  0.4587 -1.1131 -0.2716
 2429SOL    HW211076   5.912   8.706   4.669  0.6907 -0.4428  2.1878
 2430SOL     OW11077   2.849   4.507   6.203 -0.0894  0.4047 -0.5275
 2430SOL    HW111078   2.768   4.542   6.240 -0.3005  1.1385 -1.6405
 2430SOL    HW211079   2.833   4.413   6.192 -1.4812  0.8213 -2.4163
 2431SOL     OW11080   0.434   4.006   2.215  0.5414  0.0429 -0.0658
 2431SOL    HW111081   0.423   4.072   2.284  0.4320 -0.5289  0.4761
 2431SOL    HW211082   0.521   4.025   2.178  0.7590  0.1312  0.4763
 2432SOL     OW11083   3.119   4.922   0.685 -0.3103  0.5051 -0.2034
 2432SOL    HW111084   3.035   4.929   0.729 -1.2402  1.3787 -2.0046
 2432SOL    HW211085   3.180   4.970   0.741 -1.2657  0.9058  0.5063
 2433SOL     OW11086   4.209   7.261   1.955 -0.4251 -0.0896 -0.4747
 2433SOL    HW111087   4.162   7.251   1.872  2.3289  1.0206 -2.3099
 2433SOL    HW211088   4.206   7.355   1.973  0.4789 -0.0819 -0.3028
 2434SOL     OW11089   6.032   6.249   2.913 -0.6630 -0.3787  0.2777
 2434SOL    HW111090   6.082   6.183   2.866  0.1397  0.7398 -0.4769
 2434SOL    HW211091   5.990   6.201   2.985  1.1316 -1.4313  0.6783
 2435SOL     OW11092   7.673   8.120   8.504  0.4662  0.1750  0.1842
 2435SOL    HW111093   7.628   8.041   8.472 -0.6067  0.2240  1.4719
 2435SOL    HW211094   7.668   8.182   8.432 -1.3487  0.0776  0.1629
 2436SOL     OW11095   4.605   8.069   5.345  0.4389  0.2794 -0.1848
 2436SOL    HW111096   4.652   8.018   5.411 -1.1075 -2.1517 -0.8583
 2436SOL    HW211097   4.517   8.080   5.381  0.7423  2.6317 -0.0280
 2437SOL     OW11098   2.750   5.133   0.610  0.4313 -0.5226  0.1704
 2437SOL    HW111099   2.697   5.171   0.539  2.5032  1.0418 -0.6384
 2437SOL    HW211100   2.688   5.081   0.660 -1.3756 -0.7482 -2.1090
 2438SOL     OW11101   6.263   0.106   3.114 -0.1938 -0.3228 -0.1548
 2438SOL    HW111102   6.252   0.065   3.028 -0.0376  1.1638 -0.9206
 2438SOL    HW211103   6.197   0.175   3.116  0.6559  0.4913  0.3866
 2439SOL     OW11104   7.048   0.845   4.457 -0.1388 -0.5092  0.7779
 2439SOL    HW111105   7.112   0.796   4.405  0.7875 -1.5301  2.8060
 2439SOL    HW211106   7.000   0.897   4.392  1.3393 -1.2914 -1.0278
 2440SOL     OW11107   2.715  10.267   7.632  0.3581 -0.1843  0.9006
 2440SOL    HW111108   2.746  10.355   7.609  0.1634  0.1706  1.9303
 2440SOL    HW211109   2.661  10.241   7.557 -1.8958  1.7515  1.7262
 2441SOL     OW11110   2.097   5.950   2.879 -0.3898 -0.2267  0.0779
 2441SOL    HW111111   2.036   5.933   2.807 -2.0363  1.3379  1.0171
 2441SOL    HW211112   2.140   6.032   2.854  1.1963 -1.1872 -0.4526
 2442SOL     OW11113   6.954   0.642   0.439 -0.1700  0.2273  0.3197
 2442SOL    HW111114   6.984   0.561   0.398 -2.0819  1.0323 -3.0297
 2442SOL    HW211115   7.031   0.675   0.485  1.3101 -2.2893 -0.1309
 2443SOL     OW11116   9.293   9.871   5.810  0.0892  0.0163 -0.2408
 2443SOL    HW111117   9.214   9.825   5.781  0.6439  0.2293 -2.3112
 2443SOL    HW211118   9.347   9.803   5.851 -1.6185  0.1068  2.3515
 2444SOL     OW11119   2.120   9.389   0.078 -0.0993  0.1571  0.2643
 2444SOL    HW111120   2.074   9.378   0.161 -0.3003 -0.0944  0.1187
 2444SOL    HW211121   2.051   9.407   0.014  0.0538  0.3431  0.1468
 2445SOL     OW11122   0.551   7.873   7.223  0.2293 -0.1607 -0.3060
 2445SOL    HW111123   0.525   7.891   7.133 -1.6798 -0.9711  0.0212
 2445SOL    HW211124   0.645   7.890   7.226 -0.0563  2.0348 -1.8742
 2446SOL     OW11125   9.464   7.456   9.703 -0.5661 -0.3280 -0.7411
 2446SOL    HW111126   9.467   7.551   9.696  0.1977 -0.3431 -0.6645
 2446SOL    HW211127   9.505   7.436   9.787  0.0489 -0.7724 -1.1411
 2447SOL     OW11128   6.502   3.367   6.603 -0.2298 -0.1581 -0.1198
 2447SOL    HW111129   6.584   3.416   6.599 -0.4915  0.3149  0.1474
 2447SOL    HW211130   6.464   3.392   6.688 -0.2116 -1.0787  0.1728
 2448SOL     OW11131   1.840   9.322   3.010  0.1151 -0.0612  0.4885
 2448SOL    HW111132   1.819   9.230   3.028 -0.9793  0.2106  0.6457
 2448SOL    HW211133   1.936   9.324   3.008  0.1750 -1.6571 -1.9375
 2449SOL     OW11134   2.554   1.865  10.130  0.1311  0.1523  0.4610
 2449SOL    HW111135   2.542   1.808  10.206 -0.2935  0.7289  0.8347
 2449SOL    HW211136   2.644   1.898  10.138 -0.2628  1.0722  1.3318
 2450SOL     OW11137   2.022   6.872   8.699  0.4396  0.6224 -0.0329
 2450SOL    HW111138   2.049   6.806   8.762 -0.7736  0.9438  0.8489
 2450SOL    HW211139   1.950   6.919   8.741 -1.4053 -0.0884 -2.1655
 2451SOL     OW11140   2.628   3.598   4.595  0.1131 -0.6377  0.3202
 2451SOL    HW111141   2.604   3.574   4.685 -0.5914  0.8261  0.5496
 2451SOL    HW211142   2.595   3.526   4.541  1.3579 -2.0027  1.2885
 2452SOL     OW11143   1.233   5.740   7.473  0.6293 -0.5182  0.1802
 2452SOL    HW111144   1.141   5.718   7.490 -0.0862  1.2573 -1.1230
 2452SOL    HW211145   1.283   5.674   7.522 -1.3217 -1.1722  1.3885
 2453SOL     OW11146   5.029   0.521   3.282 -0.4585 -0.2088 -0.0638
 2453SOL    HW111147   5.115   0.496   3.247  0.0871  2.7006 -1.1264
 2453SOL    HW211148   5.049   0.561   3.367 -0.4699  1.8379 -0.9561
 2454SOL     OW11149   8.524   3.257   6.324  0.7284 -0.5027 -0.0418
 2454SOL    HW111150   8.537   3.226   6.413  1.4843 -0.5232 -0.1575
 2454SOL    HW211151   8.588   3.210   6.272 -1.1886 -2.2099 -1.0061
 2455SOL     OW11152  10.203   2.615   6.291  0.0481 -0.2525 -0.4192
 2455SOL    HW111153  10.233   2.702   6.318  1.1386  0.1107 -2.6112
 2455SOL    HW211154  10.111   2.612   6.318  0.4341  0.8952  1.1875
 2456SOL     OW11155   9.777   1.496   4.322  0.0744  0.0398 -0.2389
 2456SOL    HW111156   9.761   1.477   4.415 -2.5514  0.7428 -0.4450
 2456SOL    HW211157   9.708   1.449   4.276  2.0168 -1.2471 -2.0123
 2457SOL     OW11158   8.760   8.660   8.619  0.0370 -0.4879 -0.2993
 2457SOL    HW111159   8.679   8.610   8.631  0.9081 -2.0825 -0.8280
 2457SOL    HW211160   8.749   8.706   8.536  0.0121 -1.3847 -0.7964
 2458SOL     OW11161   0.235   0.026   4.713  0.3916 -0.0155  0.1706
 2458SOL    HW111162   0.214  -0.049   4.768 -0.1764  0.6970  0.9513
 2458SOL    HW211163   0.150   0.062   4.688  0.5990 -0.9571 -2.1153
 2459SOL     OW11164   6.222   8.737   1.190 -0.2737  0.1658 -0.4372
 2459SOL    HW111165   6.285   8.801   1.222  0.2149 -0.9400  0.8746
 2459SOL    HW211166   6.181   8.780   1.115 -0.3580  2.2497  0.7108
 2460SOL     OW11167   0.312   0.965   4.282  0.0281 -0.5232  0.7649
 2460SOL    HW111168   0.351   0.879   4.268 -1.7576 -1.0281 -1.8109
 2460SOL    HW211169   0.218   0.950   4.277 -0.3241  1.5867  0.1069
 2461SOL     OW11170   4.623   1.421   9.247 -0.2546  0.5464 -0.0258
 2461SOL    HW111171   4.552   1.447   9.189 -0.1593 -0.0979 -0.4469
 2461SOL    HW211172   4.692   1.392   9.188 -0.2093 -0.2476  0.4072
 2462SOL     OW11173   0.572   9.986   1.086 -0.0188  0.3169 -0.0888
 2462SOL    HW111174   0.503   9.955   1.027 -0.6352  0.3432  0.6076
 2462SOL    HW211175   0.526  10.031   1.156  0.7938  1.5786 -0.3305
 2463SOL     OW11176   3.956   4.185   1.001 -0.4062  0.3470  0.5278
 2463SOL    HW111177   3.872   4.139   1.005  1.1111 -2.6970  0.3396
 2463SOL    HW211178   3.979   4.183   0.908  1.3477 -1.9899  0.9113
 2464SOL     OW11179   6.847   2.743   1.249  0.2232 -0.8102 -0.1128
 2464SOL    HW111180   6.762   2.705   1.272 -0.6292 -0.2454 -2.1329
 2464SOL    HW211181   6.901   2.728   1.326 -1.0974 -3.0146  0.4974
 2465SOL     OW11182   9.005   4.474   1.294  0.4954 -0.2579 -0.2325
 2465SOL    HW111183   8.942   4.403   1.281  2.8373 -2.4633 -0.3758
 2465SOL    HW211184   9.065   4.467   1.220  2.0484  0.4493  0.9045
 2466SOL     OW11185   2.935   0.351   2.181  0.6837 -0.3126  0.4344
 2466SOL    HW111186   2.983   0.424   2.219 -0.8267 -0.0852  2.0332
 2466SOL    HW211187   2.952   0.277   2.239  1.4313 -1.0255 -0.6406
 2467SOL     OW11188   3.296   6.030   1.675  0.2388  0.2931 -0.4813
 2467SOL    HW111189   3.264   5.940   1.680  0.4337  0.2009 -0.8536
 2467SOL    HW211190   3.220   6.083   1.700  0.3162  0.0009  0.4044
 2468SOL     OW11191   7.897   7.873   2.962 -0.3753  0.0783  0.4698
 2468SOL    HW111192   7.952   7.849   2.887 -1.6886 -0.6855 -0.2878
 2468SOL    HW211193   7.958   7.913   3.024  1.0386 -0.7930 -0.2970
 2469SOL     OW11194   4.999   3.839   3.751 -0.4636 -0.0459 -0.2952
 2469SOL    HW111195   5.076   3.813   3.700 -0.3561  0.2752 -0.3002
 2469SOL    HW211196   5.034   3.864   3.836 -0.6009 -0.2200 -0.1860
 2470SOL     OW11197   8.075   1.773   3.431  0.3724  0.3067 -0.2916
 2470SOL    HW111198   8.005   1.727   3.385 -1.2195  0.0876  2.1703
 2470SOL    HW211199   8.145   1.708   3.441 -0.3718 -0.4773 -0.0681
 2471SOL     OW11200   2.499   2.090   0.782  0.0917  0.0562  0.0743
 2471SOL    HW111201   2.579   2.040   0.764 -0.1556 -0.8613  1.3509
 2471SOL    HW211202   2.440   2.026   0.821 -1.9311  0.2776 -2.3463
 2472SOL     OW11203   1.623   5.955   3.205 -0.0269 -0.4291  0.1710
 2472SOL    HW111204   1.709   5.949   3.246  0.1260 -1.6020 -0.2833
 2472SOL    HW211205   1.561   5.929   3.273 -0.0237  0.2255  0.4382
 2473SOL     OW11206   8.609   8.691   5.596 -0.1953 -0.5599 -0.5795
 2473SOL    HW111207   8.606   8.785   5.578  0.0188  0.0334  2.0777
 2473SOL    HW211208   8.585   8.650   5.513 -5.3611  1.9200 -0.7304
 2474SOL     OW11209   0.995   2.850   3.907  0.3330 -0.0120  0.2685
 2474SOL    HW111210   0.905   2.870   3.881  0.1220  1.4458  1.9177
 2474SOL    HW211211   1.046   2.923   3.872  0.2552  1.1966  2.5338
 2475SOL     OW11212   2.318   0.658   6.576 -0.2883 -0.5745 -0.2487
 2475SOL    HW111213   2.301   0.576   6.529  0.0779 -1.4415  1.0801
 2475SOL    HW211214   2.393   0.697   6.530 -0.4252 -1.0068 -0.8533
 2476SOL     OW11215   6.159   6.378   8.992  0.4232  0.0283 -0.1495
 2476SOL    HW111216   6.211   6.450   8.957 -2.2897  2.2993  0.1815
 2476SOL    HW211217   6.075   6.383   8.946 -1.8979  0.6951  3.7125
 2477SOL     OW11218   1.860   8.588   6.511 -0.5215  0.5435  0.5380
 2477SOL    HW111219   1.836   8.671   6.552  1.7996  1.3764  0.3592
 2477SOL    HW211220   1.937   8.609   6.457 -2.0831 -0.9616 -2.5097
 2478SOL     OW11221   0.835   9.777   5.619  0.2587 -0.1106  0.0552
 2478SOL    HW111222   0.772   9.849   5.612  0.6769  0.2995  0.3974
 2478SOL    HW211223   0.788   9.700   5.588 -0.5815  0.0870  0.8222
 2479SOL     OW11224   9.423   4.380   2.881  0.1989  0.3506 -0.0048
 2479SOL    HW111225   9.490   4.317   2.855 -0.3470 -1.0963  1.8373
 2479SOL    HW211226   9.376   4.336   2.952 -0.6547  2.6006  0.8988
 2480SOL     OW11227   4.044   7.328   4.498 -0.1321 -0.4102  0.2680
 2480SOL    HW111228   4.137   7.346   4.486  0.2991 -1.5481  1.6347
 2480SOL    HW211229   4.041   7.236   4.523 -1.7194 -0.6370 -0.6808
 2481SOL     OW11230   2.065   5.218   4.586 -0.7297  0.0083  0.0144
 2481SOL    HW111231   2.024   5.136   4.559 -0.5037 -0.1555  0.1676
 2481SOL    HW211232   2.016   5.286   4.539 -1.1775 -0.1853  0.1878
 2482SOL     OW11233   5.792   0.638   2.862 -0.3776  0.1256  0.1687
 2482SOL    HW111234   5.819   0.713   2.914 -2.0287  0.0395  1.2320
 2482SOL    HW211235   5.697   0.650   2.850 -0.9379 -2.3458  1.4166
 2483SOL     OW11236   2.438   4.163   8.342  0.7195 -0.0518  0.2429
 2483SOL    HW111237   2.494   4.086   8.354 -1.0119 -1.4222 -0.0708
 2483SOL    HW211238   2.369   4.133   8.283 -0.1555  1.6822  0.3352
 2484SOL     OW11239   1.928   6.986   5.919  0.1338  0.5496 -0.4872
 2484SOL    HW111240   1.856   6.993   5.857 -1.5642  0.4131  1.3896
 2484SOL    HW211241   1.939   7.075   5.954  2.5629  1.1495 -2.4385
 2485SOL     OW11242   4.726   4.203   2.420 -0.0560  0.3577  0.1222
 2485SOL    HW111243   4.661   4.171   2.357  0.3914 -1.2279  0.4330
 2485SOL    HW211244   4.710   4.297   2.425 -2.7479 -0.0616  0.6501
 2486SOL     OW11245   0.020   8.011   8.574 -0.4277 -0.6914  0.3121
 2486SOL    HW111246  -0.042   8.015   8.501  0.0370 -0.1626 -0.0640
 2486SOL    HW211247   0.095   7.962   8.540  0.1741  0.3234  0.1195
 2487SOL     OW11248   2.932   6.425   8.373  0.3795 -0.4253  0.1571
 2487SOL    HW111249   2.928   6.521   8.368  0.9107 -0.4419 -0.7399
 2487SOL    HW211250   2.970   6.398   8.289 -1.2697 -1.5200 -0.3016
 2488SOL     OW11251   0.431   9.792   8.860  0.3071  0.2857 -0.2896
 2488SOL    HW111252   0.480   9.774   8.780  1.3456  0.7738  0.2241
 2488SOL    HW211253   0.440   9.712   8.912 -2.6607 -1.1437 -1.7321
 2489SOL     OW11254   9.415   1.593  10.125  0.2538  0.3284  0.2205
 2489SOL    HW111255   9.395   1.506  10.089 -0.8970  0.3096  0.8615
 2489SOL    HW211256   9.330   1.634  10.138  0.7745  1.5001  0.1011
 2490SOL     OW11257   4.801   4.411   6.964  0.4254  0.1013  0.5568
 2490SOL    HW111258   4.707   4.410   6.983 -0.0260  1.3967 -1.3564
 2490SOL    HW211259   4.823   4.319   6.950 -1.2238 -0.0442 -1.6777
 2491SOL     OW11260   0.675   5.952   8.668  0.1823 -0.6083  0.3877
 2491SOL    HW111261   0.659   5.857   8.670  0.3465 -0.6395  1.8633
 2491SOL    HW211262   0.741   5.964   8.600 -1.1584 -1.3053 -1.0951
 2492SOL     OW11263   8.904   0.182   9.143 -0.9306 -0.0170 -0.1694
 2492SOL    HW111264   8.995   0.151   9.141 -1.0661 -0.5226  0.7466
 2492SOL    HW211265   8.867   0.143   9.222 -1.8863  0.3693 -0.4048
 2493SOL     OW11266   6.196   1.810   3.146 -0.0546 -0.1378  0.3427
 2493SOL    HW111267   6.277   1.859   3.136  0.2544 -0.9534 -1.6148
 2493SOL    HW211268   6.224   1.722   3.171 -0.5338  0.2670  2.5102
 2494SOL     OW11269   3.534   9.471   8.895  0.0507 -0.0005  0.0961
 2494SOL    HW111270   3.581   9.543   8.852 -1.0886  0.4164 -0.4920
 2494SOL    HW211271   3.601   9.404   8.909  0.8961  0.7190 -0.3872
 2495SOL     OW11272   2.324   1.514   3.928 -0.1718 -0.3218 -0.1825
 2495SOL    HW111273   2.373   1.587   3.966 -0.1131  0.0619 -0.9648
 2495SOL    HW211274   2.385   1.473   3.867 -0.8278  0.2512 -1.2707
 2496SOL     OW11275   3.941   1.764  10.156  0.1583 -0.3110  0.1451
 2496SOL    HW111276   3.996   1.791  10.083  1.0400 -1.5986  0.3137
 2496SOL    HW211277   3.909   1.847  10.193  1.9841  0.4976  0.0403
 2497SOL     OW11278   9.035   1.476  10.240 -0.6703  0.1351 -0.2216
 2497SOL    HW111279   9.012   1.505  10.152 -1.1998  0.7569  0.1177
 2497SOL    HW211280   8.956   1.433  10.273 -0.2879 -0.6137 -0.2590
 2498SOL     OW11281   2.961   2.296   6.005  0.8076 -0.0317  0.1862
 2498SOL    HW111282   2.985   2.379   5.964  2.4729 -1.0249 -0.9528
 2498SOL    HW211283   2.901   2.255   5.944  0.8980 -0.1721  0.1911
 2499SOL     OW11284   6.370   9.696   3.598 -0.3518 -0.0142  0.2521
 2499SOL    HW111285   6.385   9.614   3.550  0.5904  0.9580 -1.2142
 2499SOL    HW211286   6.334   9.669   3.682 -0.8659 -1.8830 -0.5230
 2500SOL     OW11287   2.200   7.210   9.506 -0.1883 -0.3204  0.0795
 2500SOL    HW111288   2.243   7.288   9.471 -0.8425  0.1601  0.3459
 2500SOL    HW211289   2.273   7.153   9.531  0.3421  0.9478  1.5835
 2501SOL     OW11290   0.413   6.220  10.153  0.7223 -0.4912 -0.1160
 2501SOL    HW111291   0.398   6.127  10.133 -0.7690 -0.3682  0.3251
 2501SOL    HW211292   0.480   6.219  10.221  0.7063 -1.2465 -0.0988
 2502SOL     OW11293   0.323   4.120   0.527 -0.1236  0.2270 -0.5479
 2502SOL    HW111294   0.272   4.155   0.600 -1.3600 -0.8471 -0.8497
 2502SOL    HW211295   0.293   4.170   0.451 -0.3835 -0.0715 -0.6455
 2503SOL     OW11296   4.484   2.731   3.107 -0.3028 -0.3397 -0.4439
 2503SOL    HW111297   4.426   2.778   3.167  0.9631  0.0704  0.5020
 2503SOL    HW211298   4.464   2.638   3.122 -3.2887 -0.2476 -2.7937
 2504SOL     OW11299   5.557   2.444   8.411  0.3945 -0.2086  0.4680
 2504SOL    HW111300   5.482   2.502   8.399  0.8544  0.3557  0.2829
 2504SOL    HW211301   5.523   2.356   8.390 -0.3007 -0.0114  0.7415
 2505SOL     OW11302   0.353   2.551   1.512  0.1270 -0.9839  0.6845
 2505SOL    HW111303   0.419   2.488   1.485  2.5001  0.5110  2.5406
 2505SOL    HW211304   0.333   2.528   1.603 -1.4359 -0.9875  0.3701
 2506SOL     OW11305   5.647   1.903   1.857  0.1018  0.2948 -0.0471
 2506SOL    HW111306   5.643   1.912   1.952  1.2481 -0.4452  0.0987
 2506SOL    HW211307   5.662   1.809   1.843 -3.7342 -0.3360 -1.1374
 2507SOL     OW11308   0.485   7.712   0.163  0.6584  0.0781 -0.3168
 2507SOL    HW111309   0.578   7.694   0.176  0.1571 -2.8209 -0.0046
 2507SOL    HW211310   0.474   7.716   0.068  1.2032  1.3289 -0.3445
 2508SOL     OW11311   2.580   0.399   8.118 -0.3526  0.1289 -0.3482
 2508SOL    HW111312   2.671   0.425   8.102 -0.3668 -0.6292 -1.8626
 2508SOL    HW211313   2.531   0.440   8.046 -0.7199 -2.0201 -1.3919
 2509SOL     OW11314   4.164   6.842   0.732 -0.1539  0.2861  0.6697
 2509SOL    HW111315   4.218   6.918   0.710 -0.6494  0.1303 -1.2673
 2509SOL    HW211316   4.076   6.865   0.700 -0.4007 -0.9247  0.4116
 2510SOL     OW11317   0.510   9.478   9.797 -0.0490 -0.0312  0.2566
 2510SOL    HW111318   0.554   9.544   9.744 -1.5839  0.5016 -0.3941
 2510SOL    HW211319   0.476   9.414   9.734 -0.0364 -0.5411  0.7584
 2511SOL     OW11320   8.549   7.931   7.033  0.4146 -0.7057 -0.2342
 2511SOL    HW111321   8.518   7.846   7.003  0.8992 -0.8783 -0.2584
 2511SOL    HW211322   8.596   7.967   6.957 -1.1448  0.2954 -0.7875
 2512SOL     OW11323   3.291   6.294   0.529  0.1966 -0.4217  0.3566
 2512SOL    HW111324   3.240   6.374   0.545  0.6661 -0.0653  0.0784
 2512SOL    HW211325   3.228   6.233   0.490  0.3402  0.5635 -1.5173
 2513SOL     OW11326   8.757   7.656   4.647 -0.3365 -0.3235 -0.0276
 2513SOL    HW111327   8.726   7.582   4.595  1.1669 -2.9119  2.4846
 2513SOL    HW211328   8.678   7.693   4.686 -1.0308 -1.4305 -0.3450
 2514SOL     OW11329   0.359   4.913   2.233  0.1310 -0.1661  0.6439
 2514SOL    HW111330   0.314   4.935   2.314 -0.2046  0.2254  0.3502
 2514SOL    HW211331   0.452   4.923   2.253  0.0019  1.6353  0.4953
 2515SOL     OW11332   2.223   0.433   0.607 -0.2757 -0.5288 -0.2175
 2515SOL    HW111333   2.311   0.431   0.643  0.4610  0.2215 -1.8695
 2515SOL    HW211334   2.205   0.341   0.584 -0.5184 -0.9155  1.3799
 2516SOL     OW11335   9.787   2.588   8.789 -0.3591  0.2373 -0.3464
 2516SOL    HW111336   9.720   2.640   8.743  0.1454 -0.3393 -1.8092
 2516SOL    HW211337   9.737   2.534   8.850 -1.4047 -0.9171 -2.1067
 2517SOL     OW11338   3.377   1.711   5.117  0.1257  0.2057  0.7636
 2517SOL    HW111339   3.298   1.719   5.170  0.4162  2.1430  1.0004
 2517SOL    HW211340   3.363   1.771   5.044 -0.1115 -2.1590 -1.2328
 2518SOL     OW11341   6.864   5.419   9.883  0.0388  0.5481  0.1511
 2518SOL    HW111342   6.846   5.332   9.847  0.9266  1.1364 -1.8298
 2518SOL    HW211343   6.901   5.402   9.970  1.2932 -1.1272 -0.6538
 2519SOL     OW11344   5.404   5.468   6.614  0.0749 -0.0023  0.4036
 2519SOL    HW111345   5.345   5.517   6.558  1.9181  1.8789 -0.0134
 2519SOL    HW211346   5.437   5.398   6.558 -0.7212 -0.2625  0.2438
 2520SOL     OW11347   8.022   9.051   6.203 -0.4438  0.3836  0.3045
 2520SOL    HW111348   8.036   9.059   6.297 -0.9443  0.0472  0.4165
 2520SOL    HW211349   7.931   9.080   6.190  0.1600  2.1196 -0.3268
 2521SOL     OW11350   7.048   8.833   3.778  0.4097 -0.2353 -0.0590
 2521SOL    HW111351   7.020   8.797   3.694  1.1753  0.2082 -0.5186
 2521SOL    HW211352   7.012   8.774   3.843 -2.5965  0.9035 -0.5201
 2522SOL     OW11353   0.564   7.127   1.150  0.2833 -0.1934  0.7101
 2522SOL    HW111354   0.535   7.040   1.122 -2.1789  0.2442  1.6154
 2522SOL    HW211355   0.548   7.184   1.075 -2.1228  0.1749  1.4183
 2523SOL     OW11356   2.584   0.158   5.120 -0.6202 -0.1194  0.5106
 2523SOL    HW111357   2.604   0.142   5.212 -0.7845  2.5003  1.0906
 2523SOL    HW211358   2.488   0.151   5.115 -0.4949 -1.8326  0.1583
 2524SOL     OW11359   5.629   7.083   0.153  0.2283 -0.0323 -0.0655
 2524SOL    HW111360   5.589   7.158   0.196 -0.1673 -0.9213  1.1860
 2524SOL    HW211361   5.664   7.117   0.071 -0.5640  1.3574  0.1544
 2525SOL     OW11362   2.500   4.929   5.907  0.0401 -0.3648  0.5796
 2525SOL    HW111363   2.535   4.910   5.820  0.5056 -1.7676  1.0527
 2525SOL    HW211364   2.427   4.988   5.891  0.0502 -0.6907 -0.7752
 2526SOL     OW11365   0.056   2.080   4.275 -0.2332  0.1140 -0.0613
 2526SOL    HW111366   0.118   2.060   4.345  1.0789 -0.8025 -1.4217
 2526SOL    HW211367   0.111   2.111   4.202 -1.3683 -0.6101 -1.2704
 2527SOL     OW11368   1.602   3.676   2.715  0.3234 -0.7658 -0.3553
 2527SOL    HW111369   1.681   3.730   2.718  0.9143 -1.6557  0.6416
 2527SOL    HW211370   1.621   3.610   2.648 -0.0400 -0.3009 -0.9267
 2528SOL     OW11371  10.243   0.344   2.310  0.5821  0.5097 -0.6021
 2528SOL    HW111372  10.183   0.328   2.237  0.7740 -0.5700 -0.5311
 2528SOL    HW211373  10.276   0.432   2.294 -0.8578  1.0569 -0.7540
 2529SOL     OW11374   7.677   9.417   1.645  0.1637  0.6188 -0.0348
 2529SOL    HW111375   7.697   9.405   1.552  1.1774  0.1257  0.2402
 2529SOL    HW211376   7.750   9.468   1.679  1.0860 -1.3056  1.0078
 2530SOL     OW11377   8.902   2.685   6.135 -0.1483  0.0680  0.1865
 2530SOL    HW111378   8.958   2.612   6.162  1.1095  0.8114 -0.3072
 2530SOL    HW211379   8.847   2.703   6.211  1.2222  0.1693  1.1930
 2531SOL     OW11380   8.359   6.662  10.150  0.0114  0.1440  0.5503
 2531SOL    HW111381   8.350   6.602  10.076 -2.3947 -0.3518  1.1781
 2531SOL    HW211382   8.379   6.605  10.224 -0.4550  0.3154  0.8086
 2532SOL     OW11383  10.334   6.898   3.662  0.8774  0.7289  0.1702
 2532SOL    HW111384  10.348   6.814   3.705 -0.9239  0.3393  0.0623
 2532SOL    HW211385  10.372   6.887   3.575  2.5242  0.7666  0.8458
 2533SOL     OW11386   2.379   4.493   7.403  0.0070  0.5783  0.4507
 2533SOL    HW111387   2.405   4.543   7.480  0.5982  0.6032  0.2417
 2533SOL    HW211388   2.455   4.438   7.383  0.0834  0.9906 -0.4498
 2534SOL     OW11389   0.130   2.061   5.172  0.0936  0.6709 -0.2504
 2534SOL    HW111390   0.136   1.993   5.106 -1.0768 -0.8596  1.1529
 2534SOL    HW211391   0.105   2.140   5.123  1.4823  0.1587 -1.8898
 2535SOL     OW11392   7.248   0.934   8.859  0.0350 -0.3668  0.2813
 2535SOL    HW111393   7.265   0.962   8.949 -0.1069 -0.8463  0.4605
 2535SOL    HW211394   7.181   0.865   8.868 -0.3407 -0.0721 -0.2291
 2536SOL     OW11395   1.991   7.858   6.410 -0.0522 -0.2905  0.3699
 2536SOL    HW111396   1.909   7.902   6.388 -0.7183 -0.9882  1.3784
 2536SOL    HW211397   2.046   7.926   6.448 -0.1524  0.1870 -0.3324
 2537SOL     OW11398   6.523   3.466   2.079  0.2419  0.5520  0.0070
 2537SOL    HW111399   6.529   3.391   2.138 -0.8347 -0.0760 -0.6587
 2537SOL    HW211400   6.595   3.454   2.017 -1.1159 -1.0688 -1.3414
 2538SOL     OW11401   7.088   4.662   2.920  0.4063  0.4214  0.1509
 2538SOL    HW111402   7.063   4.747   2.883  0.0538  0.8383  1.2921
 2538SOL    HW211403   7.016   4.603   2.896  0.6517  0.4405 -0.6462
 2539SOL     OW11404   8.655   9.942   5.538  0.0752  0.2966  0.3613
 2539SOL    HW111405   8.730   9.891   5.569  0.9459 -0.0588 -2.0479
 2539SOL    HW211406   8.694  10.022   5.503 -1.0874  1.7936  2.3115
 2540SOL     OW11407   0.969   6.043   7.770 -0.2109  0.3286 -0.3649
 2540SOL    HW111408   0.886   6.045   7.817 -0.7669 -1.8933 -1.0915
 2540SOL    HW211409   0.964   6.117   7.709 -1.4520  0.5186 -0.0596
 2541SOL     OW11410   9.127   0.793   8.987 -0.4623 -0.0869  0.1457
 2541SOL    HW111411   9.170   0.863   9.037  0.9496 -0.4192 -0.5632
 2541SOL    HW211412   9.034   0.801   9.010 -0.1291  1.0900  1.1949
 2542SOL     OW11413   7.025   3.025   0.682  0.5764  0.0390  0.1271
 2542SOL    HW111414   7.011   3.117   0.659 -0.8528  0.5620  2.7744
 2542SOL    HW211415   7.037   2.982   0.597 -0.2708  2.4006 -1.3065
 2543SOL     OW11416   1.823   1.737   3.885 -0.1550  0.2502 -0.1664
 2543SOL    HW111417   1.905   1.688   3.879  0.5335  1.4476 -1.0314
 2543SOL    HW211418   1.850   1.828   3.894 -1.3940  0.4612  2.3002
 2544SOL     OW11419   1.567   2.290   8.906 -0.8751  0.2879 -0.2916
 2544SOL    HW111420   1.527   2.206   8.925  0.4430 -0.1201  0.8368
 2544SOL    HW211421   1.658   2.269   8.886 -0.0159  1.5835  1.9358
 2545SOL     OW11422   6.695   6.119   3.876  0.4820  0.7369 -0.6238
 2545SOL    HW111423   6.782   6.079   3.876  0.3396  0.3988  0.6847
 2545SOL    HW211424   6.710   6.211   3.853  0.8365  0.0689 -3.4676
 2546SOL     OW11425   7.938   3.214   6.276  0.3939  0.0698  0.1185
 2546SOL    HW111426   7.958   3.124   6.252 -0.5591  0.2538 -1.4935
 2546SOL    HW211427   7.942   3.263   6.194 -0.5480  1.2238  0.7270
 2547SOL     OW11428   1.566   1.640   2.624  0.0602 -0.3165 -0.0302
 2547SOL    HW111429   1.633   1.578   2.598  0.7385  0.5429 -0.3605
 2547SOL    HW211430   1.486   1.587   2.631  0.9201 -1.5080  1.2082
 2548SOL     OW11431   6.686   5.332   1.288  0.4231 -0.6028 -0.1895
 2548SOL    HW111432   6.711   5.397   1.223 -0.2922 -0.5816 -0.4586
 2548SOL    HW211433   6.638   5.266   1.238  2.9863 -2.4918 -0.3235
 2549SOL     OW11434   8.631   3.560   1.050  0.1372 -0.2113 -0.1853
 2549SOL    HW111435   8.644   3.544   1.143 -0.9066 -0.0171  0.0063
 2549SOL    HW211436   8.711   3.529   1.009 -0.0537 -1.8551  0.6101
 2550SOL     OW11437   9.305   1.841   1.941 -0.1136  0.2887 -0.4019
 2550SOL    HW111438   9.262   1.898   1.876 -2.2529 -0.5252  0.2344
 2550SOL    HW211439   9.277   1.876   2.025  0.4838 -0.2877  0.0402
 2551SOL     OW11440   9.431   5.674   8.427 -0.1414 -0.1499  0.1133
 2551SOL    HW111441   9.432   5.585   8.392  2.5665  0.4129 -1.5472
 2551SOL    HW211442   9.470   5.666   8.514  0.5716 -0.5387 -0.2360
 2552SOL     OW11443   6.045   6.917   9.901  0.1931  0.6114  0.2118
 2552SOL    HW111444   6.073   6.932   9.811  2.9831  1.5892  1.1227
 2552SOL    HW211445   6.086   6.989   9.951 -0.0937 -0.6758  2.4367
 2553SOL     OW11446   5.186   0.133   0.680  0.3255 -0.3601 -0.0040
 2553SOL    HW111447   5.276   0.165   0.674  0.9608 -2.1789 -1.0264
 2553SOL    HW211448   5.144   0.163   0.600  0.1645  0.0406  0.2269
 2554SOL     OW11449   1.629   4.437   0.053 -0.1382  0.1341 -0.2294
 2554SOL    HW111450   1.707   4.452  -0.001 -0.5357  1.5586 -0.4546
 2554SOL    HW211451   1.556   4.453  -0.005 -0.5848  0.4751  0.4163
 2555SOL     OW11452   1.803   7.690   1.614 -0.9460 -0.0839 -0.1533
 2555SOL    HW111453   1.816   7.631   1.688  2.1171  1.2695  0.5545
 2555SOL    HW211454   1.843   7.644   1.540  1.4895  0.9645  0.4092
 2556SOL     OW11455  10.097   7.205   1.123 -0.1299 -0.0015  0.0154
 2556SOL    HW111456  10.189   7.200   1.096 -0.4692 -1.4647 -1.0426
 2556SOL    HW211457  10.095   7.273   1.190  1.4703  1.0572 -0.9425
 2557SOL     OW11458   1.257   3.301   4.170 -0.3371 -0.1841  0.1796
 2557SOL    HW111459   1.186   3.238   4.159 -1.5350  1.2406 -0.4914
 2557SOL    HW211460   1.285   3.323   4.081 -0.1743  0.5094  0.3976
 2558SOL     OW11461   5.757   6.719   5.361  0.1242  0.3209  0.0218
 2558SOL    HW111462   5.688   6.783   5.376  0.6168  0.6282  1.1049
 2558SOL    HW211463   5.757   6.704   5.267 -0.6727  1.1466 -0.1172
 2559SOL     OW11464   5.233   4.010   1.122  0.2707  0.2673  0.4434
 2559SOL    HW111465   5.233   4.069   1.047 -2.2322 -0.3357 -0.1421
 2559SOL    HW211466   5.265   3.927   1.088 -1.2893 -0.1343 -0.1580
 2560SOL     OW11467   3.337   5.638   9.998  0.3159 -0.0202  0.1578
 2560SOL    HW111468   3.285   5.574   9.949  1.1046  0.7623 -1.8516
 2560SOL    HW211469   3.413   5.590  10.028 -0.6926 -0.7727  1.6479
 2561SOL     OW11470   6.301   1.149   8.709 -0.0351 -0.0560  0.3773
 2561SOL    HW111471   6.334   1.082   8.650  1.0136  0.3653  0.4637
 2561SOL    HW211472   6.361   1.147   8.784 -0.0279  0.9270  0.4081
 2562SOL     OW11473   9.506   3.698   2.374 -0.3829  0.2337  0.2150
 2562SOL    HW111474   9.506   3.780   2.325 -0.2780 -1.0092 -2.0213
 2562SOL    HW211475   9.419   3.694   2.415 -0.4929  1.3239  0.1064
 2563SOL     OW11476   7.555   6.815   4.720  0.4767  0.3129  0.4808
 2563SOL    HW111477   7.626   6.804   4.782  0.8875 -0.4681 -0.1054
 2563SOL    HW211478   7.477   6.787   4.767  0.7326  0.0554  0.7526
 2564SOL     OW11479   6.404   3.067   4.896 -0.4449  0.5530 -0.0471
 2564SOL    HW111480   6.336   3.111   4.947 -0.6646 -0.6578  0.7423
 2564SOL    HW211481   6.454   3.138   4.857 -2.3175  1.5009 -0.8954
 2565SOL     OW11482   3.713   2.735   2.713  0.3687  0.2770  0.3460
 2565SOL    HW111483   3.783   2.766   2.655 -0.4156  0.3341 -0.6013
 2565SOL    HW211484   3.719   2.640   2.710  0.6063  0.2877  0.5136
 2566SOL     OW11485   5.049   3.259   4.895 -0.4452  0.3425 -0.0809
 2566SOL    HW111486   5.026   3.303   4.977 -0.1437  0.1876  0.0871
 2566SOL    HW211487   4.986   3.293   4.832  0.8304  2.3406 -0.3682
 2567SOL     OW11488   2.299   5.420   3.302  0.7363 -0.1207  0.6984
 2567SOL    HW111489   2.272   5.332   3.330  1.7638 -1.1060 -1.2043
 2567SOL    HW211490   2.223   5.476   3.321 -0.7893 -1.8354 -0.0139
 2568SOL     OW11491   8.420   9.782   1.770 -0.3465 -0.5589 -0.1687
 2568SOL    HW111492   8.380   9.696   1.759 -2.5913  0.5223 -0.9720
 2568SOL    HW211493   8.352   9.844   1.746  1.6596  1.4509 -1.0206
 2569SOL     OW11494   2.992   8.843   3.504  0.5993  0.0619  0.0858
 2569SOL    HW111495   3.043   8.916   3.468  0.8758 -0.5060 -0.6937
 2569SOL    HW211496   2.985   8.781   3.432 -2.5194  0.7733 -0.3322
 2570SOL     OW11497   4.402   3.223   1.203  0.4315  0.0666  0.2534
 2570SOL    HW111498   4.425   3.252   1.115 -0.5431 -4.3344 -1.7163
 2570SOL    HW211499   4.308   3.242   1.210  0.6624  1.1170  0.7342
 2571SOL     OW11500   5.614   8.629   8.400 -0.3936 -0.6774 -0.1829
 2571SOL    HW111501   5.577   8.683   8.471  3.3481  1.2979  0.4837
 2571SOL    HW211502   5.627   8.543   8.441  1.1283  0.2586  1.4729
 2572SOL     OW11503   1.160   0.175   6.449 -0.1705 -0.0547  0.7268
 2572SOL    HW111504   1.245   0.139   6.426 -0.1966  0.8891 -1.0220
 2572SOL    HW211505   1.177   0.266   6.473 -0.8160  0.7017 -1.4029
 2573SOL     OW11506  10.096   3.519   0.259  0.3287 -0.1275 -0.3521
 2573SOL    HW111507  10.154   3.566   0.199 -0.5473  0.9902 -0.3577
 2573SOL    HW211508  10.085   3.433   0.220  0.0628  0.4589 -1.6179
 2574SOL     OW11509   0.406   5.950   0.079 -0.0108  0.1844  0.7759
 2574SOL    HW111510   0.326   5.977   0.124 -0.4518 -0.4988  0.4105
 2574SOL    HW211511   0.474   6.008   0.114 -0.8638  1.5147  0.2822
 2575SOL     OW11512   2.983   7.065   2.818  0.8274 -0.8456 -0.3657
 2575SOL    HW111513   2.953   7.045   2.729  0.2174  2.5287 -1.0536
 2575SOL    HW211514   2.905   7.052   2.873  0.5004 -0.5462 -0.7470
 2576SOL     OW11515   6.916   1.005   4.299  0.0626  0.8323 -0.1762
 2576SOL    HW111516   6.898   1.082   4.353  0.4443 -1.8366  4.3112
 2576SOL    HW211517   6.830   0.966   4.284  0.1262 -0.0563  1.4704
 2577SOL     OW11518   6.698   4.964   6.276  0.1978 -0.0491  0.0662
 2577SOL    HW111519   6.607   4.950   6.302  0.1647 -1.5212 -0.7423
 2577SOL    HW211520   6.708   5.060   6.275 -1.2028  0.1229  0.5889
 2578SOL     OW11521   9.325   5.736   1.889 -0.8782  0.2544  0.5681
 2578SOL    HW111522   9.298   5.680   1.816  1.1704 -0.4776  0.2858
 2578SOL    HW211523   9.323   5.678   1.966  1.1568 -0.2902  0.2900
 2579SOL     OW11524   8.555   3.648   4.948  0.4753  0.3452 -0.4213
 2579SOL    HW111525   8.498   3.615   4.879 -0.4150 -0.3809  0.6168
 2579SOL    HW211526   8.499   3.706   5.000  0.0307 -1.7842  1.6950
 2580SOL     OW11527   9.789   3.603   3.390 -0.7245 -0.7275 -0.2226
 2580SOL    HW111528   9.754   3.682   3.430  0.1780  0.2237 -1.2444
 2580SOL    HW211529   9.847   3.566   3.457 -0.8107 -0.2765  0.1074
 2581SOL     OW11530   4.421   0.658   6.779  0.4747 -0.2814 -0.9743
 2581SOL    HW111531   4.450   0.590   6.840  1.4414 -0.1461 -1.2584
 2581SOL    HW211532   4.502   0.687   6.737  0.0384  0.8754 -1.0280
 2582SOL     OW11533   7.165  10.070   5.888 -0.5600 -0.1243 -0.0843
 2582SOL    HW111534   7.239  10.130   5.872  0.5045 -1.4910 -0.4777
 2582SOL    HW211535   7.178   9.999   5.824 -1.3336 -1.1708  0.8898
 2583SOL     OW11536   5.883   1.764   5.839  0.0108  0.3873 -0.5528
 2583SOL    HW111537   5.844   1.851   5.839 -0.7373  0.0826  0.6306
 2583SOL    HW211538   5.847   1.722   5.918 -1.0808 -1.6173 -2.0391
 2584SOL     OW11539   5.589   1.198  10.120 -0.1524 -0.3597 -1.0444
 2584SOL    HW111540   5.558   1.288  10.119  1.4793  0.2915  0.7151
 2584SOL    HW211541   5.528   1.151  10.064 -1.8656  1.5606 -0.8956
 2585SOL     OW11542   1.659   4.669   3.584  0.1396  0.3857 -0.6421
 2585SOL    HW111543   1.644   4.587   3.632  3.2842 -0.5829 -1.0636
 2585SOL    HW211544   1.616   4.736   3.636 -3.3070 -1.5335 -0.7035
 2586SOL     OW11545   5.628   3.016   9.003  0.0291  0.0257  0.0799
 2586SOL    HW111546   5.656   3.107   9.017 -0.1354 -0.0006  0.6032
 2586SOL    HW211547   5.681   2.986   8.929  0.9121  0.1852  0.6336
 2587SOL     OW11548   7.213   5.319   2.183 -0.7077  0.6077 -0.5687
 2587SOL    HW111549   7.200   5.413   2.196 -0.4048  0.2749  3.8395
 2587SOL    HW211550   7.125   5.286   2.164 -1.3273  1.5216  0.5543
 2588SOL     OW11551   7.608   2.688   2.040  0.0573 -0.1162 -0.1058
 2588SOL    HW111552   7.655   2.614   2.000  2.1103  0.6961  0.6783
 2588SOL    HW211553   7.648   2.765   2.001 -1.0898  0.6203  0.1367
 2589SOL     OW11554   4.932   3.266   1.715  0.5065 -0.7920  0.0429
 2589SOL    HW111555   4.973   3.257   1.629 -0.3476  1.2571 -0.6522
 2589SOL    HW211556   4.848   3.221   1.705  0.6541 -1.0532 -0.0189
 2590SOL     OW11557   3.642   9.412   1.136 -0.2846 -0.4218  0.3684
 2590SOL    HW111558   3.729   9.437   1.167 -0.9133  0.2357  1.7096
 2590SOL    HW211559   3.615   9.341   1.196 -1.8754  1.4354  1.9953
 2591SOL     OW11560   3.151   6.079   3.980  0.2392  0.3497  0.1078
 2591SOL    HW111561   3.216   6.085   3.910  0.8272  0.1521  0.6262
 2591SOL    HW211562   3.075   6.038   3.939  0.7919 -0.3223 -0.2670
 2592SOL     OW11563   5.808   2.404   3.953 -0.1919 -0.1476  0.4154
 2592SOL    HW111564   5.840   2.355   3.876  0.2795 -0.3816  0.7569
 2592SOL    HW211565   5.845   2.492   3.942 -1.8254  0.4439 -0.7029
 2593SOL     OW11566   1.784   0.170   5.289  0.1675 -0.3339  0.4577
 2593SOL    HW111567   1.797   0.162   5.194  1.0128  0.5491  0.4799
 2593SOL    HW211568   1.837   0.100   5.327  0.9189  0.1470  0.3238
 2594SOL     OW11569   8.432   3.824   8.114 -0.3204 -0.3358 -0.3782
 2594SOL    HW111570   8.507   3.766   8.126 -1.1534 -1.3117  0.2599
 2594SOL    HW211571   8.376   3.777   8.052 -0.2076  0.5984 -1.2140
 2595SOL     OW11572   1.643   5.097   1.698 -0.4172 -0.5882 -0.5509
 2595SOL    HW111573   1.674   5.012   1.729  1.1592  0.4505  0.9506
 2595SOL    HW211574   1.613   5.142   1.777  1.6231  1.3344 -0.7643
 2596SOL     OW11575   4.044   6.467   7.321 -0.0370  0.4309  0.2516
 2596SOL    HW111576   3.950   6.478   7.330 -0.0316  1.6041 -0.7302
 2596SOL    HW211577   4.082   6.523   7.389 -0.0139 -1.5161  1.9264
 2597SOL     OW11578   4.242   3.116   5.820 -0.0614  0.7781 -0.1310
 2597SOL    HW111579   4.309   3.161   5.873  0.0564 -2.1861  2.5063
 2597SOL    HW211580   4.159   3.138   5.862  0.0786 -2.0607  1.9193
 2598SOL     OW11581   3.216   4.378   0.238  0.0112  0.5520  0.5670
 2598SOL    HW111582   3.130   4.416   0.221  0.2037  0.7976  0.1289
 2598SOL    HW211583   3.237   4.330   0.158  0.6838  1.2667  0.2970
 2599SOL     OW11584   7.277   0.779   3.176 -0.8558 -0.4798 -0.1657
 2599SOL    HW111585   7.327   0.701   3.199 -0.0305 -0.9039 -2.9942
 2599SOL    HW211586   7.305   0.845   3.239  2.8756 -0.9019 -1.1072
 2600SOL     OW11587   9.040   3.689   4.993 -0.5009  0.1826 -0.2129
 2600SOL    HW111588   9.043   3.604   4.948  1.8240  0.3014 -0.4263
 2600SOL    HW211589   9.004   3.748   4.927  1.7686  0.1174 -1.6688
 2601SOL     OW11590   1.471   7.646   2.159  0.2155 -0.1850 -0.1422
 2601SOL    HW111591   1.519   7.704   2.100 -0.9069  1.3138  0.3355
 2601SOL    HW211592   1.463   7.564   2.112 -0.3726  0.8665 -1.9370
 2602SOL     OW11593   5.179   1.349   1.582 -0.2851 -0.6707  0.5829
 2602SOL    HW111594   5.087   1.327   1.597 -0.9031  1.6294  0.4824
 2602SOL    HW211595   5.186   1.365   1.488  0.2293 -0.7990  0.5925
 2603SOL     OW11596   8.054   1.938   0.069 -0.1260  0.1723 -0.1037
 2603SOL    HW111597   8.002   1.931  -0.011  1.0763 -1.8344 -0.8129
 2603SOL    HW211598   8.102   1.855   0.073  0.7371  0.7050  2.0914
 2604SOL     OW11599   6.155   1.412   8.308  0.6989 -0.2825  1.2755
 2604SOL    HW111600   6.175   1.335   8.255 -0.0896  0.3136  0.0811
 2604SOL    HW211601   6.189   1.390   8.395 -0.7546 -2.5490  1.3444
 2605SOL     OW11602   2.669   3.450   3.753  0.0725  0.7528  0.3549
 2605SOL    HW111603   2.722   3.373   3.730  0.4849  0.9203  0.7378
 2605SOL    HW211604   2.715   3.490   3.827 -0.1106  1.3982  0.1257
 2606SOL     OW11605   8.411   0.896   4.930 -0.6959 -0.7571 -0.2071
 2606SOL    HW111606   8.363   0.973   4.958  2.4348  0.5561  2.1420
 2606SOL    HW211607   8.396   0.891   4.835 -3.2678  0.9701  0.0312
 2607SOL     OW11608   3.489   7.853   4.866 -0.0934  0.0594 -0.1102
 2607SOL    HW111609   3.507   7.889   4.779 -0.4773 -1.4250 -0.8337
 2607SOL    HW211610   3.463   7.763   4.850 -1.9878  0.2648  1.4082
 2608SOL     OW11611   2.810   2.561   0.325  0.8582  0.0881  0.6091
 2608SOL    HW111612   2.724   2.533   0.359  1.5807 -1.5010  1.2366
 2608SOL    HW211613   2.798   2.566   0.230  0.0521 -0.0146  0.6968
 2609SOL     OW11614   7.307   4.535   9.659  0.0642 -0.0177 -0.0788
 2609SOL    HW111615   7.352   4.612   9.624 -1.2005  0.1871 -1.3248
 2609SOL    HW211616   7.214   4.550   9.640 -0.3794 -1.1535  1.0166
 2610SOL     OW11617   6.900   5.698   6.640 -0.3672 -0.1230 -0.1266
 2610SOL    HW111618   6.881   5.750   6.718 -1.2730 -1.8517  0.8594
 2610SOL    HW211619   6.820   5.704   6.587 -0.1359  0.2109 -0.4423
 2611SOL     OW11620   0.785   0.358   6.425  0.2272 -0.3609  0.0556
 2611SOL    HW111621   0.791   0.321   6.513 -0.7291 -0.4505  0.0921
 2611SOL    HW211622   0.778   0.453   6.439 -2.5302 -0.4980  0.2620
 2612SOL     OW11623   2.968   6.413  10.066  0.0503  0.4208 -0.0842
 2612SOL    HW111624   3.029   6.433   9.996 -0.4414 -0.5977 -0.8270
 2612SOL    HW211625   2.888   6.386  10.021 -1.1526  2.2289  0.8475
 2613SOL     OW11626   3.646   6.456   8.478 -0.6329 -0.8946  0.3580
 2613SOL    HW111627   3.628   6.363   8.461 -0.6891 -0.6424 -1.1841
 2613SOL    HW211628   3.562   6.499   8.460  0.1549 -0.2288 -2.1905
 2614SOL     OW11629   3.450   6.461   2.536 -0.7939  0.0549  0.1265
 2614SOL    HW111630   3.485   6.541   2.497 -2.1213  0.5418 -0.1093
 2614SOL    HW211631   3.485   6.390   2.481  2.4069  0.1774  1.7314
 2615SOL     OW11632   5.658   0.313   7.272 -0.1698 -0.0176  0.1305
 2615SOL    HW111633   5.659   0.386   7.210 -1.0166  1.4589  1.7567
 2615SOL    HW211634   5.565   0.292   7.283 -0.0171 -0.4057  0.7306
 2616SOL     OW11635   1.193   7.366   0.796 -1.1479 -0.2508 -0.1402
 2616SOL    HW111636   1.196   7.430   0.725  1.4141 -1.0801 -0.8711
 2616SOL    HW211637   1.179   7.418   0.875 -0.7079  1.0264 -0.8762
 2617SOL     OW11638   7.681   0.430   3.305 -0.6733  0.0844 -0.6880
 2617SOL    HW111639   7.698   0.499   3.369 -1.7939  0.6582 -0.9840
 2617SOL    HW211640   7.761   0.424   3.254 -0.5663  1.1736 -0.6626
 2618SOL     OW11641   8.871   2.895   7.800  0.4661  0.0705  0.3667
 2618SOL    HW111642   8.821   2.840   7.739 -0.3721 -1.5690  2.4066
 2618SOL    HW211643   8.953   2.847   7.814  1.7121  1.6072 -1.1767
 2619SOL     OW11644   6.839  10.174   0.655 -0.1451 -0.3344  0.2532
 2619SOL    HW111645   6.921  10.130   0.634  0.1364 -0.1164  0.8719
 2619SOL    HW211646   6.821  10.230   0.579  0.6667  0.1827  0.4310
 2620SOL     OW11647   0.260   7.012   5.277  0.2179  0.0772 -0.2439
 2620SOL    HW111648   0.178   7.062   5.276  1.4308  2.2794 -2.5225
 2620SOL    HW211649   0.240   6.934   5.327 -3.5060  0.1165 -1.3634
 2621SOL     OW11650   0.005   6.801   0.204  0.2326 -0.3093  0.3713
 2621SOL    HW111651  -0.031   6.712   0.201  1.1575 -0.7985  2.4388
 2621SOL    HW211652   0.040   6.816   0.116  1.1348 -2.4631  0.3093
 2622SOL     OW11653   2.371   9.047   7.709  0.3618  0.9463  0.1715
 2622SOL    HW111654   2.379   9.067   7.803 -2.4855  0.2256  0.6556
 2622SOL    HW211655   2.344   9.129   7.669  1.3503  1.1936 -0.0245
 2623SOL     OW11656  10.333   6.487   7.071  0.1896  0.2701 -0.1546
 2623SOL    HW111657  10.314   6.558   7.009 -1.3550 -0.0127 -0.0475
 2623SOL    HW211658  10.428   6.488   7.079  0.6667 -0.7129 -3.7631
 2624SOL     OW11659   9.696  10.047   5.830 -0.3819 -0.4544  0.6258
 2624SOL    HW111660   9.669  10.136   5.853  2.4863  0.4294  0.9400
 2624SOL    HW211661   9.768  10.059   5.768 -0.8566 -2.6103 -0.4196
 2625SOL     OW11662   6.249   7.640   9.045 -0.1580 -0.0046  0.1591
 2625SOL    HW111663   6.325   7.661   8.991  0.4370  0.6845  1.2189
 2625SOL    HW211664   6.277   7.563   9.096 -0.0007  0.4944  0.8452
 2626SOL     OW11665   3.594   4.103   1.984  0.3549  0.5047 -0.1259
 2626SOL    HW111666   3.677   4.133   1.946  1.1574  0.7749  1.7496
 2626SOL    HW211667   3.619   4.032   2.043 -1.0827 -1.2452 -1.4817
 2627SOL     OW11668   9.564   3.626   6.221  0.1476 -0.2860 -0.3815
 2627SOL    HW111669   9.482   3.643   6.267 -0.1763  0.4093 -1.2039
 2627SOL    HW211670   9.607   3.558   6.274 -0.2970  0.3477  0.8384
 2628SOL     OW11671   5.782   7.769   2.624  0.4104  0.4730 -0.1380
 2628SOL    HW111672   5.773   7.782   2.530  1.0829  0.6958 -0.1831
 2628SOL    HW211673   5.693   7.755   2.656  0.1468  0.6942 -0.7622
 2629SOL     OW11674   0.094   0.888   0.091  0.4495 -0.0346 -0.4756
 2629SOL    HW111675   0.025   0.954   0.084  1.9800  1.4464 -2.7763
 2629SOL    HW211676   0.063   0.815   0.039  0.6713  0.7443 -1.7500
 2630SOL     OW11677   2.594   4.764   8.477 -0.4731 -0.3714 -0.1756
 2630SOL    HW111678   2.511   4.734   8.441  0.1248 -0.9943 -1.0970
 2630SOL    HW211679   2.650   4.775   8.400 -0.0900  1.2922  0.3120
 2631SOL     OW11680   3.763   3.396   7.283  0.2401  0.0991 -0.0103
 2631SOL    HW111681   3.819   3.458   7.330 -1.4714  0.5184  1.5872
 2631SOL    HW211682   3.752   3.434   7.196  0.1246  1.4807  0.5863
 2632SOL     OW11683   1.489   8.902   4.648 -0.6450 -0.0578  0.2206
 2632SOL    HW111684   1.542   8.853   4.585  0.9218  1.4692  0.2544
 2632SOL    HW211685   1.410   8.850   4.659  0.4826 -2.0303 -0.4925
 2633SOL     OW11686   0.747   4.936   8.677 -0.1004  0.5255  0.3551
 2633SOL    HW111687   0.723   4.913   8.767 -2.0274 -0.0201 -0.2584
 2633SOL    HW211688   0.831   4.981   8.686  0.2007 -0.3139  2.3338
 2634SOL     OW11689   4.598   9.361   4.341 -0.2432 -0.0334 -0.0207
 2634SOL    HW111690   4.507   9.350   4.370  0.2810 -0.0288  1.8049
 2634SOL    HW211691   4.614   9.455   4.351 -0.0538 -0.0243 -0.4096
 2635SOL     OW11692   8.436   4.519   3.044  0.1990  0.4162  0.3416
 2635SOL    HW111693   8.503   4.513   2.975  0.0788  0.2587  0.2406
 2635SOL    HW211694   8.417   4.429   3.067 -0.3597  0.4491  0.0067
 2636SOL     OW11695   5.222   6.987   3.426 -0.1519 -1.0427  0.6620
 2636SOL    HW111696   5.284   6.947   3.365 -0.4620  0.0164 -0.3981
 2636SOL    HW211697   5.267   6.987   3.510  0.3037 -2.5058  0.4413
 2637SOL     OW11698   7.225   9.800   9.957  0.0204 -0.3249  0.5054
 2637SOL    HW111699   7.294   9.814   9.892 -1.5255 -1.1964 -1.4487
 2637SOL    HW211700   7.216   9.705   9.962 -1.9859 -0.2295 -0.4174
 2638SOL     OW11701   7.943   6.389   5.564 -0.3443 -0.3798  0.7151
 2638SOL    HW111702   7.939   6.293   5.566 -1.2099 -0.3653  0.2061
 2638SOL    HW211703   7.853   6.416   5.544  0.3629  0.4420 -1.7778
 2639SOL     OW11704   9.627   1.120   0.364 -0.0955  0.6053 -0.0424
 2639SOL    HW111705   9.532   1.125   0.357 -0.0632  0.0702 -0.9840
 2639SOL    HW211706   9.645   1.030   0.392  0.0964  0.9386  0.9179
 2640SOL     OW11707   9.230   5.864   8.668  0.0945 -0.7218  0.2410
 2640SOL    HW111708   9.167   5.838   8.735 -0.5437 -1.8023 -0.7410
 2640SOL    HW211709   9.311   5.817   8.691  0.3798  0.1893  1.1545
 2641SOL     OW11710   4.295   3.954   4.907 -0.2230  0.2715 -0.4073
 2641SOL    HW111711   4.294   4.014   4.833 -0.9090  3.9596  2.2900
 2641SOL    HW211712   4.375   3.976   4.955  0.0302 -1.7680  0.2262
 2642SOL     OW11713   3.944   0.636   4.994 -0.3491 -0.5076  0.4248
 2642SOL    HW111714   3.936   0.703   5.063  0.0724 -1.2181  1.1833
 2642SOL    HW211715   3.874   0.657   4.933  0.1843  1.0360  0.2856
 2643SOL     OW11716   9.222   9.132   6.325  0.6794  0.7804 -0.6106
 2643SOL    HW111717   9.276   9.108   6.250 -0.7328  0.8615 -1.6947
 2643SOL    HW211718   9.262   9.213   6.358  2.3011 -0.1386 -0.2044
 2644SOL     OW11719   1.543   2.148   0.986  0.0580  0.1601 -0.7445
 2644SOL    HW111720   1.528   2.078   1.050  1.1057  2.3628  2.1270
 2644SOL    HW211721   1.618   2.117   0.934  0.1642 -1.0555  0.0853
 2645SOL     OW11722   6.417   5.109   3.068 -0.4796  0.3541  0.1492
 2645SOL    HW111723   6.346   5.108   3.004 -1.7921  2.0991  1.4675
 2645SOL    HW211724   6.470   5.033   3.047 -1.6711  0.0677 -2.0820
 2646SOL     OW11725   1.251   6.555   2.354 -0.1939 -0.1432  0.1111
 2646SOL    HW111726   1.281   6.577   2.442  1.0481 -0.7866 -0.1330
 2646SOL    HW211727   1.282   6.627   2.299 -0.1741 -0.1968  0.0520
 2647SOL     OW11728   1.049   4.317   6.070  0.4199 -0.4293 -0.0402
 2647SOL    HW111729   1.000   4.365   6.137  0.6390 -2.4244  1.6492
 2647SOL    HW211730   0.987   4.253   6.035  1.1846 -1.6046  0.6629
 2648SOL     OW11731   9.556   6.289   9.797  0.5046 -0.1922  0.7267
 2648SOL    HW111732   9.465   6.260   9.794  0.8241 -1.2049  0.2264
 2648SOL    HW211733   9.606   6.213   9.766  1.5126  0.3679  0.9384
 2649SOL     OW11734   9.070   2.144  10.287  0.1931  0.7312 -0.3533
 2649SOL    HW111735   9.015   2.170  10.213 -0.0732  1.8043  0.2114
 2649SOL    HW211736   9.157   2.177  10.265  0.8383 -1.5762 -1.5816
 2650SOL     OW11737   9.948   7.684   6.959  0.5425  0.6170 -0.3529
 2650SOL    HW111738   9.931   7.704   6.867  1.0760  1.3611 -0.3003
 2650SOL    HW211739  10.026   7.627   6.957 -0.4798 -0.8253 -0.4533
 2651SOL     OW11740   9.971   4.345   9.441  0.4279  0.1445 -0.4390
 2651SOL    HW111741   9.912   4.420   9.449 -0.2433 -0.4855  0.8858
 2651SOL    HW211742   9.915   4.269   9.457  1.2671 -0.5923 -0.9068
 2652SOL     OW11743   8.632   3.610   4.453 -0.2864 -0.1995 -0.2573
 2652SOL    HW111744   8.559   3.565   4.496 -0.6347 -0.2629 -0.8950
 2652SOL    HW211745   8.589   3.667   4.388  0.1889  0.4476 -0.0056
 2653SOL     OW11746   0.744   8.398   1.112  0.5975  0.2043  0.2043
 2653SOL    HW111747   0.663   8.426   1.068  0.8327  2.4019  1.0509
 2653SOL    HW211748   0.766   8.315   1.070 -1.0980  0.4545 -1.3304
 2654SOL     OW11749   0.166   3.672   7.204  0.0130 -0.0220 -0.4443
 2654SOL    HW111750   0.177   3.759   7.242  2.8344 -0.5474  0.1538
 2654SOL    HW211751   0.086   3.638   7.245 -0.1873  1.6263  0.6183
 2655SOL     OW11752   5.001   1.751   6.832  0.0204 -0.2811 -0.1026
 2655SOL    HW111753   4.937   1.748   6.904  1.6374  1.1774  1.5074
 2655SOL    HW211754   4.982   1.673   6.780 -2.9235 -0.0093  0.3740
 2656SOL     OW11755   3.180   7.874   0.236  0.2867 -0.1804  0.0188
 2656SOL    HW111756   3.219   7.788   0.248 -0.6735 -0.9579 -2.0227
 2656SOL    HW211757   3.085   7.858   0.240  0.0957  1.0603  1.1899
 2657SOL     OW11758   3.486   7.201   9.417 -0.0958  0.0999 -0.2985
 2657SOL    HW111759   3.570   7.179   9.458  0.3666 -1.1802 -1.8423
 2657SOL    HW211760   3.464   7.124   9.365 -1.3281  1.1347 -1.3673
 2658SOL     OW11761  10.136   5.600   4.609  0.0958  0.6670  0.4198
 2658SOL    HW111762  10.101   5.543   4.677 -0.7480  0.0172 -0.5139
 2658SOL    HW211763  10.231   5.590   4.615 -0.0319 -1.6185 -0.2978
 2659SOL     OW11764   0.807   4.505   8.121 -0.0577  0.1368 -0.0839
 2659SOL    HW111765   0.728   4.557   8.110 -0.3356 -0.2426  0.0875
 2659SOL    HW211766   0.796   4.431   8.061  1.3639  1.4292 -2.0406
 2660SOL     OW11767   6.417   2.518   7.350 -0.1945  0.0256 -0.1135
 2660SOL    HW111768   6.452   2.590   7.403  0.7793 -1.0985  0.8363
 2660SOL    HW211769   6.347   2.558   7.298  1.1401  1.9238 -0.5565
 2661SOL     OW11770   5.809   3.332   6.457 -0.4338  0.0301 -0.6630
 2661SOL    HW111771   5.891   3.301   6.496 -0.8206 -0.2057 -0.0176
 2661SOL    HW211772   5.834   3.411   6.409  0.4940 -1.0153 -1.9655
 2662SOL     OW11773   1.249   9.578   3.250 -0.2433  0.3438  0.3485
 2662SOL    HW111774   1.219   9.538   3.331 -1.8336  1.1298  0.1760
 2662SOL    HW211775   1.224   9.515   3.182  0.8015 -0.1644  0.4116
 2663SOL     OW11776   8.589   3.405   8.181 -0.3746  0.0031  0.5747
 2663SOL    HW111777   8.539   3.332   8.218 -0.2426  0.8362  2.5173
 2663SOL    HW211778   8.677   3.394   8.217 -0.1084  0.5717  0.1014
 2664SOL     OW11779   5.658   4.965   1.450 -0.0055  0.2690  0.3934
 2664SOL    HW111780   5.635   4.874   1.463 -2.5271  0.4770 -1.8770
 2664SOL    HW211781   5.610   5.012   1.518 -0.6462  0.1008  0.0596
 2665SOL     OW11782   9.847   0.439   3.820 -0.1212 -0.4152  0.5649
 2665SOL    HW111783   9.825   0.528   3.847  1.4965  0.1864  0.0394
 2665SOL    HW211784   9.833   0.439   3.725 -0.1921 -0.7333  0.5747
 2666SOL     OW11785   8.099   7.513   8.277 -0.6056 -0.0911 -0.4407
 2666SOL    HW111786   8.080   7.596   8.321  1.1945  0.1450  0.0083
 2666SOL    HW211787   8.015   7.468   8.272 -0.9736 -0.1203  3.3021
 2667SOL     OW11788   0.402   1.265   4.020  0.3996  0.0180  0.5080
 2667SOL    HW111789   0.436   1.176   4.022  1.6579  0.4883  1.1191
 2667SOL    HW211790   0.431   1.304   4.103  3.7273  2.3040 -1.4593
 2668SOL     OW11791   1.162   9.070   7.671 -0.3972  0.6408 -0.0195
 2668SOL    HW111792   1.224   9.029   7.611 -1.5596  1.2883 -1.7234
 2668SOL    HW211793   1.215   9.094   7.747  1.2537  0.3885 -1.0387
 2669SOL     OW11794   8.985   3.274   0.480 -0.0214  0.4331 -0.2690
 2669SOL    HW111795   8.989   3.309   0.569  1.0295  0.0261 -0.1382
 2669SOL    HW211796   8.895   3.243   0.471 -0.3731  1.2299  0.3543
 2670SOL     OW11797   1.838   7.289   3.716  0.2774  0.3227  0.2250
 2670SOL    HW111798   1.912   7.283   3.656  0.1203  0.9028 -0.0306
 2670SOL    HW211799   1.761   7.285   3.660  0.0650 -1.3751  0.5691
 2671SOL     OW11800   9.044   4.197  10.158  0.4068  0.1603  0.2962
 2671SOL    HW111801   8.952   4.223  10.154  0.6838  1.1697  0.3956
 2671SOL    HW211802   9.075   4.229  10.243  1.4255  1.8139 -0.6551
 2672SOL     OW11803   9.470   1.965   6.053  0.6094  0.6812 -0.0972
 2672SOL    HW111804   9.512   1.996   5.973  0.7020  0.6806 -0.0490
 2672SOL    HW211805   9.377   1.983   6.040  0.2648 -1.5157 -1.2350
 2673SOL     OW11806   0.505   5.834   3.600  0.6457  0.2880  0.1127
 2673SOL    HW111807   0.560   5.759   3.623  0.2194 -0.9407 -2.5371
 2673SOL    HW211808   0.435   5.797   3.547  0.0814  2.4866 -0.7786
 2674SOL     OW11809   0.402   0.105   0.567 -0.0398 -0.2444  0.6990
 2674SOL    HW111810   0.475   0.058   0.527 -0.2790  1.3479 -1.8318
 2674SOL    HW211811   0.393   0.065   0.654  1.6846 -2.7228 -0.1269
 2675SOL     OW11812   1.450   6.883   6.990 -0.4918  0.2614  0.4085
 2675SOL    HW111813   1.501   6.933   7.053 -0.7498 -0.4866  1.2417
 2675SOL    HW211814   1.487   6.795   6.993 -0.5132  0.2096 -0.4864
 2676SOL     OW11815   8.861   9.694   7.954  0.2989  0.1750 -0.5457
 2676SOL    HW111816   8.835   9.604   7.935  2.3464 -0.6305  0.1559
 2676SOL    HW211817   8.948   9.702   7.915  1.0049  1.1654  1.1164
 2677SOL     OW11818   4.398   5.766   4.723 -0.2115  0.1175 -0.4285
 2677SOL    HW111819   4.454   5.689   4.712  0.3058  0.5200 -0.6957
 2677SOL    HW211820   4.327   5.754   4.660 -1.1135 -0.9936  0.7593
 2678SOL     OW11821   2.890   7.907   1.826 -0.1469  0.0213  0.2675
 2678SOL    HW111822   2.840   7.951   1.894 -1.0528 -0.6629  0.0546
 2678SOL    HW211823   2.849   7.822   1.816  1.2452 -0.6849  0.2863
 2679SOL     OW11824   0.852   4.551   6.551 -0.2250 -0.1618  0.4347
 2679SOL    HW111825   0.884   4.482   6.609  0.7207  0.8358  1.1629
 2679SOL    HW211826   0.838   4.626   6.610 -1.9467  0.0563 -0.2129
 2680SOL     OW11827   5.989   8.607   0.922 -0.3509 -0.6395 -0.6911
 2680SOL    HW111828   5.956   8.591   1.010 -1.2912  1.2991 -0.6519
 2680SOL    HW211829   6.050   8.680   0.931 -1.1627  0.2226 -1.7311
 2681SOL     OW11830   4.763   3.250   0.058 -0.6679  0.5056 -0.0207
 2681SOL    HW111831   4.814   3.293   0.126 -0.1142 -0.7765  0.3866
 2681SOL    HW211832   4.802   3.280  -0.024  1.3067 -1.0591  0.2810
 2682SOL     OW11833   5.908   4.082   7.599 -0.0122  0.0085 -0.0680
 2682SOL    HW111834   5.989   4.048   7.560  0.0366 -0.3577  0.3373
 2682SOL    HW211835   5.838   4.031   7.557 -0.0503  0.4725 -0.5735
 2683SOL     OW11836   2.048   2.251   4.406 -0.2808  0.3652  0.0118
 2683SOL    HW111837   2.004   2.336   4.402 -1.7447 -0.3938 -1.8134
 2683SOL    HW211838   1.976   2.188   4.410  0.7736 -0.8076  1.6780
 2684SOL     OW11839   3.673   9.094   5.636 -0.3685 -0.4728 -0.5519
 2684SOL    HW111840   3.609   9.163   5.616  0.1706  0.7057  1.5356
 2684SOL    HW211841   3.626   9.036   5.695  0.4991  0.5453  1.2098
 2685SOL     OW11842   0.441   6.428   9.711 -0.2428 -0.0550 -0.6269
 2685SOL    HW111843   0.442   6.361   9.642  1.6946 -1.5744  0.7430
 2685SOL    HW211844   0.527   6.469   9.705 -1.0497  1.6910 -0.8024
 2686SOL     OW11845   0.188   8.391   3.398 -0.2649 -0.3277 -0.6694
 2686SOL    HW111846   0.213   8.306   3.360 -1.6179 -1.8686  1.6715
 2686SOL    HW211847   0.093   8.389   3.401 -0.2555  0.3816  1.3061
 2687SOL     OW11848   2.231   2.970   4.277  0.2329 -0.2596 -0.4421
 2687SOL    HW111849   2.259   2.880   4.296  0.2297 -0.0836  0.4542
 2687SOL    HW211850   2.178   2.962   4.197  0.3010 -1.0452 -0.4195
 2688SOL     OW11851   8.163   1.774   2.357 -0.0356  0.3364  0.6741
 2688SOL    HW111852   8.094   1.790   2.421 -0.0140  0.0855  0.7638
 2688SOL    HW211853   8.226   1.844   2.371  0.7118 -0.5517  1.9550
 2689SOL     OW11854   2.515   5.044   9.981  0.1742  0.1688  0.1949
 2689SOL    HW111855   2.521   5.087  10.066 -1.2042  0.2046  0.2959
 2689SOL    HW211856   2.515   5.117   9.918  0.6461  0.1708  0.1971
 2690SOL     OW11857   8.506   3.448   5.255 -0.0197 -0.4404  0.0587
 2690SOL    HW111858   8.602   3.449   5.258  0.0137 -1.1445 -0.5257
 2690SOL    HW211859   8.479   3.441   5.346  0.4808 -0.0795  0.2424
 2691SOL     OW11860   3.165   8.008   3.947 -0.6307  0.2540  0.2242
 2691SOL    HW111861   3.231   7.972   4.006 -0.3064  0.9797  0.3103
 2691SOL    HW211862   3.154   7.941   3.880  0.7698  0.4544 -0.2245
 2692SOL     OW11863   0.062   1.726   5.746  0.2045  0.0344  0.1746
 2692SOL    HW111864   0.048   1.820   5.757 -0.7261 -0.2099  1.2646
 2692SOL    HW211865   0.059   1.713   5.651 -0.4882  0.9908  0.0485
 2693SOL     OW11866   2.442   9.355   3.146  0.1423  0.5890  0.1555
 2693SOL    HW111867   2.377   9.296   3.107  0.9793 -1.1523  1.2437
 2693SOL    HW211868   2.408   9.372   3.234  0.4079  0.9067  0.1978
 2694SOL     OW11869  10.271   1.489   6.178  0.0325  0.0213 -0.9994
 2694SOL    HW111870  10.178   1.503   6.162  0.1505  1.0479 -0.8083
 2694SOL    HW211871  10.314   1.515   6.096  0.2891  1.2118 -0.4929
 2695SOL     OW11872   2.108   0.416   2.973  0.0919 -0.0866 -0.2091
 2695SOL    HW111873   2.159   0.353   2.921 -2.1537 -3.2271  1.1066
 2695SOL    HW211874   2.042   0.449   2.912 -1.3533 -2.3354  0.0147
 2696SOL     OW11875   5.646   1.174   2.147 -0.2778 -0.0520 -0.2128
 2696SOL    HW111876   5.551   1.166   2.157  0.0814 -4.0020  2.0537
 2696SOL    HW211877   5.674   1.220   2.226 -0.2308  0.9648 -0.8030
 2697SOL     OW11878   3.794   7.818   8.961 -0.2335 -0.1106 -0.0325
 2697SOL    HW111879   3.706   7.786   8.979 -0.8972  2.4484  1.9644
 2697SOL    HW211880   3.851   7.767   9.019 -0.5772 -0.9336 -0.4165
 2698SOL     OW11881   8.566   3.036   0.774 -0.7227 -0.0121 -0.7856
 2698SOL    HW111882   8.579   3.028   0.868  1.5485 -3.6379 -1.1811
 2698SOL    HW211883   8.473   3.018   0.760 -1.0488  0.4001  0.7261
 2699SOL     OW11884   3.452   1.880   0.235  0.7986 -0.2150 -0.8314
 2699SOL    HW111885   3.414   1.834   0.161  0.1305  2.8291 -2.5557
 2699SOL    HW211886   3.378   1.902   0.290  0.9463 -0.0799 -0.6856
 2700SOL     OW11887   4.393   8.792   4.333 -0.5479  0.2438 -0.0027
 2700SOL    HW111888   4.409   8.713   4.385  1.3136 -0.1631 -1.1192
 2700SOL    HW211889   4.375   8.859   4.398  0.0469 -0.6227  1.1037
 2701SOL     OW11890   5.352   6.112   5.291 -0.3645  0.8768 -0.0711
 2701SOL    HW111891   5.426   6.172   5.298 -1.4830  2.1715  1.3823
 2701SOL    HW211892   5.386   6.027   5.320  0.6639  1.3466  0.1295
 2702SOL     OW11893   6.674   2.566   5.776 -0.4391 -0.6240  0.4699
 2702SOL    HW111894   6.759   2.530   5.749  0.4313  1.5255  0.0815
 2702SOL    HW211895   6.614   2.544   5.704  0.0613 -1.2254  0.2275
 2703SOL     OW11896  10.050   2.629   5.451  0.3261  0.0726  0.3514
 2703SOL    HW111897  10.100   2.688   5.506 -0.0586 -0.6109  1.4639
 2703SOL    HW211898  10.038   2.551   5.505 -1.7127  0.1158  0.0248
 2704SOL     OW11899   4.183  10.193   8.860  0.3374  0.1827 -0.3434
 2704SOL    HW111900   4.179  10.286   8.882 -0.3631  0.3627 -1.2089
 2704SOL    HW211901   4.259  10.185   8.803 -0.8950  0.6397 -2.1206
 2705SOL     OW11902   9.459   6.680   7.255  0.3317  0.1434  0.0478
 2705SOL    HW111903   9.531   6.739   7.232  1.1497 -0.6775  0.4574
 2705SOL    HW211904   9.486   6.640   7.337 -0.0383 -1.0758 -0.4072
 2706SOL     OW11905   0.680   5.424   7.523 -0.0133  0.2352 -0.5976
 2706SOL    HW111906   0.659   5.412   7.616 -0.7184 -0.4156 -0.8318
 2706SOL    HW211907   0.617   5.369   7.477 -0.5410  1.5925 -1.5407
 2707SOL     OW11908   8.335   4.785   9.672 -0.6934 -0.0699  0.1026
 2707SOL    HW111909   8.355   4.877   9.657  0.1271  0.4182  3.4609
 2707SOL    HW211910   8.408   4.738   9.632 -0.3262  0.8288 -0.3140
 2708SOL     OW11911   8.548   5.295   7.355  0.1582  0.3722 -0.3485
 2708SOL    HW111912   8.493   5.285   7.277 -3.9492  2.2631  1.9702
 2708SOL    HW211913   8.602   5.372   7.336 -0.8410  0.8719 -1.3258
 2709SOL     OW11914   2.149   1.408   3.089  0.5090  0.0829  0.2744
 2709SOL    HW111915   2.143   1.315   3.066  0.0025  0.0196  0.6455
 2709SOL    HW211916   2.148   1.453   3.004  1.1371 -0.2668  0.0789
 2710SOL     OW11917   3.737   7.840  10.000 -0.0068  0.3805  0.4780
 2710SOL    HW111918   3.826   7.869   9.979  0.5951 -0.0042  2.3647
 2710SOL    HW211919   3.683   7.876   9.929  1.6233  0.6555 -0.6810
 2711SOL     OW11920   7.674   3.835   2.072 -0.1198  0.4195 -0.6306
 2711SOL    HW111921   7.583   3.852   2.047 -0.4041 -0.6013 -0.3673
 2711SOL    HW211922   7.681   3.739   2.068  0.4882  0.3879  0.8841
 2712SOL     OW11923   5.780   4.155   6.319  0.0082 -0.1228  0.2153
 2712SOL    HW111924   5.825   4.078   6.284  3.2071  1.9893 -0.7669
 2712SOL    HW211925   5.751   4.203   6.241  0.5560  1.0138  0.6993
 2713SOL     OW11926   3.157   3.557   7.389  0.2457  0.0176 -0.7085
 2713SOL    HW111927   3.227   3.621   7.405 -0.7123  0.5939  1.7029
 2713SOL    HW211928   3.197   3.472   7.409  0.6427  0.2026 -0.7073
 2714SOL     OW11929   2.966   1.822   1.456 -0.2133  0.0199  0.5315
 2714SOL    HW111930   2.970   1.899   1.400 -0.3969  0.9667  1.7835
 2714SOL    HW211931   2.891   1.772   1.423 -1.7311  1.6881  1.2945
 2715SOL     OW11932   3.416   9.156   4.318 -0.4712  0.0671 -0.2262
 2715SOL    HW111933   3.467   9.190   4.245  0.7736 -0.8149  0.2050
 2715SOL    HW211934   3.386   9.070   4.288  2.0349 -1.3739  1.0909
 2716SOL     OW11935   0.467   1.216   4.546 -0.0034  0.1520 -0.3702
 2716SOL    HW111936   0.492   1.186   4.459  0.4390  0.3561 -0.3173
 2716SOL    HW211937   0.453   1.310   4.535  1.2653  0.4104  0.0294
 2717SOL     OW11938   8.228   0.359   2.416 -0.5621  0.4140  0.1195
 2717SOL    HW111939   8.151   0.367   2.472 -1.7207 -1.5148 -1.0772
 2717SOL    HW211940   8.203   0.293   2.351  2.3501 -0.7310  0.0596
 2718SOL     OW11941   9.240   0.822   6.647 -0.1789 -1.1650 -0.1031
 2718SOL    HW111942   9.219   0.743   6.698 -0.4143 -1.8930 -1.2856
 2718SOL    HW211943   9.183   0.817   6.571  1.7296 -1.3357 -1.6016
 2719SOL     OW11944   3.868   1.841   0.710 -0.4340  0.2513  0.2276
 2719SOL    HW111945   3.932   1.774   0.735  1.4320  1.3630 -1.3206
 2719SOL    HW211946   3.833   1.873   0.793 -0.0065 -1.3352  1.0541
 2720SOL     OW11947   1.523   7.466   1.943  0.2187  0.9336  0.1121
 2720SOL    HW111948   1.501   7.374   1.933  1.0802  0.5021  1.7188
 2720SOL    HW211949   1.557   7.493   1.858 -0.6586 -0.0379 -0.5671
 2721SOL     OW11950  10.030   3.891   6.474  0.4532  0.2542 -0.6133
 2721SOL    HW111951  10.096   3.929   6.416  1.0529  0.2135  0.0237
 2721SOL    HW211952  10.061   3.913   6.562  0.4604 -1.1147 -0.2471
 2722SOL     OW11953   2.498   4.562   2.541  0.3853  0.5640 -0.2495
 2722SOL    HW111954   2.518   4.495   2.606 -0.0226 -0.1709 -0.8678
 2722SOL    HW211955   2.410   4.540   2.510  0.2041  1.4499 -0.3779
 2723SOL     OW11956   5.914   7.967   2.351 -0.2684  0.7975 -0.7112
 2723SOL    HW111957   5.892   8.021   2.276  0.6796  2.7112  0.3151
 2723SOL    HW211958   5.829   7.942   2.388 -0.7965  2.9369 -0.3312
 2724SOL     OW11959   6.527   1.091   0.889 -0.0265 -0.1787  0.0356
 2724SOL    HW111960   6.472   1.017   0.913  0.0718 -0.6646 -1.1720
 2724SOL    HW211961   6.585   1.103   0.965 -2.0176  0.6206  1.5214
 2725SOL     OW11962   2.421   2.167   8.966  0.3880  0.4317  0.2767
 2725SOL    HW111963   2.346   2.225   8.954 -0.8405 -0.1672  3.7819
 2725SOL    HW211964   2.400   2.089   8.914 -0.2611  1.2133 -0.6601
 2726SOL     OW11965   2.379   2.172   3.537 -0.0322  0.4153 -0.6797
 2726SOL    HW111966   2.361   2.089   3.492  1.7267 -0.9003  0.8397
 2726SOL    HW211967   2.302   2.187   3.591 -0.7483  0.2770 -1.6195
 2727SOL     OW11968   5.182   4.708   8.340 -0.3237  0.0522 -0.0313
 2727SOL    HW111969   5.154   4.761   8.266 -0.1643  0.7096  0.3646
 2727SOL    HW211970   5.277   4.707   8.334 -0.2800  0.5636  0.4597
 2728SOL     OW11971   4.570   5.071   9.747  0.4975 -0.6532 -0.2599
 2728SOL    HW111972   4.633   5.123   9.798  1.4741 -0.9965 -1.0898
 2728SOL    HW211973   4.547   4.998   9.805  1.2207 -0.7781 -0.1173
 2729SOL     OW11974   1.346   6.025   4.898 -0.6819 -0.7017 -0.1208
 2729SOL    HW111975   1.310   6.077   4.826  0.7645 -0.5244 -0.7347
 2729SOL    HW211976   1.268   5.995   4.947 -1.5899  1.2152 -0.3028
 2730SOL     OW11977   7.547   5.342   5.675 -0.3199 -0.1412  0.6768
 2730SOL    HW111978   7.505   5.389   5.604 -0.9614 -2.1256 -0.3344
 2730SOL    HW211979   7.631   5.314   5.639 -1.2725 -2.4547  0.0803
 2731SOL     OW11980   4.905   1.484   5.819  0.0951 -0.1225  0.1288
 2731SOL    HW111981   4.969   1.491   5.891 -0.3774 -0.4076  0.5859
 2731SOL    HW211982   4.959   1.476   5.740  0.6401  1.9811  0.2371
 2732SOL     OW11983   4.306   4.193   3.408  0.4675 -0.3160  0.2467
 2732SOL    HW111984   4.248   4.213   3.336  0.2113  0.8934  0.7728
 2732SOL    HW211985   4.343   4.277   3.435  1.9121 -0.9533  0.3955
 2733SOL     OW11986   9.951   9.663   9.472  0.2668 -0.3690  0.0562
 2733SOL    HW111987   9.925   9.584   9.425  0.0828 -0.5277  0.4197
 2733SOL    HW211988   9.872   9.717   9.474  0.5482  0.1023 -0.7225
 2734SOL     OW11989   3.135   7.953   3.629 -0.3377 -0.9410 -1.1464
 2734SOL    HW111990   3.216   8.002   3.643 -1.3566  0.3662  0.5912
 2734SOL    HW211991   3.091   7.999   3.557  0.1737 -1.2680 -1.6680
 2735SOL     OW11992   5.018   9.978   3.891  0.1983  0.2238  0.2957
 2735SOL    HW111993   4.948  10.009   3.948  0.6171  1.3509  0.2077
 2735SOL    HW211994   4.987   9.996   3.802 -0.3303 -1.2698  0.1505
 2736SOL     OW11995   7.735   3.218   3.028 -0.0875  0.2477 -0.7537
 2736SOL    HW111996   7.826   3.225   3.001  0.1150 -0.2907 -0.2400
 2736SOL    HW211997   7.684   3.236   2.949  0.4575  0.7243 -1.0015
 2737SOL     OW11998  10.300   3.271   4.255 -0.2520 -0.0844 -0.6272
 2737SOL    HW111999  10.378   3.260   4.201 -1.3520 -0.0283 -2.3089
 2737SOL    HW212000  10.306   3.202   4.321  1.9634  0.8873  0.2809
 2738SOL     OW12001   8.246   6.085   5.602  0.2715  0.2035 -0.0274
 2738SOL    HW112002   8.316   6.023   5.581  0.6397  0.5652  0.1174
 2738SOL    HW212003   8.291   6.169   5.615 -0.3019  0.7012 -1.0583
 2739SOL     OW12004   4.443   6.442   3.120  0.5642 -0.4171 -0.1888
 2739SOL    HW112005   4.497   6.513   3.086  0.6467 -0.0240  0.7401
 2739SOL    HW212006   4.430   6.384   3.045  0.4961  0.5721 -0.9595
 2740SOL     OW12007   7.712   8.901   7.048 -0.2979 -0.0345  0.1370
 2740SOL    HW112008   7.678   8.963   7.112 -1.4983  0.0219 -0.5220
 2740SOL    HW212009   7.802   8.930   7.031 -0.2370  0.4221  1.1813
 2741SOL     OW12010   2.359   1.827   0.894 -0.4537 -0.6605  0.0572
 2741SOL    HW112011   2.384   1.787   0.978  1.4871 -2.6548 -1.3436
 2741SOL    HW212012   2.264   1.827   0.895 -0.5166  0.3437  2.6547
 2742SOL     OW12013   5.118   0.825   8.938 -0.1320 -0.1160 -0.0281
 2742SOL    HW112014   5.180   0.881   8.890  0.2237 -0.2701  0.2469
 2742SOL    HW212015   5.171   0.786   9.008 -0.6570  0.1490  0.5259
 2743SOL     OW12016   9.919   2.969   1.091  0.6321 -0.1413  0.1808
 2743SOL    HW112017   9.945   2.918   1.014 -1.7042 -1.2606  0.0626
 2743SOL    HW212018   9.946   2.915   1.165 -0.2480 -0.7452  0.0743
 2744SOL     OW12019   2.381   8.852   7.351  0.5214  0.2224  0.1726
 2744SOL    HW112020   2.385   8.925   7.414  1.0194  0.1523  0.2258
 2744SOL    HW212021   2.347   8.779   7.403 -1.7260  0.8394 -0.2960
 2745SOL     OW12022   7.046   1.242   6.154 -0.1463  0.5497 -0.2294
 2745SOL    HW112023   7.049   1.238   6.059 -0.3720 -0.8099 -0.2056
 2745SOL    HW212024   7.132   1.211   6.183 -0.0242  1.0981  0.0145
 2746SOL     OW12025   1.211   9.516   3.972  0.2151 -0.2030  0.0756
 2746SOL    HW112026   1.294   9.558   3.996  0.1617  1.0385 -1.7118
 2746SOL    HW212027   1.162   9.510   4.054  2.4763 -2.0740  1.4378
 2747SOL     OW12028   2.011   7.320   2.667 -0.4110  0.2603  0.8577
 2747SOL    HW112029   2.009   7.416   2.667 -2.9262  0.3187 -0.8674
 2747SOL    HW212030   1.976   7.296   2.753  1.6413  0.7754  1.9175
 2748SOL     OW12031   5.107   2.234   2.685 -0.6621  0.3453 -0.4194
 2748SOL    HW112032   5.165   2.194   2.750 -0.3794  0.5993 -0.5119
 2748SOL    HW212033   5.124   2.328   2.693 -1.9074  0.5391  0.3705
 2749SOL     OW12034   4.894   7.659   6.159 -0.2796  0.1992  0.6765
 2749SOL    HW112035   4.843   7.579   6.170 -2.4255  1.5747  1.3652
 2749SOL    HW212036   4.983   7.635   6.185 -0.7679 -2.0331  0.4759
 2750SOL     OW12037   7.574   6.039   4.418 -0.4409  0.0019  0.0675
 2750SOL    HW112038   7.669   6.041   4.425 -0.5128  0.1844  1.1777
 2750SOL    HW212039   7.555   5.965   4.362  0.3604  0.0049 -0.2150
 2751SOL     OW12040   5.363  10.181   2.055 -0.1050 -0.1820 -0.2294
 2751SOL    HW112041   5.361  10.087   2.036  1.2837 -0.4463  0.7592
 2751SOL    HW212042   5.419  10.189   2.132 -1.9533  1.2504  1.0699
 2752SOL     OW12043   4.981   6.943   9.366  0.5287 -0.3651  0.1223
 2752SOL    HW112044   4.966   7.023   9.415  0.8190 -0.1130 -0.1993
 2752SOL    HW212045   5.060   6.905   9.403 -0.0215 -0.9074  0.7890
 2753SOL     OW12046   3.922   9.097   9.389  1.0137 -0.0930 -0.4832
 2753SOL    HW112047   3.828   9.091   9.408  0.8344 -0.3210 -1.4098
 2753SOL    HW212048   3.963   9.103   9.475  0.0111  2.0846 -0.0881
 2754SOL     OW12049   2.703   3.425   2.943  0.3356 -0.9755  0.5180
 2754SOL    HW112050   2.692   3.343   2.894 -0.2087 -0.3804 -0.3841
 2754SOL    HW212051   2.798   3.434   2.953  0.5750 -0.4187 -1.6941
 2755SOL     OW12052   4.521   5.890   2.572 -0.2144 -0.2004 -0.3879
 2755SOL    HW112053   4.470   5.971   2.578  0.2078  0.1293 -1.1041
 2755SOL    HW212054   4.467   5.824   2.615 -2.2460 -0.3489 -2.9133
 2756SOL     OW12055   9.667   2.142   7.451 -0.5043 -0.1469  0.3284
 2756SOL    HW112056   9.652   2.060   7.497 -0.9614 -0.6881 -0.7494
 2756SOL    HW212057   9.587   2.193   7.467 -2.0847 -1.5504 -2.3126
 2757SOL     OW12058   5.024   5.957   0.769  0.7921  0.4777 -0.4510
 2757SOL    HW112059   4.982   6.037   0.801 -0.5905 -0.4494  0.1250
 2757SOL    HW212060   5.015   5.963   0.674 -1.1474  0.0711 -0.3240
 2758SOL     OW12061   5.930   6.134   0.730 -0.2382  0.5181  0.0300
 2758SOL    HW112062   5.837   6.139   0.708 -0.2324  0.1956 -0.0660
 2758SOL    HW212063   5.975   6.170   0.654 -0.1899 -1.0929 -0.7342
 2759SOL     OW12064   1.869   7.898  10.054 -0.3124  0.4911  0.0030
 2759SOL    HW112065   1.788   7.946  10.072 -0.5195 -0.5929  2.3535
 2759SOL    HW212066   1.840   7.811  10.028  0.1038  0.4557 -0.3589
 2760SOL     OW12067   7.681   9.044   9.479  0.0142  0.2469 -0.0132
 2760SOL    HW112068   7.615   9.083   9.421 -0.5089  0.9862  1.0574
 2760SOL    HW212069   7.764   9.077   9.446 -0.4071  2.3546  0.8802
 2761SOL     OW12070   0.295   3.815   4.137  0.2916  0.2601  0.0505
 2761SOL    HW112071   0.373   3.868   4.120  0.8552 -1.4177 -3.4568
 2761SOL    HW212072   0.222   3.877   4.131  1.1913  1.5414  1.6549
 2762SOL     OW12073   3.768   4.423   6.871  0.1776  0.2785 -0.2695
 2762SOL    HW112074   3.743   4.514   6.861  0.6637  0.4901  0.3635
 2762SOL    HW212075   3.863   4.422   6.860  0.0297 -0.3648 -1.6605
 2763SOL     OW12076   2.946   8.014   1.295  0.3107 -0.4181 -0.1158
 2763SOL    HW112077   3.016   7.974   1.244 -0.4165 -1.6983 -0.1676
 2763SOL    HW212078   2.961   7.985   1.385 -1.4237 -2.7454 -0.4647
 2764SOL     OW12079   6.609   6.586   4.722  0.0705 -0.1069  0.1934
 2764SOL    HW112080   6.658   6.504   4.713  1.1218  0.4979  0.3623
 2764SOL    HW212081   6.635   6.620   4.808 -1.8252 -0.5369  0.9937
 2765SOL     OW12082  10.007  10.108   9.881  0.1443 -0.1256  0.7939
 2765SOL    HW112083  10.095  10.094   9.916 -0.1206 -2.5055  0.6549
 2765SOL    HW212084   9.948  10.076   9.949 -0.7659  2.4531  1.3679
 2766SOL     OW12085   0.938   8.843   7.261  0.2064  0.3337 -0.2758
 2766SOL    HW112086   0.889   8.857   7.342  0.3390  0.4680 -0.2188
 2766SOL    HW212087   0.872   8.844   7.192  0.0367 -0.2089 -0.1299
 2767SOL     OW12088   6.534   7.430   3.854  0.0231  0.0616 -0.3026
 2767SOL    HW112089   6.550   7.438   3.948 -0.4294  0.2062 -0.2330
 2767SOL    HW212090   6.525   7.521   3.825 -1.7953 -0.0342 -0.1254
 2768SOL     OW12091   1.096   8.722   4.892  0.2838  0.2215 -0.3174
 2768SOL    HW112092   1.148   8.691   4.966 -1.3681 -0.2658  0.7092
 2768SOL    HW212093   1.075   8.813   4.912  1.0459  0.5355 -0.9181
 2769SOL     OW12094   1.127   3.856   4.289  0.7169  0.7831 -0.1527
 2769SOL    HW112095   1.157   3.907   4.213 -3.2023  0.2396 -2.3077
 2769SOL    HW212096   1.144   3.765   4.265 -0.4968  0.6126 -0.4286
 2770SOL     OW12097   0.489   8.727   5.252 -0.2251 -0.0848 -0.4742
 2770SOL    HW112098   0.395   8.743   5.245 -0.7072 -2.7550 -1.0101
 2770SOL    HW212099   0.497   8.651   5.309  1.5222 -0.6497 -1.3794
 2771SOL     OW12100   5.253   2.065   3.228 -0.1293  0.2671  0.0686
 2771SOL    HW112101   5.324   2.062   3.164  1.0750  0.1413  1.3689
 2771SOL    HW212102   5.282   2.128   3.293 -0.3092 -1.1997  1.6378
 2772SOL     OW12103   8.873   2.042   1.177  0.1193 -0.0625  0.2922
 2772SOL    HW112104   8.876   2.064   1.270  1.4816  1.4819 -0.0661
 2772SOL    HW212105   8.965   2.034   1.152 -0.1193  1.7068 -1.3626
 2773SOL     OW12106   1.116  10.345   8.123 -0.2252  0.6012  0.2096
 2773SOL    HW112107   1.041  10.332   8.065 -0.1479  1.0710 -0.0005
 2773SOL    HW212108   1.192  10.321   8.070 -0.2832 -0.6751  0.6874
 2774SOL     OW12109   8.823   6.563   5.285  0.0925 -0.1297  0.5522
 2774SOL    HW112110   8.904   6.540   5.330  0.2655  1.2503  1.0095
 2774SOL    HW212111   8.756   6.561   5.354  0.2768  1.5486  0.8337
 2775SOL     OW12112   8.948   8.910   0.147  0.3135 -0.2211 -0.5321
 2775SOL    HW112113   8.940   8.816   0.161 -1.4226 -0.1810 -0.9805
 2775SOL    HW212114   8.873   8.932   0.091  1.4649  1.2046 -1.5959
 2776SOL     OW12115   7.228   3.185   8.117 -0.1822  0.1543  0.0995
 2776SOL    HW112116   7.237   3.102   8.165  0.0355  0.7260  1.0593
 2776SOL    HW212117   7.317   3.219   8.111 -0.2339  0.1904 -0.5431
 2777SOL     OW12118   4.888   0.914   9.316  0.0834 -0.6569 -0.3261
 2777SOL    HW112119   4.821   0.945   9.255 -0.5969 -1.1488  0.1486
 2777SOL    HW212120   4.897   0.986   9.379 -0.3805 -0.7833 -0.1035
 2778SOL     OW12121  10.089   2.234   4.480  0.0444  0.8458  0.3046
 2778SOL    HW112122  10.105   2.155   4.429 -1.4467  0.2044  0.7732
 2778SOL    HW212123  10.127   2.304   4.427  3.6089 -0.3724  1.0236
 2779SOL     OW12124   9.500   6.209   6.438 -0.1921  0.3239  0.1917
 2779SOL    HW112125   9.518   6.276   6.504 -0.0790  0.1730  0.3150
 2779SOL    HW212126   9.506   6.255   6.354  2.1767  0.0019  0.1275
 2780SOL     OW12127   3.283  10.081   6.883  0.1358  0.0096 -0.4388
 2780SOL    HW112128   3.259  10.042   6.799 -0.8458  3.4697 -1.9351
 2780SOL    HW212129   3.369  10.043   6.903 -0.1596 -1.8564 -2.3045
 2781SOL     OW12130   8.084   7.064   0.550 -0.0403 -0.1881 -0.0056
 2781SOL    HW112131   8.137   7.115   0.611 -0.9902  0.7903  0.0314
 2781SOL    HW212132   8.088   6.974   0.583  0.2537  0.1597  0.9240
 2782SOL     OW12133   8.433   9.006   1.823 -0.2733 -0.0304  0.1538
 2782SOL    HW112134   8.499   9.002   1.893 -1.0704 -2.6117  0.9035
 2782SOL    HW212135   8.482   8.987   1.743  0.2190  0.1898  0.3972
 2783SOL     OW12136   1.201   0.662   8.488  0.0785 -0.6828  0.4473
 2783SOL    HW112137   1.261   0.723   8.445 -1.0065  0.0144 -0.1303
 2783SOL    HW212138   1.165   0.711   8.562  0.9419 -1.4345  1.3929
 2784SOL     OW12139   2.924   9.483   2.087  0.0897 -0.3305  0.3591
 2784SOL    HW112140   3.009   9.476   2.045  0.4426 -0.1031  1.0271
 2784SOL    HW212141   2.884   9.397   2.075  0.8325 -0.7606  0.9411
 2785SOL     OW12142   1.374   8.222   8.410  0.2182  0.0832 -0.2815
 2785SOL    HW112143   1.453   8.180   8.444 -1.4857 -1.0774  2.6225
 2785SOL    HW212144   1.364   8.301   8.462 -0.8103 -0.0628 -0.2364
 2786SOL     OW12145   9.064   2.084   8.463 -0.1501  0.2254 -0.8006
 2786SOL    HW112146   9.095   2.014   8.406  0.7290  0.8914 -1.1584
 2786SOL    HW212147   9.024   2.038   8.538 -0.8923 -0.6482 -1.7026
 2787SOL     OW12148   4.431  10.183   0.183 -0.0879 -0.0513  0.1327
 2787SOL    HW112149   4.368  10.219   0.121 -2.0404 -0.0100  2.0135
 2787SOL    HW212150   4.456  10.257   0.239  1.0706 -0.2359 -0.1101
 2788SOL     OW12151   9.915   5.878   5.613  0.4116 -0.2998  0.1496
 2788SOL    HW112152   9.960   5.823   5.550 -0.3142  1.7703 -2.3390
 2788SOL    HW212153   9.843   5.823   5.646  0.1431 -1.1177 -1.6888
 2789SOL     OW12154   5.105   6.335   1.371 -0.2371 -0.3696 -0.3381
 2789SOL    HW112155   5.175   6.358   1.431 -0.4837 -0.8053  0.1225
 2789SOL    HW212156   5.140   6.355   1.284  0.0218  0.5247 -0.0381
 2790SOL     OW12157   2.467   6.035   7.380  0.5527 -0.1963 -0.7641
 2790SOL    HW112158   2.466   6.128   7.360 -0.0394 -0.7135 -3.7675
 2790SOL    HW212159   2.375   6.008   7.371 -0.0650 -0.4946  4.0888
 2791SOL     OW12160   2.652   5.885   6.479  0.5995 -0.2445 -0.2027
 2791SOL    HW112161   2.686   5.799   6.451  0.8100  0.5742 -2.7875
 2791SOL    HW212162   2.557   5.873   6.481  0.6617 -0.7182  0.1260
 2792SOL     OW12163   4.433   2.348   6.539 -0.6470  0.6919 -0.3905
 2792SOL    HW112164   4.442   2.326   6.632  0.8651  0.1768 -0.6430
 2792SOL    HW212165   4.482   2.429   6.528 -0.3164  0.4350 -0.8540
 2793SOL     OW12166   9.445   0.229   1.940  0.2221  0.0459  0.2154
 2793SOL    HW112167   9.400   0.311   1.958  1.7707  0.4041  3.0978
 2793SOL    HW212168   9.456   0.188   2.026  3.4250 -1.0037 -0.5350
 2794SOL     OW12169   9.197   8.349   7.613 -0.4473  0.3262  0.1156
 2794SOL    HW112170   9.215   8.428   7.561  1.4603  0.9146  1.5358
 2794SOL    HW212171   9.241   8.279   7.565  0.1872  0.6360  0.2305
 2795SOL     OW12172  10.096   9.808   9.667 -0.0427  0.7230  0.4003
 2795SOL    HW112173  10.055   9.894   9.678  2.6259  2.5741 -2.3436
 2795SOL    HW212174  10.042   9.764   9.601 -0.6061  0.8772  0.7512
 2796SOL     OW12175   1.766   0.530   9.586 -0.4935  0.2540  0.1237
 2796SOL    HW112176   1.837   0.583   9.548  0.1127 -0.5570  0.0948
 2796SOL    HW212177   1.718   0.497   9.510 -1.7027  1.8140  0.1533
 2797SOL     OW12178   0.068   1.990   5.799 -0.2246 -0.4743 -0.3127
 2797SOL    HW112179   0.162   1.974   5.809 -0.1229  1.1009  1.6603
 2797SOL    HW212180   0.061   2.039   5.717  0.6875 -0.3973 -0.3533
 2798SOL     OW12181   2.535   5.390   2.811  0.5776  0.2360 -0.5994
 2798SOL    HW112182   2.630   5.390   2.802  0.4477 -0.5712 -2.3890
 2798SOL    HW212183   2.516   5.317   2.870  1.1066  1.1121  0.6930
 2799SOL     OW12184   5.330   0.939   6.414 -0.5375 -0.2084 -0.2956
 2799SOL    HW112185   5.238   0.936   6.438 -0.2884  0.6994  0.8886
 2799SOL    HW212186   5.371   0.874   6.471 -0.4217 -0.4633 -0.6726
 2800SOL     OW12187   7.011   8.446   9.286  0.2381 -0.1082 -0.1877
 2800SOL    HW112188   7.050   8.501   9.354 -1.1777 -1.4805  1.8782
 2800SOL    HW212189   7.047   8.359   9.303 -0.0239 -0.4550 -1.3298
 2801SOL     OW12190   8.579   2.704   3.590  0.0586 -0.0361  0.3141
 2801SOL    HW112191   8.672   2.727   3.590  0.1358 -0.3271  1.1124
 2801SOL    HW212192   8.577   2.609   3.588 -0.2102 -0.0505  1.0430
 2802SOL     OW12193   6.681   5.298  10.340 -0.0372  0.0873  0.3341
 2802SOL    HW112194   6.671   5.388  10.373 -1.1358 -0.2709  1.0389
 2802SOL    HW212195   6.712   5.248  10.415  0.2382 -0.1965  0.0353
 2803SOL     OW12196   4.542   7.619   3.506  0.4718 -0.0149 -0.6166
 2803SOL    HW112197   4.607   7.564   3.463  0.0775 -0.3144 -0.8266
 2803SOL    HW212198   4.593   7.692   3.543  0.8770 -0.0484 -1.1062
 2804SOL     OW12199   3.021   7.740   4.762 -0.4251 -0.0033  0.2986
 2804SOL    HW112200   2.966   7.807   4.723  0.2527  0.4205  0.0512
 2804SOL    HW212201   3.024   7.761   4.855 -0.2058  0.3183  0.2192
 2805SOL     OW12202   2.054   5.376   9.936 -0.2806  0.4272 -0.3717
 2805SOL    HW112203   2.125   5.313   9.929 -1.1984 -0.6340 -0.4472
 2805SOL    HW212204   2.056   5.405  10.027  1.3925  1.8375 -0.7979
 2806SOL     OW12205   6.695   0.313   9.968  0.1345  0.2327  0.3474
 2806SOL    HW112206   6.711   0.402   9.999 -0.3579  0.2299  0.6247
 2806SOL    HW212207   6.665   0.266  10.046 -0.7936  0.1392 -0.0480
 2807SOL     OW12208   6.241   7.326   2.424 -0.8800  0.7908  0.8260
 2807SOL    HW112209   6.174   7.258   2.437 -0.8989  0.5182 -0.5223
 2807SOL    HW212210   6.191   7.405   2.406 -0.8859  0.4751 -0.7223
 2808SOL     OW12211   6.508   7.322   0.647 -0.3515  0.6845 -0.1836
 2808SOL    HW112212   6.487   7.408   0.611 -0.6888  0.9696  0.6761
 2808SOL    HW212213   6.600   7.308   0.625  0.5320  2.4722  2.0412
 2809SOL     OW12214   9.362   4.152   2.452 -0.5531 -0.4789  0.3289
 2809SOL    HW112215   9.378   4.095   2.527  1.7305 -0.2289  0.0901
 2809SOL    HW212216   9.296   4.215   2.483  1.1170  0.3097  2.5417
 2810SOL     OW12217   8.788   5.292   5.565  0.3944  0.4980  0.1101
 2810SOL    HW112218   8.741   5.292   5.482 -0.4020  0.3874  0.5570
 2810SOL    HW212219   8.787   5.201   5.594  0.8706  0.4963  0.1364
 2811SOL     OW12220   5.228   9.746   1.580 -0.0595 -0.1542  0.0286
 2811SOL    HW112221   5.256   9.838   1.580 -0.3038 -0.0725  0.5062
 2811SOL    HW212222   5.287   9.703   1.641  0.2876 -0.3897 -0.4767
 2812SOL     OW12223   5.106   6.325   9.141  0.3282  0.6206  0.4385
 2812SOL    HW112224   5.095   6.360   9.230  1.3320 -0.8284  1.1746
 2812SOL    HW212225   5.163   6.388   9.098  1.1755  0.5178  1.3636
 2813SOL     OW12226   8.718   5.488   2.794  0.0441 -0.2640  0.2611
 2813SOL    HW112227   8.784   5.424   2.766 -0.3660 -0.4616 -0.2686
 2813SOL    HW212228   8.674   5.447   2.868 -0.3526 -0.6824 -0.2035
 2814SOL     OW12229   3.758   5.863   3.232 -0.2552  0.6088  0.4937
 2814SOL    HW112230   3.839   5.837   3.275  0.3052 -0.5592 -1.1697
 2814SOL    HW212231   3.762   5.959   3.229  2.5305  0.5589 -2.0990
 2815SOL     OW12232   5.965   2.535   9.227  0.2221 -0.1945 -0.1384
 2815SOL    HW112233   6.015   2.559   9.305  0.8747  1.3282 -0.9634
 2815SOL    HW212234   6.010   2.457   9.193  0.3882 -0.4255  0.5834
 2816SOL     OW12235  10.199   5.453  10.110  0.5932 -0.1803 -0.3305
 2816SOL    HW112236  10.154   5.466  10.026 -0.9617 -0.3945  0.4465
 2816SOL    HW212237  10.237   5.539  10.130  1.5980 -0.2973 -1.5686
 2817SOL     OW12238   5.088   8.682   9.446 -0.3536  0.2314 -0.9758
 2817SOL    HW112239   5.019   8.634   9.491  0.6240 -0.6513 -0.3637
 2817SOL    HW212240   5.053   8.699   9.358 -1.5915  0.4026 -0.4630
 2818SOL     OW12241   3.021   2.778   1.587 -0.1722  0.3576 -0.2885
 2818SOL    HW112242   3.084   2.706   1.599 -0.3564  0.2870  0.3120
 2818SOL    HW212243   3.075   2.854   1.565 -0.0362 -0.1263 -1.6947
 2819SOL     OW12244   1.700  10.069   1.166 -0.0189  0.1299  0.0785
 2819SOL    HW112245   1.666  10.129   1.099 -2.1071  0.8137  1.6474
 2819SOL    HW212246   1.713   9.986   1.119 -3.0248  0.0916 -0.9151
 2820SOL     OW12247   6.071   5.437   9.693 -0.2015 -0.3055 -0.0833
 2820SOL    HW112248   6.164   5.414   9.697 -0.0904  0.2358  1.0156
 2820SOL    HW212249   6.025   5.356   9.716  0.0285 -0.4031  0.0366
 2821SOL     OW12250   9.254   8.654   8.196  0.5125  0.0223  0.5250
 2821SOL    HW112251   9.227   8.743   8.220 -0.1109 -0.0520  0.1127
 2821SOL    HW212252   9.186   8.624   8.135  1.3359 -0.3102 -0.2394
 2822SOL     OW12253   4.756   4.184   4.842 -0.1418  0.0530 -0.3624
 2822SOL    HW112254   4.671   4.159   4.804 -0.2253 -0.3792  0.0996
 2822SOL    HW212255   4.773   4.271   4.807 -0.6063 -0.0059 -0.7495
 2823SOL     OW12256   3.280   4.311   6.122  0.6036 -0.0127  0.1521
 2823SOL    HW112257   3.255   4.396   6.087  0.9885 -0.6107 -1.7181
 2823SOL    HW212258   3.240   4.308   6.209 -0.7482  1.4380 -0.3602
 2824SOL     OW12259   1.190   5.463   6.556 -0.3371 -0.2249  0.2040
 2824SOL    HW112260   1.224   5.502   6.475 -0.4469 -0.6913 -0.0671
 2824SOL    HW212261   1.132   5.530   6.591  0.6501  0.4830  0.5432
 2825SOL     OW12262   6.823   6.927   4.957  0.2765  0.0438  0.2364
 2825SOL    HW112263   6.875   6.868   5.013 -0.4490 -0.9926 -0.1486
 2825SOL    HW212264   6.874   7.008   4.955  0.6829 -0.1264  1.8082
 2826SOL     OW12265   4.559   4.461   9.288  0.3368 -0.6792  0.1333
 2826SOL    HW112266   4.584   4.552   9.272 -0.3604 -0.2872  1.1470
 2826SOL    HW212267   4.519   4.462   9.376  0.4380 -1.9822  0.2203
 2827SOL     OW12268   9.347  10.070   8.228  0.3491  0.1723  0.4566
 2827SOL    HW112269   9.338  10.161   8.255 -0.5474  0.2622 -0.1196
 2827SOL    HW212270   9.394  10.075   8.145 -1.9854  0.3353 -0.9361
 2828SOL     OW12271   8.589   2.900   6.521  1.5965 -0.6916 -0.3072
 2828SOL    HW112272   8.521   2.962   6.547  0.3890 -1.1911 -2.0181
 2828SOL    HW212273   8.668   2.928   6.567  0.4951  0.5751  0.8926
 2829SOL     OW12274  10.012   5.527   9.537  0.3213  0.4654 -0.0033
 2829SOL    HW112275   9.924   5.536   9.572 -0.0090  0.8779 -0.9032
 2829SOL    HW212276  10.060   5.602   9.572  0.9662 -0.9395  2.2938
 2830SOL     OW12277  10.362   0.276   8.742  0.0138 -0.2512 -0.6300
 2830SOL    HW112278  10.437   0.333   8.757 -0.5301  0.0261  1.3396
 2830SOL    HW212279  10.303   0.295   8.815 -1.6922 -0.9289 -1.7699
 2831SOL     OW12280   7.835   6.517   7.250  0.6484  0.5802 -0.0016
 2831SOL    HW112281   7.896   6.568   7.197 -1.0021  2.3700 -0.2713
 2831SOL    HW212282   7.793   6.581   7.307 -0.8201 -0.6190  0.3218
 2832SOL     OW12283   3.394   4.099   7.858  0.1768  0.1464 -0.4907
 2832SOL    HW112284   3.403   4.161   7.930  0.8545  0.7065 -1.0458
 2832SOL    HW212285   3.484   4.085   7.826  0.3051 -2.4459  0.7135
 2833SOL     OW12286   6.832   4.284   4.739  0.2038 -0.4560 -0.1830
 2833SOL    HW112287   6.809   4.232   4.816 -0.0558  0.5211  0.4102
 2833SOL    HW212288   6.830   4.221   4.667  0.8977 -1.4927  0.6600
 2834SOL     OW12289   8.353   6.902   3.695  0.2282 -0.5537 -0.0416
 2834SOL    HW112290   8.304   6.890   3.776  1.2665  0.2276  0.7288
 2834SOL    HW212291   8.286   6.913   3.628 -0.6884  1.0553  1.0681
 2835SOL     OW12292   8.499   5.128   6.754 -0.2229  0.0485 -0.5257
 2835SOL    HW112293   8.484   5.182   6.677 -0.6637  0.7271  0.0259
 2835SOL    HW212294   8.413   5.120   6.795  0.5598  2.8889  1.9767
 2836SOL     OW12295   7.091   1.143   4.629 -0.1665  0.1047  0.0259
 2836SOL    HW112296   7.119   1.129   4.538 -0.7479  0.7928 -0.2611
 2836SOL    HW212297   7.139   1.076   4.679 -0.2768 -0.6599 -0.8599
 2837SOL     OW12298   0.301   5.533   6.513  0.4801  0.2184  0.1276
 2837SOL    HW112299   0.237   5.471   6.548 -0.3693 -0.6878 -2.7578
 2837SOL    HW212300   0.256   5.617   6.512 -0.8856 -0.4609 -2.1154
 2838SOL     OW12301   7.494   7.546   9.950 -0.1349 -0.2109  0.1313
 2838SOL    HW112302   7.510   7.577  10.040 -1.1218 -0.6461  0.4722
 2838SOL    HW212303   7.566   7.485   9.933 -0.5718 -1.0232  1.0816
 2839SOL     OW12304   4.489   8.702   2.231 -0.2759  0.6082  0.4614
 2839SOL    HW112305   4.574   8.721   2.272  0.2311 -0.7670  0.1042
 2839SOL    HW212306   4.445   8.787   2.227  1.3143  1.4542  0.1413
 2840SOL     OW12307   1.111   1.339   1.078  0.4102 -0.1595  0.4129
 2840SOL    HW112308   1.145   1.395   1.008 -0.3783 -0.7959 -0.5110
 2840SOL    HW212309   1.162   1.258   1.070  0.8942  0.0657  1.1301
 2841SOL     OW12310   8.870   6.211   0.454  0.0671 -0.2507  0.0302
 2841SOL    HW112311   8.928   6.264   0.508 -0.7400  0.4968  0.1983
 2841SOL    HW212312   8.782   6.244   0.474 -0.3383 -0.7176 -0.9099
 2842SOL     OW12313   9.813   6.640   1.850  0.1750 -0.2444 -0.9118
 2842SOL    HW112314   9.901   6.677   1.841 -0.5030  1.4748 -0.8268
 2842SOL    HW212315   9.828   6.551   1.880  1.8955  0.1217 -0.5669
 2843SOL     OW12316   8.983   3.815   6.838  0.3482 -0.2458  0.1955
 2843SOL    HW112317   8.947   3.728   6.819 -0.9967  0.1562  0.7767
 2843SOL    HW212318   8.954   3.833   6.927 -0.7029  1.4298 -0.4502
 2844SOL     OW12319   1.554   4.235   9.498 -0.4542  0.4077  0.1518
 2844SOL    HW112320   1.590   4.280   9.421 -0.3966  0.2952  0.1138
 2844SOL    HW212321   1.471   4.199   9.467 -0.0598 -0.3219 -0.0832
 2845SOL     OW12322   7.887   0.218   3.484 -0.1717 -0.0003  0.5300
 2845SOL    HW112323   7.940   0.149   3.524 -1.9048 -1.8913 -0.2446
 2845SOL    HW212324   7.917   0.222   3.393 -2.4841 -2.4658 -0.4654
 2846SOL     OW12325   8.203   3.427   5.277 -0.9132 -0.1718 -0.0908
 2846SOL    HW112326   8.237   3.498   5.224 -2.7841  1.5124  0.8238
 2846SOL    HW212327   8.241   3.347   5.240  1.8658  1.3268 -0.6752
 2847SOL     OW12328   7.052   3.399   5.109 -0.3706 -0.6136  0.2104
 2847SOL    HW112329   7.064   3.393   5.204 -2.2033 -0.8792  0.4501
 2847SOL    HW212330   6.975   3.454   5.097 -0.1530 -0.5530 -1.1403
 2848SOL     OW12331   5.936   2.606   3.061  0.1513  0.5917  0.6195
 2848SOL    HW112332   5.984   2.657   2.995  1.4353 -1.1858  0.0944
 2848SOL    HW212333   5.875   2.552   3.010  0.7438 -0.3669  0.8954
 2849SOL     OW12334   7.898   5.612   7.479  0.8262 -0.2353 -0.8062
 2849SOL    HW112335   7.916   5.563   7.560  0.3227 -0.4934 -0.8441
 2849SOL    HW212336   7.924   5.552   7.409 -1.8306 -1.4040 -0.9299
 2850SOL     OW12337   4.023   2.723   1.395 -0.3896 -0.5736 -0.0906
 2850SOL    HW112338   4.088   2.658   1.422  1.6981  2.2126  2.1417
 2850SOL    HW212339   3.952   2.712   1.459  1.0132  0.7583  1.8031
 2851SOL     OW12340   2.598   5.523   5.903 -0.2389  0.4788  0.6042
 2851SOL    HW112341   2.649   5.603   5.916  0.6869 -0.0812  0.5117
 2851SOL    HW212342   2.639   5.481   5.827 -1.0130  0.1489  0.3684
 2852SOL     OW12343   9.096   4.044   1.270 -0.7543  0.4343  0.0496
 2852SOL    HW112344   9.159   3.997   1.325  0.8874 -0.5308 -2.4733
 2852SOL    HW212345   9.031   4.078   1.331  0.0231 -1.9839  2.3952
 2853SOL     OW12346   0.465   5.715   1.621  0.3095 -0.4662  0.0666
 2853SOL    HW112347   0.374   5.740   1.639  0.8480  1.6225  0.1366
 2853SOL    HW212348   0.464   5.620   1.624 -1.5344 -0.4715  1.8496
 2854SOL     OW12349   3.302   1.648   9.857 -0.1444  0.2594  0.2073
 2854SOL    HW112350   3.314   1.625   9.949  0.2587  1.0863  0.3653
 2854SOL    HW212351   3.214   1.685   9.852  0.6866  2.4649  0.7447
 2855SOL     OW12352  10.196   3.743   4.103  0.2307 -0.3623 -0.1669
 2855SOL    HW112353  10.267   3.807   4.115  0.7049 -0.9801  0.3959
 2855SOL    HW212354  10.222   3.693   4.025 -0.1065  0.0765 -0.5665
 2856SOL     OW12355   8.871   4.758   3.910 -0.5416  0.0153  0.1542
 2856SOL    HW112356   8.917   4.798   3.984  0.9695  1.0220 -1.2585
 2856SOL    HW212357   8.938   4.751   3.842 -1.0159 -3.8888 -0.1385
 2857SOL     OW12358  10.238   0.705   9.124 -0.6498  0.0354  0.0842
 2857SOL    HW112359  10.161   0.648   9.126 -0.9143  0.3942  0.3193
 2857SOL    HW212360  10.245   0.733   9.033 -1.3310  0.7066  0.2266
 2858SOL     OW12361   1.058   2.574   1.225  0.1319 -0.2204 -0.0283
 2858SOL    HW112362   1.083   2.642   1.288  0.0350  0.0004 -0.2274
 2858SOL    HW212363   1.012   2.621   1.156 -1.5157 -0.7083  0.6918
 2859SOL     OW12364   4.721   0.017   4.615  0.6135  0.4593 -0.4239
 2859SOL    HW112365   4.807  -0.018   4.639  2.1688  1.5076 -3.8572
 2859SOL    HW212366   4.708  -0.011   4.524 -0.9236  3.4136 -1.2440
 2860SOL     OW12367  10.208  10.039   6.218  0.8290 -0.2816 -0.1194
 2860SOL    HW112368  10.269   9.983   6.266  0.3324 -1.9865 -1.3973
 2860SOL    HW212369  10.186  10.109   6.280  1.4029 -1.5378  1.5643
 2861SOL     OW12370   9.268   9.956   3.371 -0.3902 -0.0461 -0.1280
 2861SOL    HW112371   9.207   9.895   3.330 -0.4688  0.3245 -0.5644
 2861SOL    HW212372   9.224   9.985   3.450 -0.8195  0.2839 -0.4828
 2862SOL     OW12373   4.137   4.924   5.520  0.1177  0.4439  0.1474
 2862SOL    HW112374   4.202   4.926   5.449 -1.5918  2.1606 -1.4945
 2862SOL    HW212375   4.084   5.002   5.506 -1.5318 -0.2249  2.1807
 2863SOL     OW12376   3.492   2.106   7.368  0.1380 -0.8204 -0.1088
 2863SOL    HW112377   3.573   2.154   7.350 -0.7038  1.0804  0.9547
 2863SOL    HW212378   3.519   2.036   7.427  0.5516  2.0436  3.4049
 2864SOL     OW12379   4.277   7.772   0.308 -0.2116 -0.0535  0.0625
 2864SOL    HW112380   4.372   7.771   0.301 -0.0955 -2.4189  1.0603
 2864SOL    HW212381   4.260   7.771   0.402 -1.2213 -0.3484 -0.1099
 2865SOL     OW12382   0.541   9.797   3.702  0.5330 -0.4998 -0.3738
 2865SOL    HW112383   0.487   9.847   3.641  0.9615 -1.0033 -1.1879
 2865SOL    HW212384   0.585   9.732   3.647  2.0146 -0.0621  0.2572
 2866SOL     OW12385   8.827   0.391   4.145  0.6131 -0.3360  0.2481
 2866SOL    HW112386   8.795   0.471   4.105 -1.6625 -0.7358  1.1261
 2866SOL    HW212387   8.861   0.339   4.072 -1.4686 -0.1564 -0.9049
 2867SOL     OW12388   7.864   8.721   4.057  0.2809  0.1775 -0.5428
 2867SOL    HW112389   7.771   8.718   4.080  0.2857 -0.5355 -0.6020
 2867SOL    HW212390   7.865   8.721   3.961  0.3678 -1.0136 -0.5496
 2868SOL     OW12391   8.269   8.759   5.525  0.5840 -0.3990  0.6150
 2868SOL    HW112392   8.328   8.834   5.519 -0.4782  0.4472  0.5677
 2868SOL    HW212393   8.292   8.705   5.449  2.7960 -1.2278  1.7888
 2869SOL     OW12394   7.913   1.358   9.695  0.1578 -0.6817 -0.2974
 2869SOL    HW112395   7.926   1.440   9.743  1.0945 -0.9678 -0.0345
 2869SOL    HW212396   7.840   1.376   9.636 -1.2259 -0.4159  1.4391
 2870SOL     OW12397   9.725   2.735   6.801 -0.6995  0.2400 -0.1959
 2870SOL    HW112398   9.777   2.735   6.882  1.3985 -1.6220 -1.4282
 2870SOL    HW212399   9.785   2.765   6.733 -1.3060 -1.5165 -1.6106
 2871SOL     OW12400   1.531  10.197   4.386  0.2680  0.3947  0.7013
 2871SOL    HW112401   1.604  10.181   4.446 -0.6525  0.9109  2.0144
 2871SOL    HW212402   1.552  10.279   4.342  0.5956  0.4185  0.9030
 2872SOL     OW12403   3.732   2.741   3.232 -0.0542 -0.2397  0.0562
 2872SOL    HW112404   3.684   2.697   3.162 -2.5682  0.9355  0.9204
 2872SOL    HW212405   3.791   2.802   3.187  0.2756 -1.3407 -1.0465
 2873SOL     OW12406   3.048   6.285   6.247  0.2613  0.5001  0.0604
 2873SOL    HW112407   2.975   6.240   6.206  0.8838 -0.6148  0.1242
 2873SOL    HW212408   3.022   6.296   6.338 -0.3580  1.2968 -0.2083
 2874SOL     OW12409   6.643   1.348   0.226  0.3075 -0.2386 -0.0340
 2874SOL    HW112410   6.646   1.298   0.307 -1.1179 -1.0392 -0.4429
 2874SOL    HW212411   6.687   1.430   0.247  0.9440 -0.8736  1.2164
 2875SOL     OW12412   7.005   0.133   8.467 -0.4111  0.5073  0.7317
 2875SOL    HW112413   7.022   0.039   8.476  0.7757  0.6082 -0.1579
 2875SOL    HW212414   6.930   0.149   8.524 -1.6023 -1.2530 -0.2270
 2876SOL     OW12415   6.445   5.275   7.393  0.6500 -0.2359  0.6302
 2876SOL    HW112416   6.382   5.203   7.394 -0.9453  0.8774 -2.7409
 2876SOL    HW212417   6.503   5.254   7.319  1.6955  0.7646  1.1400
 2877SOL     OW12418  10.106   7.381   8.583  0.0431  0.4568 -0.4862
 2877SOL    HW112419  10.188   7.429   8.578 -0.0832  0.6833 -0.4278
 2877SOL    HW212420  10.039   7.449   8.593 -0.3177  0.3868 -2.1391
 2878SOL     OW12421   2.152   2.001   6.293  0.1313  0.4029 -0.0052
 2878SOL    HW112422   2.205   2.081   6.291  0.5783  0.1512  1.2268
 2878SOL    HW212423   2.199   1.942   6.351 -1.8880  0.4877  1.8622
 2879SOL     OW12424   8.342   9.144   8.197  0.2737  0.0116  0.4189
 2879SOL    HW112425   8.415   9.083   8.191  2.4473  2.5570 -2.4645
 2879SOL    HW212426   8.268   9.097   8.158  1.6195 -1.1365 -0.8474
 2880SOL     OW12427   9.059   8.712   0.930 -0.1187 -0.1760  0.1036
 2880SOL    HW112428   9.150   8.734   0.908  0.5234 -1.7309  1.0343
 2880SOL    HW212429   9.022   8.678   0.848 -0.0711  1.0337 -0.4399
 2881SOL     OW12430   8.375   5.714   8.179 -0.2051  0.2510 -0.2275
 2881SOL    HW112431   8.412   5.801   8.196 -1.7630  1.1410 -1.2132
 2881SOL    HW212432   8.349   5.682   8.265  0.4253  0.7283  0.1533
 2882SOL     OW12433   9.829   8.052   3.910  0.3401 -0.0214 -0.3303
 2882SOL    HW112434   9.871   8.074   3.827 -0.2008  0.9710 -0.3461
 2882SOL    HW212435   9.759   7.992   3.886  0.7509 -0.4596 -0.4731
 2883SOL     OW12436   8.511   8.642   4.940 -0.1725  0.7134 -0.3281
 2883SOL    HW112437   8.554   8.675   4.861 -0.7815  0.7034 -0.6685
 2883SOL    HW212438   8.570   8.574   4.972  1.2060  2.2124  0.4979
 2884SOL     OW12439   9.417   2.701   2.663 -0.1046  0.4168  0.1597
 2884SOL    HW112440   9.327   2.721   2.687 -0.1863  2.0249 -1.2958
 2884SOL    HW212441   9.410   2.621   2.610 -0.7323  0.6968 -0.1990
 2885SOL     OW12442  10.124   0.096   1.845 -0.5773  0.2379  0.5341
 2885SOL    HW112443  10.172   0.178   1.859  0.0049  0.2800 -1.3977
 2885SOL    HW212444  10.186   0.028   1.870 -0.1451  0.3451 -0.2094
 2886SOL     OW12445   8.200   6.936   5.694 -0.4850  0.2366  0.2858
 2886SOL    HW112446   8.206   6.863   5.632  0.8941 -1.5710  2.4196
 2886SOL    HW212447   8.171   6.897   5.776 -0.0978  2.1590  1.4173
 2887SOL     OW12448   6.686   2.537   7.756  0.0726  0.3356 -0.3044
 2887SOL    HW112449   6.606   2.559   7.802  0.3834  1.1094 -0.1222
 2887SOL    HW212450   6.670   2.563   7.665 -0.4234 -0.9005 -0.5964
 2888SOL     OW12451   3.885   7.447   2.518  0.5030 -0.7460 -0.0421
 2888SOL    HW112452   3.813   7.397   2.556 -0.2120  0.5069  0.2785
 2888SOL    HW212453   3.960   7.426   2.573  0.3883 -1.9951 -0.3276
 2889SOL     OW12454   4.073   1.205   0.998 -0.5664  0.0890 -0.2322
 2889SOL    HW112455   4.163   1.209   0.964 -0.1074  0.3269  0.9599
 2889SOL    HW212456   4.082   1.224   1.091 -1.6389 -1.6055  0.2652
 2890SOL     OW12457   0.885   1.703   0.007 -0.0901 -0.1968  0.1337
 2890SOL    HW112458   0.814   1.703  -0.058 -0.9631  0.0249  1.0700
 2890SOL    HW212459   0.964   1.714  -0.045 -0.6728 -1.1356 -1.0084
 2891SOL     OW12460   3.380   5.912   0.760  0.4858  0.7697 -0.1476
 2891SOL    HW112461   3.363   5.887   0.670 -0.0904 -0.6111  0.3201
 2891SOL    HW212462   3.362   5.833   0.811  1.5973  1.2765  1.1025
 2892SOL     OW12463   3.953   5.720   1.296  0.2625 -0.1455  0.3704
 2892SOL    HW112464   3.976   5.725   1.389 -3.8080 -1.5642  1.6583
 2892SOL    HW212465   3.994   5.639   1.266  2.6180  0.9191  0.4771
 2893SOL     OW12466   7.496   5.951   4.941  0.2840 -0.2029  0.3742
 2893SOL    HW112467   7.576   5.920   4.982  1.2075 -0.1423 -1.2919
 2893SOL    HW212468   7.525   6.001   4.865 -1.3223  0.3780  0.0843
 2894SOL     OW12469   0.808   1.301   0.004 -0.0906  0.3686  0.0001
 2894SOL    HW112470   0.822   1.312  -0.090  0.4344  0.9708  0.1408
 2894SOL    HW212471   0.745   1.369   0.026 -1.3258 -0.6802 -0.1593
 2895SOL     OW12472  10.221   6.988  10.182 -0.3978  1.3669 -0.1138
 2895SOL    HW112473  10.248   7.074  10.214  0.5499  1.2131 -0.4653
 2895SOL    HW212474  10.135   6.973  10.222 -1.9832  3.7411 -2.3223
 2896SOL     OW12475   8.900   3.977   6.624 -0.0266 -0.3553  0.0346
 2896SOL    HW112476   8.862   3.924   6.554 -0.0368 -0.5612  0.1947
 2896SOL    HW212477   8.969   3.922   6.661 -0.1608 -0.3301  0.3230
 2897SOL     OW12478   7.699   8.293   4.781  0.0213  0.0206  0.3590
 2897SOL    HW112479   7.638   8.248   4.722 -0.8509 -1.1074  2.0264
 2897SOL    HW212480   7.662   8.280   4.868  1.5759  1.1118  1.2371
 2898SOL     OW12481   2.187   4.560   7.179  0.5262 -0.7638 -0.3851
 2898SOL    HW112482   2.254   4.540   7.244  0.4632  1.2062  0.3587
 2898SOL    HW212483   2.111   4.509   7.207  1.2431 -1.8316 -0.3498
 2899SOL     OW12484   7.705   5.618   3.739 -0.5976  0.0051  0.1737
 2899SOL    HW112485   7.682   5.578   3.655  0.5720 -0.3224 -0.0048
 2899SOL    HW212486   7.645   5.578   3.802 -1.3287  0.0802 -0.4577
 2900SOL     OW12487   3.243   2.920   2.200 -0.3796 -0.1698 -0.3636
 2900SOL    HW112488   3.278   2.833   2.178 -0.6281 -0.2307 -0.5218
 2900SOL    HW212489   3.293   2.946   2.278  0.0850 -0.2104 -0.6421
 2901SOL     OW12490   0.537   5.253   6.783 -0.1933 -0.0829 -0.3132
 2901SOL    HW112491   0.554   5.249   6.689  0.7220 -0.3837 -0.1407
 2901SOL    HW212492   0.442   5.248   6.790 -0.2399 -0.6295 -1.1973
 2902SOL     OW12493   7.151   9.899   6.126  0.5148  0.0335 -0.2371
 2902SOL    HW112494   7.111   9.827   6.078 -0.1569  1.2218 -1.5256
 2902SOL    HW212495   7.138   9.976   6.070 -0.5002  1.5389  1.9215
 2903SOL     OW12496   3.200   1.984   4.076  0.0557 -0.4532 -0.4848
 2903SOL    HW112497   3.263   1.984   4.003  0.7676  0.9141  0.1049
 2903SOL    HW212498   3.243   1.932   4.144  0.9814  1.1971  0.2414
 2904SOL     OW12499   6.522   4.993   2.387  0.3229  0.9206 -0.3891
 2904SOL    HW112500   6.468   5.073   2.380 -0.3951  0.3807 -1.4029
 2904SOL    HW212501   6.593   5.017   2.445 -0.5625  1.9263  0.3218
 2905SOL     OW12502   1.662   3.088   7.412 -0.0683  0.3896  0.1574
 2905SOL    HW112503   1.633   3.124   7.496 -0.3901 -0.8085  0.5946
 2905SOL    HW212504   1.667   2.993   7.428  3.5125  0.4028 -0.0444
 2906SOL     OW12505   8.334   7.079   4.596  0.4553 -0.7162  0.0797
 2906SOL    HW112506   8.369   7.135   4.527  1.4204 -1.9815 -0.5185
 2906SOL    HW212507   8.311   6.997   4.551 -1.3814 -0.6729  0.8216
 2907SOL     OW12508  10.146   1.304   5.356 -0.1613 -0.2702  0.1425
 2907SOL    HW112509  10.234   1.339   5.339  0.6029 -1.0932  2.0963
 2907SOL    HW212510  10.097   1.378   5.391 -0.5089  0.3752 -1.6079
 2908SOL     OW12511   0.255   7.847   1.565  0.0774 -0.5696 -0.0553
 2908SOL    HW112512   0.249   7.852   1.660 -0.9083 -0.0202 -0.1433
 2908SOL    HW212513   0.216   7.762   1.542 -0.7245 -0.2062 -0.0527
 2909SOL     OW12514   4.741   3.253   9.399 -0.0942 -0.6741  0.4423
 2909SOL    HW112515   4.817   3.270   9.343  0.1751 -1.6729  0.4721
 2909SOL    HW212516   4.771   3.185   9.460 -0.6497 -0.2196  1.2365
 2910SOL     OW12517   0.728   4.201   1.152  0.2073 -0.1837 -0.6534
 2910SOL    HW112518   0.701   4.212   1.061 -0.2631  0.3142 -0.4638
 2910SOL    HW212519   0.818   4.235   1.155 -0.5284  1.9237 -0.5066
 2911SOL     OW12520   0.462   0.410   4.192 -0.4129  0.2204  0.1202
 2911SOL    HW112521   0.449   0.503   4.176  0.7988  0.2053 -1.1861
 2911SOL    HW212522   0.464   0.371   4.104  0.6301 -0.8076  0.5765
 2912SOL     OW12523   3.181   5.990   2.957 -0.4181  0.1365 -0.1802
 2912SOL    HW112524   3.128   6.042   2.897 -1.4236  1.0131  1.4127
 2912SOL    HW212525   3.252   6.049   2.984  0.1767 -0.3367 -0.6810
 2913SOL     OW12526   5.417   4.904   9.946  0.0606  0.3039  0.1686
 2913SOL    HW112527   5.391   4.978  10.001 -1.1637 -0.4822  0.7086
 2913SOL    HW212528   5.404   4.934   9.857 -1.7063  0.3416  0.3988
 2914SOL     OW12529   2.998   3.389   2.014 -0.1938 -0.1369 -0.5067
 2914SOL    HW112530   3.056   3.429   1.948  1.7514 -0.8870  0.6556
 2914SOL    HW212531   3.021   3.297   2.014  0.2801 -0.0667  1.5939
 2915SOL     OW12532   8.210   4.787   8.929 -0.3733 -0.2041 -0.2152
 2915SOL    HW112533   8.297   4.749   8.912  0.3911  1.0058  0.7861
 2915SOL    HW212534   8.170   4.728   8.993  0.2766 -0.0326  0.3585
 2916SOL     OW12535   1.050   6.991   9.069 -0.2051  0.4172  0.1644
 2916SOL    HW112536   1.041   6.981   9.164 -0.4364 -1.1401 -0.0007
 2916SOL    HW212537   0.973   7.042   9.043 -0.6147  0.0834  0.7021
 2917SOL     OW12538   6.581   5.672   6.249 -0.1187 -0.1739  0.6095
 2917SOL    HW112539   6.552   5.589   6.211  0.0037  0.4256 -0.8539
 2917SOL    HW212540   6.574   5.735   6.177  3.3454  0.3294  0.5556
 2918SOL     OW12541   0.343   8.528   6.070  0.4124 -0.0523  0.2073
 2918SOL    HW112542   0.255   8.541   6.036  0.2196  1.3951  1.1744
 2918SOL    HW212543   0.398   8.586   6.017  0.9121 -1.3838 -0.7854
 2919SOL     OW12544   3.368   2.361   7.061 -0.0774  0.6800  0.2455
 2919SOL    HW112545   3.452   2.399   7.089  0.7798 -0.4652 -0.6739
 2919SOL    HW212546   3.344   2.303   7.134  0.7425 -0.1754 -0.1365
 2920SOL     OW12547   4.824   0.618   3.711  0.2185 -0.5063 -0.1438
 2920SOL    HW112548   4.870   0.614   3.795  0.4865 -1.6070 -0.3212
 2920SOL    HW212549   4.802   0.527   3.692 -0.1910 -0.2228 -1.0774
 2921SOL     OW12550   1.596   0.574   0.439 -0.0893  0.4387  0.8233
 2921SOL    HW112551   1.518   0.578   0.495 -0.2675 -0.3223  0.6518
 2921SOL    HW212552   1.565   0.603   0.354 -0.2513 -0.0652  0.7022
 2922SOL     OW12553   7.796   5.348   8.733 -0.1066 -0.0233 -0.0635
 2922SOL    HW112554   7.762   5.272   8.779 -2.5949 -0.3123 -2.1510
 2922SOL    HW212555   7.747   5.422   8.769  0.1685  0.1740 -0.0882
 2923SOL     OW12556   8.221   5.787   4.511 -0.0857  0.0289 -0.5245
 2923SOL    HW112557   8.308   5.756   4.535 -0.3927 -0.9901 -0.6826
 2923SOL    HW212558   8.233   5.826   4.424  0.3801  0.7595 -0.1539
 2924SOL     OW12559   3.020   4.807   5.201  0.0090 -0.4019 -0.1143
 2924SOL    HW112560   2.959   4.773   5.267 -1.8586  1.6340 -0.6339
 2924SOL    HW212561   2.964   4.828   5.126  0.8196  3.7940  0.2182
 2925SOL     OW12562   4.627   0.230   2.170 -0.1610 -0.3472  0.0215
 2925SOL    HW112563   4.596   0.159   2.225 -0.6140  0.1416  0.4138
 2925SOL    HW212564   4.722   0.227   2.177 -0.2244  0.7255  2.1920
 2926SOL     OW12565   2.670   4.113   1.759  0.9483 -0.1205 -0.2418
 2926SOL    HW112566   2.591   4.165   1.746 -0.0472 -1.6760 -0.6148
 2926SOL    HW212567   2.719   4.161   1.827  0.3432  1.5496 -0.9256
 2927SOL     OW12568   0.100  10.251   2.119  0.1194  0.2875  0.7075
 2927SOL    HW112569   0.063  10.339   2.113  0.6167  0.4250 -1.3926
 2927SOL    HW212570   0.085  10.224   2.209 -1.7363  1.7698  0.9036
 2928SOL     OW12571   1.587   4.105   0.819  0.0457  0.3160  0.2693
 2928SOL    HW112572   1.680   4.124   0.806  0.4566 -1.3078  0.5809
 2928SOL    HW212573   1.541   4.167   0.763  1.4268 -0.6091 -2.0361
 2929SOL     OW12574   3.968   9.866   9.328 -0.1798 -0.0522 -0.5151
 2929SOL    HW112575   4.035   9.875   9.395 -0.3710 -1.1567 -0.1606
 2929SOL    HW212576   3.943   9.956   9.307 -0.7327  0.3104  1.5039
 2930SOL     OW12577   4.367   9.413   0.177 -0.0462 -0.1494  0.5552
 2930SOL    HW112578   4.431   9.343   0.167 -0.5608 -0.5197 -0.3032
 2930SOL    HW212579   4.417   9.487   0.212  0.7560 -0.5654  0.3067
 2931SOL     OW12580   9.827   8.505   7.687  0.0180 -0.3162  0.2190
 2931SOL    HW112581   9.816   8.452   7.609  0.4792  0.5437 -0.4396
 2931SOL    HW212582   9.801   8.447   7.759 -2.1393 -0.5846 -0.6849
 2932SOL     OW12583   5.517   9.818   3.630  0.0568  0.0442 -0.2878
 2932SOL    HW112584   5.476   9.896   3.666 -0.7303 -0.8151  0.7759
 2932SOL    HW212585   5.599   9.809   3.679 -0.6270 -0.6723  0.7628
 2933SOL     OW12586   9.085   6.326   0.626  0.1574  0.0024 -0.1365
 2933SOL    HW112587   9.169   6.370   0.628  0.8669 -1.2672 -0.5271
 2933SOL    HW212588   9.103   6.237   0.657 -1.6781  0.6037  3.1637
 2934SOL     OW12589   2.682   4.021   6.418 -0.3855  0.0876 -0.1640
 2934SOL    HW112590   2.679   3.941   6.365  1.2254 -0.3224  0.2995
 2934SOL    HW212591   2.651   3.994   6.504 -0.1469  0.0355 -0.0937
 2935SOL     OW12592   7.223   5.912   9.734 -0.2759 -0.0529 -0.5635
 2935SOL    HW112593   7.315   5.925   9.711 -0.8969  1.2610 -2.5837
 2935SOL    HW212594   7.193   5.845   9.672 -1.0735  0.7858 -1.1112
 2936SOL     OW12595   7.855   1.544   2.298 -0.7572  0.0966 -0.0112
 2936SOL    HW112596   7.871   1.450   2.283 -0.7391 -0.1618  1.4763
 2936SOL    HW212597   7.779   1.564   2.244 -0.3878 -0.6191 -0.8359
 2937SOL     OW12598   1.186   1.771   8.288 -0.0757 -0.2250  0.3835
 2937SOL    HW112599   1.129   1.774   8.211  1.3935  0.0113 -0.7640
 2937SOL    HW212600   1.148   1.704   8.344 -1.3703 -0.1841 -0.3997
 2938SOL     OW12601  10.006   0.823   4.784  0.2454 -0.8113  0.0415
 2938SOL    HW112602   9.951   0.777   4.846  0.4868 -0.5899  0.4211
 2938SOL    HW212603  10.025   0.907   4.825  1.0795 -0.9854  0.0318
 2939SOL     OW12604   9.113   6.736   4.446  0.0504 -0.5462 -0.0158
 2939SOL    HW112605   9.036   6.768   4.399  0.8710 -1.1287 -1.8730
 2939SOL    HW212606   9.157   6.815   4.477 -0.6758 -0.1601  0.0604
 2940SOL     OW12607   1.183   0.985   4.626 -0.1944  0.0830 -0.0579
 2940SOL    HW112608   1.238   0.913   4.594 -1.0823  0.1503 -1.8517
 2940SOL    HW212609   1.134   0.947   4.699 -0.4118 -1.0562 -0.7657
 2941SOL     OW12610   9.234   2.032   8.223 -0.0812 -0.1717  0.4000
 2941SOL    HW112611   9.279   2.000   8.301  0.7032  2.0944  0.9366
 2941SOL    HW212612   9.298   2.025   8.153  0.1150  0.2700  0.5330
 2942SOL     OW12613   6.842   8.724   4.204  0.0401 -0.0839 -0.1287
 2942SOL    HW112614   6.862   8.734   4.297 -0.4526  1.2848 -0.1515
 2942SOL    HW212615   6.903   8.782   4.159 -0.2071 -0.1815 -0.6019
 2943SOL     OW12616   2.125   3.917   5.653 -0.2055 -0.4970 -0.3447
 2943SOL    HW112617   2.067   3.974   5.703 -1.0049 -1.0061 -0.6696
 2943SOL    HW212618   2.128   3.955   5.566  0.1727 -0.3189 -0.2556
 2944SOL     OW12619   3.357   7.620   3.131 -0.4217  0.6265  0.2393
 2944SOL    HW112620   3.343   7.641   3.224  2.1788 -1.1274  1.1471
 2944SOL    HW212621   3.392   7.701   3.093  2.3462  0.2915  1.8417
 2945SOL     OW12622   6.819   1.361   2.660  0.0592  0.2998  0.2624
 2945SOL    HW112623   6.726   1.348   2.645 -0.1505 -0.2207  1.8125
 2945SOL    HW212624   6.862   1.299   2.601 -0.5435  0.7587 -0.6801
 2946SOL     OW12625   9.376   6.016   6.819 -0.2612 -0.4479  0.7634
 2946SOL    HW112626   9.298   6.059   6.854 -1.1468 -1.3831 -0.0071
 2946SOL    HW212627   9.383   6.050   6.729  1.3806  1.1274  1.4241
 2947SOL     OW12628   3.776   2.976   5.426  0.0169 -0.0012  0.1083
 2947SOL    HW112629   3.716   2.965   5.352 -1.3796  2.2398  0.8028
 2947SOL    HW212630   3.725   2.948   5.502  0.4278  0.4135  0.5414
 2948SOL     OW12631   5.083   4.058   3.590 -0.0323 -0.0655  0.5155
 2948SOL    HW112632   5.020   4.123   3.559  0.8513  0.4361 -0.3034
 2948SOL    HW212633   5.041   4.017   3.665 -1.1547  0.5389  0.2359
 2949SOL     OW12634   6.065   2.150   0.128 -0.4510 -0.4875 -0.3793
 2949SOL    HW112635   5.975   2.119   0.129  0.1285 -2.4520  2.0928
 2949SOL    HW212636   6.070   2.209   0.204  0.6872 -1.7081  0.5353
 2950SOL     OW12637   1.783   0.982   7.393  0.7784 -0.4638  0.4782
 2950SOL    HW112638   1.727   1.039   7.341 -2.2784 -2.0661  1.7421
 2950SOL    HW212639   1.861   0.970   7.339 -0.8916  0.3573 -2.3600
 2951SOL     OW12640   4.319   4.059   7.093  0.2913 -0.7520 -0.0221
 2951SOL    HW112641   4.243   4.113   7.068  1.4589  0.6562 -0.6693
 2951SOL    HW212642   4.359   4.107   7.165  1.1429 -0.9439 -0.3620
 2952SOL     OW12643   7.509   5.321   5.361  0.4719 -0.5024  0.1545
 2952SOL    HW112644   7.575   5.388   5.345  0.3641 -0.8516 -2.0406
 2952SOL    HW212645   7.433   5.370   5.392  1.1111  0.1316  0.7600
 2953SOL     OW12646   5.470   8.590   5.354 -0.0528  0.2841 -0.2570
 2953SOL    HW112647   5.507   8.543   5.429  1.3117  0.2020 -0.9596
 2953SOL    HW212648   5.430   8.521   5.300  1.4570 -0.0564 -1.0047
 2954SOL     OW12649   2.149   4.779   8.974 -0.3336  0.2011 -0.1345
 2954SOL    HW112650   2.063   4.781   8.932 -0.3304 -0.6522 -0.1872
 2954SOL    HW212651   2.165   4.687   8.993  1.0476  0.1953 -1.1245
 2955SOL     OW12652   4.059   5.022   1.860 -0.4587 -0.0712  0.2278
 2955SOL    HW112653   4.059   5.106   1.906 -1.7191 -1.1826  2.4252
 2955SOL    HW212654   3.995   5.032   1.790  0.5864  1.2681 -0.5809
 2956SOL     OW12655   0.052   7.176  10.262 -0.4667 -1.0182  0.2689
 2956SOL    HW112656   0.063   7.253  10.205 -1.7255 -1.1777 -0.2183
 2956SOL    HW212657   0.043   7.213  10.350 -0.7884 -0.6204  0.0730
 2957SOL     OW12658   4.398   3.814   7.049  0.3169  0.9746  0.6194
 2957SOL    HW112659   4.352   3.897   7.062  0.4657  1.0681  0.5535
 2957SOL    HW212660   4.407   3.806   6.954 -0.3496  0.5232  0.5887
 2958SOL     OW12661   3.736   2.646   5.214 -0.0534  0.4661 -0.2553
 2958SOL    HW112662   3.811   2.622   5.269  0.2919  1.8326 -0.0869
 2958SOL    HW212663   3.776   2.688   5.137 -0.4307 -2.4646 -2.2452
 2959SOL     OW12664   3.101   6.790   6.951 -0.0009 -0.6157  0.0075
 2959SOL    HW112665   3.069   6.816   6.865  1.3541  0.7383 -0.1211
 2959SOL    HW212666   3.196   6.786   6.942  0.1124 -1.1439  1.2498
 2960SOL     OW12667   5.556   2.409   4.844 -0.7886  0.3315 -0.3070
 2960SOL    HW112668   5.638   2.362   4.859  0.3379  1.9158 -1.2506
 2960SOL    HW212669   5.559   2.482   4.906 -2.7473 -0.9778  1.4906
 2961SOL     OW12670   2.522  10.134   8.241 -0.1159 -0.0277 -0.2173
 2961SOL    HW112671   2.442  10.095   8.275  1.6844 -2.3492  1.7252
 2961SOL    HW212672   2.571  10.061   8.204  1.0416  1.3742 -1.5898
 2962SOL     OW12673   3.996   1.440   5.632 -0.0470 -0.3804 -0.3026
 2962SOL    HW112674   4.024   1.515   5.685  0.9599 -0.2817 -0.9386
 2962SOL    HW212675   4.069   1.377   5.640 -0.7770 -1.2028  0.0375
 2963SOL     OW12676   1.485   8.315   7.744  0.2005  0.3370 -0.6178
 2963SOL    HW112677   1.544   8.327   7.818 -1.4862 -0.2720  0.9011
 2963SOL    HW212678   1.482   8.401   7.702 -1.2530  1.6622  1.9705
 2964SOL     OW12679   7.001   9.947   2.864  0.0582  0.0469 -0.1950
 2964SOL    HW112680   6.978  10.012   2.798  2.7782  1.0740 -0.2775
 2964SOL    HW212681   7.093   9.927   2.846 -0.4629 -3.4082  0.2233
 2965SOL     OW12682   3.961   3.779   8.473 -0.1005 -0.5764  0.4138
 2965SOL    HW112683   3.887   3.826   8.511  1.2402  1.9128  0.1483
 2965SOL    HW212684   4.029   3.783   8.540  0.9053  0.2313 -0.6070
 2966SOL     OW12685   6.856   1.616   2.597  0.5352 -0.2507  0.1408
 2966SOL    HW112686   6.947   1.646   2.592  0.3424  0.2348 -0.5177
 2966SOL    HW212687   6.863   1.525   2.627  1.1682  0.1693  1.3714
 2967SOL     OW12688   1.245   5.139   4.634 -0.0925  0.3708 -0.2614
 2967SOL    HW112689   1.218   5.148   4.725  0.0949 -0.9001 -0.0619
 2967SOL    HW212690   1.199   5.061   4.602 -2.2068  2.2010 -2.0638
 2968SOL     OW12691   3.922   2.556   2.500 -0.0148 -0.2557 -0.0051
 2968SOL    HW112692   3.857   2.528   2.436 -1.1903  0.5088  0.8025
 2968SOL    HW212693   3.989   2.602   2.448 -0.0556 -1.1286 -0.8578
 2969SOL     OW12694   6.565   1.545   1.912  0.6958 -0.5657  0.6164
 2969SOL    HW112695   6.542   1.560   1.820  2.3305 -2.4618 -0.1854
 2969SOL    HW212696   6.651   1.586   1.922  0.5604 -0.4395  1.2746
 2970SOL     OW12697   5.528   6.473  10.181 -0.3028  0.0626 -0.0458
 2970SOL    HW112698   5.598   6.521  10.225 -0.7109 -0.1137  0.8324
 2970SOL    HW212699   5.573   6.415  10.120  0.3635 -0.4728  0.9285
 2971SOL     OW12700   0.561  10.013   2.380 -0.0650 -0.5354 -0.4120
 2971SOL    HW112701   0.618  10.088   2.398 -2.7107  1.5888 -0.2960
 2971SOL    HW212702   0.536  10.023   2.289 -0.0697 -1.6154 -0.5451
 2972SOL     OW12703   4.559  10.094   6.966 -0.4479  0.1769 -0.2585
 2972SOL    HW112704   4.649  10.067   6.952 -0.1946 -0.5477  2.2579
 2972SOL    HW212705   4.561  10.189   6.965  0.7273  0.2104  1.4926
 2973SOL     OW12706   1.360   5.507   7.614  0.3374  0.1358 -0.3039
 2973SOL    HW112707   1.442   5.518   7.663  0.8593  0.8491 -1.3050
 2973SOL    HW212708   1.388   5.484   7.525 -0.6162 -2.2428 -0.0521
 2974SOL     OW12709   7.648   1.568   2.134 -0.0538  0.3828  0.3395
 2974SOL    HW112710   7.608   1.654   2.122 -1.3480  0.0933  2.1945
 2974SOL    HW212711   7.594   1.509   2.082  0.3144  0.5429 -0.2381
 2975SOL     OW12712   9.928   1.411   3.335  0.2913  0.4786  0.0759
 2975SOL    HW112713  10.006   1.367   3.368  0.5519 -0.6035 -1.8107
 2975SOL    HW212714   9.877   1.433   3.413  1.1435 -1.3347  1.1936
 2976SOL     OW12715   0.121   2.694   6.084  0.4291 -0.2414 -0.2030
 2976SOL    HW112716   0.065   2.770   6.073  1.7372  1.1253  1.8781
 2976SOL    HW212717   0.211   2.729   6.082  1.1369 -1.9623 -0.7436
 2977SOL     OW12718   8.763   7.631   0.705 -0.7221  0.0869  0.3507
 2977SOL    HW112719   8.827   7.699   0.683 -1.5901  1.2755  1.3791
 2977SOL    HW212720   8.799   7.551   0.667  0.0306  1.2144 -1.4285
 2978SOL     OW12721   1.288   2.168   1.303  0.0809  0.3596  0.7815
 2978SOL    HW112722   1.286   2.149   1.396  0.0585  0.2987  0.7686
 2978SOL    HW212723   1.381   2.165   1.280  0.1480  0.9956  0.9293
 2979SOL     OW12724  10.288   4.577   7.682 -0.1792  0.2699 -0.1366
 2979SOL    HW112725  10.351   4.571   7.610 -1.4518  0.9750 -1.3744
 2979SOL    HW212726  10.209   4.537   7.647 -1.1351  1.5339  0.4957
 2980SOL     OW12727   8.673   6.490   0.845 -0.4496  0.0285 -0.0077
 2980SOL    HW112728   8.680   6.542   0.765 -0.4270  0.6037  0.3625
 2980SOL    HW212729   8.683   6.554   0.916 -0.8311 -0.4158  0.4548
 2981SOL     OW12730   7.008   0.000   1.346  0.3358  0.1246  0.3267
 2981SOL    HW112731   7.038  -0.012   1.436  1.4657 -1.0739 -0.1838
 2981SOL    HW212732   7.086   0.027   1.298 -0.3963  1.4082 -0.1955
 2982SOL     OW12733   6.707   1.891   8.683  0.4777 -0.6392 -0.4000
 2982SOL    HW112734   6.620   1.901   8.644  0.1873 -1.8029 -0.1090
 2982SOL    HW212735   6.741   1.809   8.645  1.4796 -0.1617 -0.5653
 2983SOL     OW12736   2.794   0.689   9.792  0.2147 -0.2397  0.4940
 2983SOL    HW112737   2.861   0.679   9.725 -0.0887 -0.1126  0.1728
 2983SOL    HW212738   2.822   0.766   9.842  0.6091 -0.5190  0.7145
 2984SOL     OW12739   7.076   5.050   8.369  0.0353 -0.8153 -0.0378
 2984SOL    HW112740   7.050   4.984   8.434  2.3679 -0.6593  1.1644
 2984SOL    HW212741   7.160   5.019   8.337  0.7009  1.0787 -0.1903
 2985SOL     OW12742   2.813   1.789   2.989 -0.3510  0.2674 -0.1347
 2985SOL    HW112743   2.754   1.720   3.017  0.5636 -0.7412 -0.6345
 2985SOL    HW212744   2.898   1.746   2.978  0.6098  1.7655  1.0055
 2986SOL     OW12745   9.114   4.028   0.694 -0.9115  0.3418  0.1255
 2986SOL    HW112746   9.056   3.982   0.634 -2.2736  0.1349  1.5239
 2986SOL    HW212747   9.136   3.962   0.760  0.6587  0.5257 -0.1817
 2987SOL     OW12748   6.223   8.274  10.203 -0.2408  0.5305 -0.4275
 2987SOL    HW112749   6.161   8.203  10.218  0.4757 -0.2695 -1.1932
 2987SOL    HW212750   6.170   8.341  10.158 -0.7228  0.1542 -0.4359
 2988SOL     OW12751  10.183   7.254   4.094  0.0753 -0.5394 -0.1311
 2988SOL    HW112752  10.206   7.234   4.184 -0.9554 -1.4679 -0.0500
 2988SOL    HW212753  10.089   7.271   4.096  0.6684  4.3051 -0.2353
 2989SOL     OW12754  10.287   0.537   4.657  0.1322  0.4604  0.0562
 2989SOL    HW112755  10.308   0.455   4.702 -1.6277  0.3471  0.7354
 2989SOL    HW212756  10.270   0.599   4.727 -5.1159 -0.3240 -0.1362
 2990SOL     OW12757   4.609   8.166   8.647 -0.3271 -0.0994  0.2514
 2990SOL    HW112758   4.700   8.197   8.647 -0.1181 -0.7124  0.2480
 2990SOL    HW212759   4.589   8.149   8.738 -0.1082 -0.9313  0.1453
 2991SOL     OW12760   2.617   0.771   8.347  0.2495 -0.1286 -0.8829
 2991SOL    HW112761   2.542   0.822   8.377 -0.0980 -2.1826  2.3041
 2991SOL    HW212762   2.686   0.793   8.410  1.2232 -0.8104 -1.6932
 2992SOL     OW12763   5.015   6.660   0.435 -0.3837  0.3528 -0.1424
 2992SOL    HW112764   5.093   6.690   0.388  0.2746 -1.2208 -0.1287
 2992SOL    HW212765   4.975   6.595   0.377 -0.1288 -0.8691  0.9768
 2993SOL     OW12766   4.438   5.453   8.766  0.0843 -0.7607  0.4286
 2993SOL    HW112767   4.386   5.494   8.697 -0.0182 -1.0224  0.3489
 2993SOL    HW212768   4.525   5.443   8.727  0.2794 -0.0697  0.6577
 2994SOL     OW12769   2.518   9.337   5.567  0.0612 -0.6029  0.5115
 2994SOL    HW112770   2.460   9.301   5.501 -0.2193  0.9669 -0.1534
 2994SOL    HW212771   2.467   9.333   5.648 -0.5546 -0.2791  0.1472
 2995SOL     OW12772   7.490   1.418   0.982  0.1639  0.1505 -0.6486
 2995SOL    HW112773   7.526   1.379   1.062  0.4931  1.1474 -0.2856
 2995SOL    HW212774   7.453   1.345   0.933  0.3560 -0.5343  0.2144
 2996SOL     OW12775   6.734   2.363   7.513 -0.0146 -0.3146  0.5496
 2996SOL    HW112776   6.678   2.350   7.436  1.6317  0.2886 -0.8134
 2996SOL    HW212777   6.801   2.425   7.484  0.0262  0.8192  2.8286
 2997SOL     OW12778   7.638   3.185   9.684 -0.1498  0.0583 -0.3493
 2997SOL    HW112779   7.615   3.126   9.756 -0.8655 -2.4558 -2.4847
 2997SOL    HW212780   7.723   3.221   9.710  0.5585 -2.2601  0.9254
 2998SOL     OW12781  10.049   6.101   1.438  0.6236  0.1222  0.7370
 2998SOL    HW112782  10.024   6.137   1.523 -0.4294 -2.1423  1.4692
 2998SOL    HW212783  10.104   6.025   1.458 -1.1392 -1.5890 -0.4361
 2999SOL     OW12784   0.961   0.972   0.322 -0.2521 -0.4277  0.2093
 2999SOL    HW112785   0.940   1.028   0.248  0.9326 -0.1606  0.0628
 2999SOL    HW212786   0.920   1.015   0.397 -1.8701 -0.9555 -0.3264
 3000SOL     OW12787   4.788   5.751   2.231 -0.5069 -0.8434 -0.2845
 3000SOL    HW112788   4.715   5.721   2.177 -1.6050  0.4677  0.4055
 3000SOL    HW212789   4.846   5.798   2.170 -0.8074 -0.9444 -0.6461
 3001SOL     OW12790   2.143   8.007   5.286 -0.3580  0.3638 -0.2037
 3001SOL    HW112791   2.064   8.036   5.241  1.0568  2.0468 -1.7360
 3001SOL    HW212792   2.145   7.912   5.273 -0.9808  0.5736 -2.0456
 3002SOL     OW12793   3.494   2.658   8.967  0.0318  0.3105 -0.2277
 3002SOL    HW112794   3.404   2.664   9.001  0.4766 -0.6100  1.1859
 3002SOL    HW212795   3.541   2.730   9.009  0.3037 -0.1221  0.2230
 3003SOL     OW12796   8.748   7.811   1.362  0.1210  0.3762  0.5788
 3003SOL    HW112797   8.796   7.887   1.331  0.7991  0.0118  0.7120
 3003SOL    HW212798   8.656   7.836   1.355  0.2318  0.3611 -1.6113
 3004SOL     OW12799   2.180   4.218   4.409 -0.0413  0.6880 -0.1239
 3004SOL    HW112800   2.162   4.306   4.443 -1.7021  1.4975 -2.7863
 3004SOL    HW212801   2.117   4.207   4.338  0.6125 -2.4117 -0.3566
 3005SOL     OW12802   0.211   6.785   4.167  0.4307 -0.3691 -0.3236
 3005SOL    HW112803   0.208   6.776   4.071 -1.4980 -0.0231 -0.3377
 3005SOL    HW212804   0.158   6.712   4.200 -0.0855  0.3243  0.4078
 3006SOL     OW12805   2.246   7.038   9.237 -0.2649  0.1756 -0.3290
 3006SOL    HW112806   2.330   7.048   9.190  1.5074 -0.1326  2.5439
 3006SOL    HW212807   2.202   7.122   9.225  2.3665  1.9611  1.4076
 3007SOL     OW12808   5.101   0.182   3.220  0.8260 -0.7999  0.2551
 3007SOL    HW112809   5.106   0.225   3.135 -1.6539 -1.1155 -0.1129
 3007SOL    HW212810   5.168   0.227   3.273  0.2086  1.6551 -0.8836
 3008SOL     OW12811   7.489   6.760   9.025  0.7234  0.0936 -0.0644
 3008SOL    HW112812   7.493   6.668   9.052  0.0143 -0.2602 -1.0731
 3008SOL    HW212813   7.556   6.767   8.956  0.4302  0.1953 -0.3423
 3009SOL     OW12814   1.683  10.112   6.165  0.7721 -0.0751 -0.1249
 3009SOL    HW112815   1.752  10.155   6.115  0.4408 -1.3841 -1.7929
 3009SOL    HW212816   1.682  10.022   6.132 -0.6560 -0.5155  1.0104
 3010SOL     OW12817   6.653   3.055   9.358  0.2026  0.5487  0.0140
 3010SOL    HW112818   6.602   3.024   9.283  1.3728  0.1114 -0.6288
 3010SOL    HW212819   6.737   3.009   9.351 -0.6754 -2.0012  3.3513
 3011SOL     OW12820   6.272   0.218   5.703 -0.5284 -0.7406  0.4155
 3011SOL    HW112821   6.221   0.284   5.750  0.1585 -0.0212  0.1805
 3011SOL    HW212822   6.331   0.269   5.648  0.0151 -1.5600  0.2265
 3012SOL     OW12823   0.381   2.578   5.541 -0.1334  0.3858  0.0390
 3012SOL    HW112824   0.352   2.487   5.553 -2.0328  0.9068 -0.2888
 3012SOL    HW212825   0.383   2.614   5.630  1.3841 -0.1393  0.2610
 3013SOL     OW12826   1.811   1.052   1.461  0.4180  0.0208 -0.5606
 3013SOL    HW112827   1.875   1.078   1.527 -0.6151 -2.0678  1.4353
 3013SOL    HW212828   1.738   1.112   1.473  1.6218  2.0031 -2.4173
 3014SOL     OW12829   2.218   5.110   5.585  0.7624 -0.1448  0.1562
 3014SOL    HW112830   2.284   5.177   5.572  0.8292  0.2099  2.0604
 3014SOL    HW212831   2.220   5.092   5.679 -1.4317 -0.5605  0.1691
 3015SOL     OW12832   5.733   0.652  10.299 -0.6241  0.7644 -0.5993
 3015SOL    HW112833   5.781   0.715  10.353  0.0735  1.4211 -1.9302
 3015SOL    HW212834   5.641   0.666  10.320 -0.4349  1.8728 -0.4956
 3016SOL     OW12835   0.178   7.819   8.914 -0.0212  0.2519  0.2660
 3016SOL    HW112836   0.105   7.792   8.859  0.2908 -1.7919  0.7613
 3016SOL    HW212837   0.256   7.794   8.864  0.2776 -0.2978  0.9827
 3017SOL     OW12838   1.811   2.824   7.474 -0.4102 -0.6242 -0.1190
 3017SOL    HW112839   1.812   2.794   7.383 -0.2196 -2.2540  0.3872
 3017SOL    HW212840   1.829   2.745   7.525  0.1044  0.3845  1.3080
 3018SOL     OW12841   6.242   1.633   9.540 -0.3306 -0.1779 -0.1294
 3018SOL    HW112842   6.207   1.635   9.629 -0.8808 -0.7801 -0.3210
 3018SOL    HW212843   6.264   1.724   9.520  1.9382 -0.2801  1.4458
 3019SOL     OW12844   1.965   0.057   3.089  0.2109  0.4556 -0.6281
 3019SOL    HW112845   2.017   0.010   3.024  1.3011  0.0784  0.4817
 3019SOL    HW212846   1.890   0.091   3.040  1.2618  0.6317 -2.1896
 3020SOL     OW12847   8.298   1.975   7.950  0.4568  0.1252 -0.3243
 3020SOL    HW112848   8.324   2.066   7.965  1.0643  0.3941 -2.5436
 3020SOL    HW212849   8.239   1.954   8.022  1.0375  1.9649  0.7523
 3021SOL     OW12850   7.500   8.214   7.808  0.0079  0.5105 -0.2265
 3021SOL    HW112851   7.461   8.175   7.886  0.7226 -1.8872 -0.9807
 3021SOL    HW212852   7.440   8.285   7.784 -1.6366 -0.4015  1.0052
 3022SOL     OW12853   8.212   0.629   6.110  0.4095  0.0006  0.2024
 3022SOL    HW112854   8.214   0.537   6.085  1.1354  0.6490 -2.3629
 3022SOL    HW212855   8.265   0.674   6.045  0.5773  2.1961  1.7174
 3023SOL     OW12856   9.393   3.763   8.129  0.3652 -0.5854 -0.5299
 3023SOL    HW112857   9.390   3.709   8.208  0.6066 -1.5278 -1.1559
 3023SOL    HW212858   9.474   3.813   8.137  0.0570 -0.1658  0.1323
 3024SOL     OW12859   1.090   9.079   0.125  0.2341 -0.1350 -0.0232
 3024SOL    HW112860   1.134   8.994   0.134 -0.9629 -0.6107  1.9453
 3024SOL    HW212861   1.129   9.134   0.193 -0.3102  0.3085 -0.0633
 3025SOL     OW12862   7.301   8.866   4.009 -0.0432 -0.2089 -0.3812
 3025SOL    HW112863   7.383   8.886   4.054 -1.7989  1.9819  2.1908
 3025SOL    HW212864   7.315   8.895   3.919  1.7022  1.0531  0.2481
 3026SOL     OW12865   6.179   4.772   8.556 -0.7321  0.3568  0.2500
 3026SOL    HW112866   6.180   4.736   8.467  1.2820  0.2723  0.2485
 3026SOL    HW212867   6.152   4.863   8.545  1.6143  1.0084 -0.8183
 3027SOL     OW12868   0.861   1.971   3.880  0.3139 -0.2772  0.2877
 3027SOL    HW112869   0.773   2.002   3.862  0.3782  2.1063  3.2122
 3027SOL    HW212870   0.849   1.884   3.917 -0.7201 -0.3710 -0.2449
 3028SOL     OW12871   5.595   3.926   0.871 -0.7127  0.0464 -0.0524
 3028SOL    HW112872   5.596   3.854   0.808 -1.2536  0.4082 -0.4880
 3028SOL    HW212873   5.666   3.905   0.932  0.2973  0.0426 -1.1777
 3029SOL     OW12874   5.439   6.472   1.337 -0.0920 -0.3945  0.2061
 3029SOL    HW112875   5.408   6.392   1.378  1.5178 -0.8974  0.5053
 3029SOL    HW212876   5.493   6.515   1.404 -0.3222  0.5758 -0.2020
 3030SOL     OW12877   1.552   2.037   3.207  0.1869  0.0455 -0.1051
 3030SOL    HW112878   1.541   1.970   3.139 -0.1049 -1.9956  1.8303
 3030SOL    HW212879   1.486   2.014   3.273  0.1976  2.1864  0.7114
 3031SOL     OW12880   7.704   0.748   9.832 -0.4583 -0.4176 -0.5196
 3031SOL    HW112881   7.755   0.806   9.776 -1.1594  0.3099 -0.4240
 3031SOL    HW212882   7.648   0.807   9.883  0.1807 -1.0452  0.9636
 3032SOL     OW12883   9.874   1.322   8.748  0.2221 -0.1167  0.3665
 3032SOL    HW112884   9.954   1.299   8.700 -0.0479 -0.9396  0.3011
 3032SOL    HW212885   9.853   1.243   8.798 -1.1331 -0.2625 -0.4009
 3033SOL     OW12886   3.431   4.858   0.865  0.2426  0.3883  0.1645
 3033SOL    HW112887   3.370   4.931   0.862  0.2495  0.3987  0.2906
 3033SOL    HW212888   3.400   4.803   0.937 -0.9742 -0.7826 -1.1624
 3034SOL     OW12889   0.157   1.532   8.199  0.2094 -0.3139  0.4891
 3034SOL    HW112890   0.085   1.583   8.235 -0.7916  0.1379 -1.9250
 3034SOL    HW212891   0.176   1.466   8.266 -0.7628  1.0962  2.2246
 3035SOL     OW12892   6.828   5.223   6.252  0.3387 -0.1208 -0.8066
 3035SOL    HW112893   6.828   5.315   6.225 -0.6717  0.4769  1.0721
 3035SOL    HW212894   6.917   5.193   6.234  0.4771  0.9785 -2.1800
 3036SOL     OW12895   8.121   0.165   2.274  0.4206  0.0582  0.1986
 3036SOL    HW112896   8.037   0.204   2.247  1.6682  2.2420 -0.7601
 3036SOL    HW212897   8.147   0.111   2.199 -0.3133 -0.9990  0.6834
 3037SOL     OW12898   4.779  10.076   8.143 -0.2621  0.3369 -0.4532
 3037SOL    HW112899   4.751  10.111   8.227  0.6103  0.3501 -0.1661
 3037SOL    HW212900   4.698  10.072   8.091 -0.8772 -0.0288  0.5006
 3038SOL     OW12901   4.045   7.192   9.233  0.6257  0.3634 -0.2641
 3038SOL    HW112902   4.063   7.124   9.299  0.9684 -1.0571 -1.7366
 3038SOL    HW212903   4.129   7.238   9.223  0.2407  1.4389  1.1576
 3039SOL     OW12904   6.049   2.266   7.863  0.1404 -0.1722  0.5193
 3039SOL    HW112905   6.069   2.246   7.955 -0.7875  0.4792  0.8746
 3039SOL    HW212906   5.955   2.251   7.855  0.3689 -1.2170 -0.6086
 3040SOL     OW12907   6.956   0.372   2.486  0.1520 -0.7284  0.0667
 3040SOL    HW112908   6.883   0.318   2.458 -0.8229 -0.4453  1.9221
 3040SOL    HW212909   6.955   0.367   2.581  1.7397  0.3609  0.1868
 3041SOL     OW12910  10.179   3.899   7.150 -0.0940  0.2859 -0.0004
 3041SOL    HW112911  10.260   3.932   7.112  1.3728  1.2979  3.6020
 3041SOL    HW212912  10.116   3.971   7.141 -0.2460 -0.0074 -1.5983
 3042SOL     OW12913   8.134   3.162   4.539  1.0972 -0.4516  0.2139
 3042SOL    HW112914   8.217   3.117   4.553  1.4600  0.0053 -0.4024
 3042SOL    HW212915   8.068   3.093   4.543  1.4615 -0.7620  1.0987
 3043SOL     OW12916   1.528   0.361   2.656 -0.0030 -0.3508  0.1995
 3043SOL    HW112917   1.524   0.348   2.751  1.2038 -0.1489  0.2892
 3043SOL    HW212918   1.453   0.416   2.636  0.0597  0.0795  1.1208
 3044SOL     OW12919   9.477   5.457   7.583 -0.5240 -0.0592 -0.1117
 3044SOL    HW112920   9.433   5.399   7.646  0.3569  0.1448  0.7176
 3044SOL    HW212921   9.432   5.440   7.500 -2.0734  0.0449  0.6564
 3045SOL     OW12922   1.542   7.921   3.459  0.1916 -0.3289 -0.3187
 3045SOL    HW112923   1.570   7.892   3.546  1.8488 -0.5258 -0.8740
 3045SOL    HW212924   1.462   7.871   3.441  0.4479 -1.1082  0.6470
 3046SOL     OW12925   6.069   8.697   7.686  1.2021 -0.2227  0.1784
 3046SOL    HW112926   6.024   8.730   7.608 -1.9416 -0.9302  1.5389
 3046SOL    HW212927   6.097   8.776   7.733 -0.0484  0.3267  0.0387
 3047SOL     OW12928   3.572   1.636  10.290  0.3304 -0.0812 -0.2860
 3047SOL    HW112929   3.553   1.635  10.196  1.1978  0.1450 -0.4765
 3047SOL    HW212930   3.506   1.693  10.328 -0.2063 -0.4105 -0.7147
 3048SOL     OW12931   5.071   7.930   9.099 -0.0515 -0.0900 -0.0242
 3048SOL    HW112932   5.088   7.854   9.043 -1.3522 -0.7230  0.4084
 3048SOL    HW212933   5.081   7.897   9.188 -1.7733 -0.0701  0.1983
 3049SOL     OW12934   7.568   0.608   9.006  0.6785  0.1358 -0.2042
 3049SOL    HW112935   7.624   0.533   8.988  1.4266  0.8526 -0.9872
 3049SOL    HW212936   7.545   0.643   8.920  0.0001  0.5611  0.1346
 3050SOL     OW12937   3.799   6.832  10.135  0.2169  0.3505  0.2913
 3050SOL    HW112938   3.706   6.851  10.147 -0.4113 -2.6747  1.2673
 3050SOL    HW212939   3.823   6.779  10.211  2.4296  0.0134 -0.5427
 3051SOL     OW12940   0.871   3.321   8.273  0.1048 -0.3102  1.2189
 3051SOL    HW112941   0.850   3.370   8.353 -2.1544  0.3835  0.2710
 3051SOL    HW212942   0.850   3.381   8.202 -0.4888 -1.8533  0.0565
 3052SOL     OW12943  10.287   0.810   9.474  0.5805  0.5165 -0.1084
 3052SOL    HW112944  10.352   0.808   9.404  0.5235  0.0406 -0.1461
 3052SOL    HW212945  10.303   0.894   9.518  0.8782  0.6368 -0.4380
 3053SOL     OW12946   2.899   6.360   3.449 -0.1658  0.0174  0.1213
 3053SOL    HW112947   2.808   6.343   3.474  0.0241 -0.5929  0.4153
 3053SOL    HW212948   2.951   6.322   3.520  0.3339 -0.1765 -0.3404
 3054SOL     OW12949   1.508   2.319   6.709 -0.1074  0.0818 -0.1565
 3054SOL    HW112950   1.567   2.369   6.765 -0.9891  1.4140 -0.3803
 3054SOL    HW212951   1.499   2.234   6.752  0.6339  0.4603  0.7604
 3055SOL     OW12952   7.923   5.838   5.728  0.5163  0.0800 -0.1510
 3055SOL    HW112953   7.907   5.744   5.721  1.2056 -0.0831  0.3453
 3055SOL    HW212954   7.937   5.854   5.821  1.2538  0.5269 -0.3227
 3056SOL     OW12955   1.341   1.778   5.504  0.3923 -0.0836 -0.2006
 3056SOL    HW112956   1.384   1.747   5.584  0.2325 -2.2176 -0.8634
 3056SOL    HW212957   1.398   1.748   5.433 -0.7494 -0.5146 -0.9721
 3057SOL     OW12958   7.298   9.880   4.646 -0.2884 -0.1923  0.2102
 3057SOL    HW112959   7.220   9.925   4.615 -1.8391 -1.4878  1.9768
 3057SOL    HW212960   7.352   9.868   4.568 -2.0294  0.3590 -1.1408
 3058SOL     OW12961   6.003   4.835   4.657 -0.0351 -0.6597  0.1680
 3058SOL    HW112962   6.098   4.834   4.649  0.1526  0.8187  1.5848
 3058SOL    HW212963   5.971   4.829   4.567  1.4572  0.6323 -0.5033
 3059SOL     OW12964   0.585   1.421   0.620  0.3858 -0.3460 -0.4651
 3059SOL    HW112965   0.558   1.405   0.530  0.3931  0.4404 -0.6143
 3059SOL    HW212966   0.681   1.412   0.619  0.6102  1.7277 -1.0029
 3060SOL     OW12967   2.307  10.031   8.852 -0.2145 -0.5727  0.0753
 3060SOL    HW112968   2.337   9.946   8.820  1.6395 -0.7316  2.0420
 3060SOL    HW212969   2.383  10.068   8.897 -2.1856  0.1590  3.1200
 3061SOL     OW12970   7.693   9.200   7.243 -0.1406  0.0914  0.2643
 3061SOL    HW112971   7.605   9.170   7.220  0.2372  0.0654 -1.2461
 3061SOL    HW212972   7.724   9.136   7.307 -0.9013 -0.3986  0.1493
 3062SOL     OW12973   5.639   1.647  10.286  0.2782  0.1465  0.4101
 3062SOL    HW112974   5.591   1.574  10.325 -1.6310  1.5216  0.8182
 3062SOL    HW212975   5.573   1.694  10.235  1.6699  1.0606 -0.5955
 3063SOL     OW12976  10.069   3.575   1.509  0.4193 -0.1290  0.5132
 3063SOL    HW112977  10.106   3.572   1.598  0.2965 -0.9871  0.5445
 3063SOL    HW212978  10.009   3.650   1.511  1.7787  0.9923  0.6068
 3064SOL     OW12979   9.183   0.533   8.358  0.0191 -0.2838 -0.0772
 3064SOL    HW112980   9.129   0.583   8.296  0.2668  0.4377  0.2701
 3064SOL    HW212981   9.260   0.508   8.306 -0.2746 -0.6232 -0.3540
 3065SOL     OW12982   6.414   8.163   1.794  0.3613 -0.4432  0.2150
 3065SOL    HW112983   6.396   8.071   1.779 -1.4363  0.1089 -1.4521
 3065SOL    HW212984   6.334   8.208   1.765  1.7441  1.7199 -0.4946
 3066SOL     OW12985   1.027   6.059   8.273  0.3311  0.0326  0.0130
 3066SOL    HW112986   1.095   6.032   8.335 -0.6472 -0.3537  0.9525
 3066SOL    HW212987   1.059   6.142   8.236  0.6797  0.5846  1.4791
 3067SOL     OW12988   7.592   6.051   4.715  0.1755  0.2896 -0.0757
 3067SOL    HW112989   7.668   6.084   4.666  0.1339  0.5405  0.0315
 3067SOL    HW212990   7.535   6.013   4.648  0.6295 -0.3623 -0.1080
 3068SOL     OW12991   5.962   0.621   1.088  0.0141 -0.2541 -0.4165
 3068SOL    HW112992   5.993   0.550   1.033 -0.3251 -0.3503 -0.4837
 3068SOL    HW212993   5.884   0.653   1.044 -2.0188 -2.2506  1.4810
 3069SOL     OW12994   8.833   6.134   6.136  0.5451  0.0919 -0.5038
 3069SOL    HW112995   8.875   6.070   6.078  0.8816  1.3891 -1.7318
 3069SOL    HW212996   8.887   6.135   6.214  1.3135 -0.1402 -1.0227
 3070SOL     OW12997   3.812   9.918   9.611  0.1875  0.0953  0.2438
 3070SOL    HW112998   3.856   9.978   9.671  0.2187  0.3672 -0.0490
 3070SOL    HW212999   3.877   9.850   9.594 -0.1467 -0.5067  1.2655
 3071SOL     OW13000   5.814   3.545   6.130  0.1719  0.0804  0.7393
 3071SOL    HW113001   5.882   3.479   6.146 -0.7686 -1.2928 -0.6234
 3071SOL    HW213002   5.839   3.585   6.046  0.0669  0.6072  0.9538
 3072SOL     OW13003   2.132   9.486   0.756 -0.8947  0.1009 -0.4652
 3072SOL    HW113004   2.208   9.513   0.704  0.4343 -0.1932  1.2513
 3072SOL    HW213005   2.057   9.498   0.697  0.1838  2.6758 -1.4462
 3073SOL     OW13006   3.656   5.142   2.752  0.0043  0.0728 -0.1341
 3073SOL    HW113007   3.670   5.178   2.665 -0.1467 -0.9280 -0.5855
 3073SOL    HW213008   3.593   5.201   2.793  0.3326  0.7385 -0.5730
 3074SOL     OW13009   3.076   2.435   3.353  0.6691 -0.3390  0.1443
 3074SOL    HW113010   3.078   2.511   3.411  1.6968 -0.4442  0.2660
 3074SOL    HW213011   2.985   2.406   3.354  1.0111 -1.6629  3.4155
 3075SOL     OW13012   8.868   5.407   1.719 -0.0078 -0.3099 -0.1225
 3075SOL    HW113013   8.815   5.466   1.666  0.2036  0.2665  0.3031
 3075SOL    HW213014   8.914   5.352   1.656 -0.8712 -0.6104 -0.5047
 3076SOL     OW13015   6.537   7.787   9.340  0.3557  0.3579 -0.1405
 3076SOL    HW113016   6.515   7.710   9.392  1.6793  0.6037  0.8449
 3076SOL    HW213017   6.551   7.856   9.405  1.1385  0.9119 -0.8812
 3077SOL     OW13018   4.054   8.795   5.367 -0.3641  0.0507 -0.5689
 3077SOL    HW113019   4.037   8.756   5.453  2.7738  1.8853  1.0623
 3077SOL    HW213020   3.971   8.838   5.344 -1.1395  0.0082  1.8372
 3078SOL     OW13021   6.692   1.287   7.067 -0.6849 -0.3923  0.1024
 3078SOL    HW113022   6.641   1.349   7.119 -0.0087  0.2289  0.0445
 3078SOL    HW213023   6.730   1.227   7.131 -1.0047 -0.4999  0.1948
 3079SOL     OW13024   4.332   8.997  10.078  0.6998  0.2056 -0.2513
 3079SOL    HW113025   4.338   8.923  10.138 -1.3411 -1.0395 -1.4657
 3079SOL    HW213026   4.381   9.067  10.122  2.5231 -1.7522  1.0288
 3080SOL     OW13027   1.996   7.926   3.758  0.4490 -0.6196 -0.0777
 3080SOL    HW113028   1.951   7.879   3.688 -0.6384 -1.6384  1.2477
 3080SOL    HW213029   2.073   7.873   3.778  1.1262  0.0167 -0.9100
 3081SOL     OW13030   2.756   0.890   8.539 -0.3139 -0.2077  0.3508
 3081SOL    HW113031   2.724   0.867   8.626  0.0695  0.5817  0.7150
 3081SOL    HW213032   2.849   0.867   8.541 -0.7575 -2.2718 -0.6180
 3082SOL     OW13033   8.323   3.423   7.650  0.6077 -0.4452 -0.5184
 3082SOL    HW113034   8.375   3.416   7.729  0.7282 -0.6340 -0.6128
 3082SOL    HW213035   8.235   3.395   7.677  0.4328  0.3488 -0.2429
 3083SOL     OW13036   3.800   8.198   4.182 -0.0691 -0.2424 -0.8728
 3083SOL    HW113037   3.735   8.215   4.250 -0.4309 -2.7701 -0.4833
 3083SOL    HW213038   3.869   8.262   4.197 -2.3376  2.4357 -1.1968
 3084SOL     OW13039   7.560   0.523   7.517 -0.1729  0.3421 -0.6398
 3084SOL    HW113040   7.638   0.537   7.571 -0.9825  1.3409  0.3331
 3084SOL    HW213041   7.526   0.438   7.545 -1.2974  1.3892  1.4426
 3085SOL     OW13042   2.994   0.870   3.525 -0.0412 -0.6258  0.0022
 3085SOL    HW113043   2.958   0.788   3.557 -0.3834 -0.2175  0.6903
 3085SOL    HW213044   2.955   0.881   3.438 -0.1034 -1.1233 -0.0313
 3086SOL     OW13045   0.509   8.235   0.633  0.3576 -0.3706 -0.2411
 3086SOL    HW113046   0.485   8.181   0.557  2.6266 -1.6203 -0.1597
 3086SOL    HW213047   0.469   8.190   0.707  0.9703 -1.0886 -0.3408
 3087SOL     OW13048   1.042   2.560   4.992 -0.3750  0.1039 -0.3548
 3087SOL    HW113049   0.966   2.562   5.050 -0.4071 -1.9270 -0.2592
 3087SOL    HW213050   1.092   2.638   5.015 -0.8471 -0.1591  1.7899
 3088SOL     OW13051   2.863   9.724   2.017 -0.4579 -0.1026 -0.0327
 3088SOL    HW113052   2.888   9.641   2.057 -1.6078 -1.1962 -1.4777
 3088SOL    HW213053   2.827   9.700   1.932 -2.4857  1.7043  0.2210
 3089SOL     OW13054   2.820   1.627   1.654 -0.3848 -0.4318  0.0105
 3089SOL    HW113055   2.861   1.607   1.570 -0.4401  0.2493 -0.1810
 3089SOL    HW213056   2.862   1.567   1.716  1.9379  1.1736  0.1151
 3090SOL     OW13057   2.394   6.832   5.459 -0.1699  0.4335  0.0909
 3090SOL    HW113058   2.367   6.802   5.545  0.5295  0.0331  0.1798
 3090SOL    HW213059   2.327   6.800   5.399  0.9256 -2.0593  0.0566
 3091SOL     OW13060   0.669   7.175   3.973 -0.0580  0.4610  0.5284
 3091SOL    HW113061   0.619   7.256   3.978 -1.2018 -0.0289 -1.8168
 3091SOL    HW213062   0.713   7.180   3.888  0.3928 -1.0894  0.6531
 3092SOL     OW13063   2.170   8.609  10.116  0.4650  0.5659 -0.8731
 3092SOL    HW113064   2.156   8.530  10.168  1.4307 -0.2516 -1.8169
 3092SOL    HW213065   2.099   8.607  10.051  0.5480  0.4205 -0.9591
 3093SOL     OW13066   9.107   4.928   8.301 -0.3935  0.0188 -0.0828
 3093SOL    HW113067   9.154   5.002   8.263 -0.5536 -0.9753 -2.3732
 3093SOL    HW213068   9.017   4.959   8.309  0.0285  0.9446  1.5753
 3094SOL     OW13069   0.907   9.215   8.720  0.0439  0.4461  0.1270
 3094SOL    HW113070   0.849   9.158   8.670 -0.5688  1.8941 -0.8655
 3094SOL    HW213071   0.951   9.156   8.782 -1.3017 -0.9307 -0.1687
 3095SOL     OW13072   6.491   4.414   8.372 -0.0215 -0.1085 -1.0585
 3095SOL    HW113073   6.488   4.360   8.451  3.0268 -1.5778 -1.7921
 3095SOL    HW213074   6.422   4.379   8.317 -1.0781 -0.1851  0.2662
 3096SOL     OW13075   4.234   3.452   8.717 -0.0940  0.3067 -0.5889
 3096SOL    HW113076   4.209   3.497   8.797  0.8765 -2.0835  1.1628
 3096SOL    HW213077   4.293   3.513   8.672  0.8849  0.9587  1.4845
 3097SOL     OW13078   8.091   6.191   1.309 -0.0145  0.3238 -0.1336
 3097SOL    HW113079   8.178   6.159   1.332  0.3822  0.8437 -0.8513
 3097SOL    HW213080   8.049   6.117   1.266  0.5874  0.4705 -1.0148
 3098SOL     OW13081   3.120   4.024   7.207 -0.2683 -0.1946  0.1459
 3098SOL    HW113082   3.124   4.096   7.144 -0.5925 -0.2400  0.0699
 3098SOL    HW213083   3.036   3.981   7.189 -0.6996  0.2242  1.0784
 3099SOL     OW13084   9.824   4.903   7.544  0.1092 -0.0509  0.3011
 3099SOL    HW113085   9.891   4.834   7.540  0.1121  0.0048 -0.7544
 3099SOL    HW213086   9.861   4.974   7.492 -1.0765 -0.2887 -0.9031
 3100SOL     OW13087   1.449   2.659   7.699  0.1933  0.4510  0.8664
 3100SOL    HW113088   1.504   2.630   7.627  0.2093  1.4193  0.4684
 3100SOL    HW213089   1.425   2.579   7.745  0.4888 -0.1463  0.0054
 3101SOL     OW13090   2.072   9.229   6.770 -0.1338 -0.5989  0.3951
 3101SOL    HW113091   2.075   9.277   6.687 -0.8509  0.4395  0.9375
 3101SOL    HW213092   2.115   9.146   6.752  0.3314 -0.1110 -0.8311
 3102SOL     OW13093   1.139   1.249   7.065 -0.2367 -0.1779 -0.2624
 3102SOL    HW113094   1.085   1.241   6.986 -0.9661 -1.8036  0.3711
 3102SOL    HW213095   1.160   1.160   7.090 -0.6951  0.2416  1.8343
 3103SOL     OW13096   2.790   6.393   0.788  0.2958 -0.0731 -0.3591
 3103SOL    HW113097   2.880   6.367   0.769 -0.0171 -0.7228 -0.9855
 3103SOL    HW213098   2.786   6.485   0.760  1.6210  1.0285  2.5682
 3104SOL     OW13099   9.973   8.899   5.700  0.5435  0.8164 -0.2527
 3104SOL    HW113100   9.901   8.904   5.764 -1.3530 -1.3654 -2.0322
 3104SOL    HW213101  10.018   8.983   5.709 -1.5755  1.8777  1.7096
 3105SOL     OW13102   0.285   0.044   7.671 -0.5581  0.6019  0.0395
 3105SOL    HW113103   0.335  -0.035   7.688 -0.1566  0.5997 -1.0430
 3105SOL    HW213104   0.351   0.113   7.665 -0.5445  0.4742 -2.1985
 3106SOL     OW13105   2.467   1.463   0.144  0.5356  0.0131 -0.2148
 3106SOL    HW113106   2.457   1.521   0.220 -2.1860 -0.3770 -0.1676
 3106SOL    HW213107   2.490   1.378   0.181  1.7732  0.3868 -0.0732
 3107SOL     OW13108   5.364   6.743   2.716  0.3556  0.2976 -0.1390
 3107SOL    HW113109   5.403   6.678   2.657  2.1656 -0.3366  1.6616
 3107SOL    HW213110   5.435   6.770   2.774 -1.7485 -0.8372  3.2753
 3108SOL     OW13111   0.630   9.131   3.451 -0.2602  0.2050  0.3340
 3108SOL    HW113112   0.711   9.169   3.418  0.5336 -0.5606  1.3438
 3108SOL    HW213113   0.605   9.188   3.523 -0.6561  0.4662 -0.0051
 3109SOL     OW13114   8.362   8.559   1.130  0.4083 -0.0381  0.0767
 3109SOL    HW113115   8.362   8.508   1.211  0.5705 -0.5566 -0.2477
 3109SOL    HW213116   8.446   8.540   1.089  0.7757  1.0370  0.2859
 3110SOL     OW13117   2.170   1.164   9.321 -0.0714 -0.3102 -0.2291
 3110SOL    HW113118   2.264   1.159   9.307  0.2602  0.2561  1.5612
 3110SOL    HW213119   2.135   1.086   9.279  0.9484  0.4030 -2.5553
 3111SOL     OW13120   3.714   6.816   4.548  0.0752  0.3572 -0.0032
 3111SOL    HW113121   3.625   6.797   4.577 -0.0033 -1.6107 -1.3268
 3111SOL    HW213122   3.703   6.858   4.463  0.4043  0.4784  0.0120
 3112SOL     OW13123   9.309   1.774   0.884  0.1516 -0.2011 -1.0576
 3112SOL    HW113124   9.400   1.758   0.861  0.9163  0.2454  1.4541
 3112SOL    HW213125   9.265   1.690   0.866  1.3776 -0.9224 -0.7990
 3113SOL     OW13126   0.698   3.869   5.619  0.0317 -0.0645  0.1202
 3113SOL    HW113127   0.656   3.834   5.697  0.3509 -0.7908 -0.0252
 3113SOL    HW213128   0.740   3.950   5.648  0.0499 -0.2695  0.6789
 3114SOL     OW13129   5.883   4.563   5.713 -0.1259  0.4135  0.5912
 3114SOL    HW113130   5.850   4.552   5.624 -1.1102 -0.2749  1.0301
 3114SOL    HW213131   5.964   4.512   5.715 -1.2211 -1.3911  0.6880
 3115SOL     OW13132   5.181   2.464   0.225  0.5809 -0.4596 -0.2931
 3115SOL    HW113133   5.152   2.375   0.247 -0.3751  0.0258  0.5172
 3115SOL    HW213134   5.104   2.506   0.187  0.7601  0.2843  0.1297
 3116SOL     OW13135   5.260   3.287   7.402 -0.1371 -0.8309 -0.4286
 3116SOL    HW113136   5.297   3.206   7.367  1.0014  0.4336 -2.3454
 3116SOL    HW213137   5.223   3.332   7.326 -0.9297  0.3861  0.6144
 3117SOL     OW13138   4.882   7.610   3.730  0.1836  0.1780  0.6627
 3117SOL    HW113139   4.799   7.582   3.768  0.7227 -0.5792  1.3367
 3117SOL    HW213140   4.947   7.550   3.769  0.7995 -0.5132 -1.3254
 3118SOL     OW13141   6.671   6.691   6.164 -0.1763  0.0041 -0.2092
 3118SOL    HW113142   6.644   6.775   6.200 -1.7102 -1.3828  2.1304
 3118SOL    HW213143   6.690   6.637   6.241  2.4999 -1.3154 -1.6541
 3119SOL     OW13144   8.491   3.555   5.786  0.4793  0.8723 -0.3821
 3119SOL    HW113145   8.579   3.520   5.768  0.3656  0.8989 -1.0389
 3119SOL    HW213146   8.452   3.492   5.847  1.8911  2.2423  2.0791
 3120SOL     OW13147   2.747   3.564   5.027 -0.1662  0.6925  0.0374
 3120SOL    HW113148   2.734   3.491   4.967  0.2593  0.9537 -0.3858
 3120SOL    HW213149   2.677   3.555   5.091  0.2420 -0.4453  0.3523
 3121SOL     OW13150   5.913   2.137   9.686 -0.0982 -0.8063 -0.2678
 3121SOL    HW113151   5.935   2.188   9.764 -1.1838 -0.5479 -0.1094
 3121SOL    HW213152   5.859   2.196   9.633 -0.2294 -1.3285 -0.7238
 3122SOL     OW13153   0.182   9.881   3.644 -0.2269 -0.0827  0.1739
 3122SOL    HW113154   0.171   9.903   3.737 -1.8176  0.1350 -0.0361
 3122SOL    HW213155   0.243   9.947   3.611 -1.1735  1.0668  0.6512
 3123SOL     OW13156   8.871   0.942   7.325 -0.1966  0.0553  0.6398
 3123SOL    HW113157   8.961   0.965   7.346  0.6529 -2.0523 -0.4046
 3123SOL    HW213158   8.831   1.024   7.297  1.6933  0.8432  0.1219
 3124SOL     OW13159   7.564   3.608   3.413 -0.4243 -0.0637  0.2288
 3124SOL    HW113160   7.547   3.610   3.507  0.7876  0.7407  0.4555
 3124SOL    HW213161   7.500   3.668   3.376 -0.1468  0.5310  0.6893
 3125SOL     OW13162   1.599   3.085   2.641 -0.4327  0.1041 -0.2503
 3125SOL    HW113163   1.578   3.178   2.631  0.4288  0.2988 -0.3217
 3125SOL    HW213164   1.527   3.039   2.598 -0.4644  0.7566 -0.9071
 3126SOL     OW13165   0.242   0.802   1.526 -1.0820 -0.3504 -0.0744
 3126SOL    HW113166   0.298   0.875   1.550 -1.4579 -0.1370  0.1720
 3126SOL    HW213167   0.273   0.774   1.440 -0.3767 -0.4682  0.2150
 3127SOL     OW13168   2.494   5.311   1.819  0.0274  0.7186 -0.0352
 3127SOL    HW113169   2.567   5.251   1.805 -0.0109  0.4502  0.8670
 3127SOL    HW213170   2.535   5.388   1.860  0.1106  1.4134 -1.3659
 3128SOL     OW13171   4.895   1.759   7.562 -0.8616  0.1650 -0.0886
 3128SOL    HW113172   4.821   1.704   7.588 -2.0528  1.3657 -0.7726
 3128SOL    HW213173   4.967   1.697   7.548 -1.6080 -1.0006  0.9716
 3129SOL     OW13174   0.698   0.516   5.863 -0.1444 -0.1663 -0.4530
 3129SOL    HW113175   0.649   0.598   5.856  0.5441  0.1838 -1.4735
 3129SOL    HW213176   0.758   0.518   5.788 -0.2078 -1.6702 -0.5665
 3130SOL     OW13177   8.803   2.840   8.963 -0.2359 -0.1825  0.1409
 3130SOL    HW113178   8.840   2.796   8.886  0.1356  0.0852  0.1638
 3130SOL    HW213179   8.747   2.909   8.926  1.2346  1.0288  0.0954
 3131SOL     OW13180   4.795   2.040   0.492 -0.3526  0.4193  0.4129
 3131SOL    HW113181   4.851   2.115   0.512  0.4579  0.1272 -0.6883
 3131SOL    HW213182   4.818   1.974   0.558 -0.8173  0.9878  1.1652
 3132SOL     OW13183   9.989   9.396  10.005  0.7596  0.4222 -0.3765
 3132SOL    HW113184  10.018   9.323  10.060 -0.2382  0.0647 -0.3146
 3132SOL    HW213185  10.037   9.472  10.039 -0.3726  0.3674  1.5172
 3133SOL     OW13186   8.382   8.162   2.342 -0.8045 -0.0310 -0.2732
 3133SOL    HW113187   8.473   8.169   2.312 -0.1243 -1.3733  1.3557
 3133SOL    HW213188   8.372   8.236   2.402 -1.1826  0.7894 -1.3085
 3134SOL     OW13189   0.931   4.016   5.297 -0.2025 -0.0326  0.0670
 3134SOL    HW113190   1.007   3.997   5.241  0.3773  1.3204  0.3540
 3134SOL    HW213191   0.924   4.111   5.295  0.4026  0.1481  3.0114
 3135SOL     OW13192   7.074   0.516   5.057  0.7562  0.1094 -0.0380
 3135SOL    HW113193   7.092   0.488   4.967  1.0353  1.9425 -0.5856
 3135SOL    HW213194   6.979   0.524   5.061  0.5695 -1.8455  0.4546
 3136SOL     OW13195   0.346   7.683   7.314 -0.3106  0.4092  0.4619
 3136SOL    HW113196   0.390   7.765   7.291  0.8656 -0.2519  0.2655
 3136SOL    HW213197   0.279   7.672   7.246 -0.3837  1.1270  0.4096
 3137SOL     OW13198   2.579   2.494   0.745  0.1033 -0.3467 -0.4003
 3137SOL    HW113199   2.508   2.433   0.724 -1.5612  0.7716  1.6220
 3137SOL    HW213200   2.559   2.525   0.833  3.2283 -0.0647  0.3245
 3138SOL     OW13201   2.325  10.021   1.505 -0.2909  0.1440 -0.4331
 3138SOL    HW113202   2.237  10.049   1.528 -1.6567 -3.5390 -0.6205
 3138SOL    HW213203   2.328  10.027   1.410  0.3961  1.9884 -0.3408
 3139SOL     OW13204   2.733   3.194   3.705  0.2554 -0.0923 -0.0192
 3139SOL    HW113205   2.706   3.120   3.760  1.6693 -1.7828 -1.5011
 3139SOL    HW213206   2.736   3.159   3.616  1.4854  1.6012 -0.6969
 3140SOL     OW13207   7.865   3.369   6.044  0.0864  0.1116 -0.2278
 3140SOL    HW113208   7.773   3.388   6.029 -0.3619 -2.6821 -1.5892
 3140SOL    HW213209   7.911   3.444   6.005 -1.5501  0.9395 -0.6603
 3141SOL     OW13210   3.752   9.600   3.458 -0.1203  0.2104 -0.6557
 3141SOL    HW113211   3.788   9.522   3.417 -2.7186 -0.9572 -0.8948
 3141SOL    HW213212   3.680   9.627   3.401  0.2137  2.3519 -0.1630
 3142SOL     OW13213   0.070   3.987   2.350 -0.4246  0.1159  0.9145
 3142SOL    HW113214   0.121   3.915   2.388 -0.5271 -1.9174 -2.4264
 3142SOL    HW213215   0.118   4.066   2.375  3.2690 -1.5344 -0.2654
 3143SOL     OW13216   7.019   1.246   1.481 -0.0943  0.3248 -0.0696
 3143SOL    HW113217   6.953   1.252   1.551  1.9007  2.1721  1.8126
 3143SOL    HW213218   7.004   1.160   1.441 -2.1233 -0.2910  1.8091
 3144SOL     OW13219   3.833   0.939   5.498  0.0306 -0.2870  0.2397
 3144SOL    HW113220   3.872   0.883   5.565 -1.5698 -1.2312  0.4432
 3144SOL    HW213221   3.838   1.027   5.534 -2.9777 -0.9963  2.8416
 3145SOL     OW13222   2.238   7.412   1.437 -0.0208 -0.2292 -0.8586
 3145SOL    HW113223   2.191   7.329   1.431 -0.7524  0.1792 -0.8152
 3145SOL    HW213224   2.287   7.417   1.355  1.3893 -1.4997 -0.1570
 3146SOL     OW13225   7.871   2.914   9.967  0.7291 -1.0081 -0.2823
 3146SOL    HW113226   7.794   2.940   9.916  0.4826 -0.4201  0.3825
 3146SOL    HW213227   7.887   2.988  10.026  1.7109 -1.1942 -0.3066
 3147SOL     OW13228   3.722   3.301   6.733  0.4100 -0.3586 -0.3839
 3147SOL    HW113229   3.809   3.261   6.732  1.3354  1.5517 -0.6019
 3147SOL    HW213230   3.667   3.240   6.684  2.1584 -0.5321 -2.2827
 3148SOL     OW13231   7.092   0.271   3.337  0.0082 -0.0345 -0.1640
 3148SOL    HW113232   7.096   0.366   3.347  1.1188 -0.2831  2.5669
 3148SOL    HW213233   7.176   0.247   3.297  0.2746  0.0360  0.3458
 3149SOL     OW13234   3.928   4.080   2.191  0.0467 -0.0411  0.4831
 3149SOL    HW113235   3.947   4.141   2.119  1.8664  0.8768  1.6942
 3149SOL    HW213236   3.882   4.133   2.256 -2.5359 -1.1015 -0.3111
 3150SOL     OW13237   3.480   0.979   0.187  0.0212  0.4119 -0.0660
 3150SOL    HW113238   3.433   1.014   0.112  0.5579  0.4701 -0.3845
 3150SOL    HW213239   3.482   0.884   0.172 -0.6702  0.3292  0.3477
 3151SOL     OW13240   4.908   4.410   8.284 -0.0443 -0.6345 -0.3896
 3151SOL    HW113241   4.825   4.418   8.236 -0.3801 -0.4775  0.2012
 3151SOL    HW213242   4.915   4.316   8.302 -0.4508 -0.5753  0.1452
 3152SOL     OW13243   0.861   8.926   4.524 -0.0025 -0.1904 -0.7398
 3152SOL    HW113244   0.905   8.851   4.484 -0.8811 -1.1974  0.1204
 3152SOL    HW213245   0.780   8.890   4.560 -1.3299  1.5107 -1.8611
 3153SOL     OW13246   1.058   7.411   6.096  0.3975 -0.0089  0.2639
 3153SOL    HW113247   1.125   7.441   6.035  0.1474 -0.9036 -0.4777
 3153SOL    HW213248   1.050   7.317   6.079 -1.4343  0.1665 -0.0567
 3154SOL     OW13249   5.694   0.579   5.526 -0.0082 -0.2313  0.0265
 3154SOL    HW113250   5.751   0.629   5.584 -1.3884 -0.1817  1.4012
 3154SOL    HW213251   5.708   0.488   5.551  1.8090 -0.5365 -1.8419
 3155SOL     OW13252   1.630   0.393   8.878 -0.2535 -0.2961 -0.2006
 3155SOL    HW113253   1.604   0.336   8.950  0.1575  0.9551  1.0154
 3155SOL    HW213254   1.551   0.441   8.855 -0.1443  0.1317  0.2606
 3156SOL     OW13255   2.833   2.912   9.053 -0.0738 -0.0601 -0.1170
 3156SOL    HW113256   2.839   2.922   8.958  1.0184  0.7601  0.0243
 3156SOL    HW213257   2.798   2.823   9.065 -1.3463  0.2367 -1.2896
 3157SOL     OW13258   0.859   0.215   9.894 -0.1138 -0.1862  0.0855
 3157SOL    HW113259   0.927   0.275   9.926  0.3588  0.8737 -2.6099
 3157SOL    HW213260   0.880   0.131   9.935  1.8771  0.4786  0.5497
 3158SOL     OW13261   4.540   7.972   1.774 -0.0589 -0.2245 -0.3353
 3158SOL    HW113262   4.561   7.879   1.790 -0.2631 -0.5006 -1.6027
 3158SOL    HW213263   4.452   7.971   1.737 -0.6751  0.6165  1.0311
 3159SOL     OW13264   0.067   5.116   8.587  0.0202  0.4688  0.5105
 3159SOL    HW113265  -0.002   5.059   8.621  0.2002  0.2560  0.5217
 3159SOL    HW213266   0.146   5.062   8.589  0.4730  1.1558  1.8038
 3160SOL     OW13267   5.945   9.247   0.346  0.6902  0.3150 -0.1397
 3160SOL    HW113268   6.010   9.299   0.298 -0.1329  1.3692 -0.1274
 3160SOL    HW213269   5.870   9.304   0.356 -0.1524 -0.7940  0.1124
 3161SOL     OW13270   2.020   4.077   8.118  0.1791 -0.1602  0.3429
 3161SOL    HW113271   1.930   4.110   8.111  0.6523  1.2403  0.6089
 3161SOL    HW213272   2.009   3.984   8.138 -1.2049 -0.1722 -0.2887
 3162SOL     OW13273   0.497   1.313   6.496 -0.1685  0.0423 -0.4828
 3162SOL    HW113274   0.492   1.314   6.400  0.9795 -0.2875 -0.5709
 3162SOL    HW213275   0.473   1.223   6.520  2.3548 -0.7797 -0.7151
 3163SOL     OW13276   7.458   6.116   2.068  0.1572 -0.0580  0.0430
 3163SOL    HW113277   7.369   6.119   2.105  0.4930 -0.8984  0.9702
 3163SOL    HW213278   7.515   6.099   2.143  1.0189 -0.3887 -0.6604
 3164SOL     OW13279   8.299   5.072   4.180  0.0643 -1.0355  0.9039
 3164SOL    HW113280   8.297   5.042   4.270  0.3337 -0.2528  1.1806
 3164SOL    HW213281   8.210   5.059   4.148 -0.1050 -1.0508  1.3768
 3165SOL     OW13282   2.472   4.376   3.800  0.0302 -0.0636  0.4662
 3165SOL    HW113283   2.537   4.337   3.742  1.0718 -0.0099  1.5553
 3165SOL    HW213284   2.508   4.364   3.888 -1.0891  0.6289  1.0435
 3166SOL     OW13285   7.889   3.868   4.612  0.3480 -0.0982 -0.0478
 3166SOL    HW113286   7.842   3.830   4.538  1.4085  0.9375 -1.2920
 3166SOL    HW213287   7.922   3.792   4.660  0.4018 -0.7946 -1.1383
 3167SOL     OW13288   5.473   5.875   5.300  0.2826  0.0880 -0.0466
 3167SOL    HW113289   5.556   5.864   5.254  1.7759  1.5032  2.0907
 3167SOL    HW213290   5.478   5.814   5.374 -1.0743 -0.5490 -0.4449
 3168SOL     OW13291   1.626   4.398   3.657  0.8879 -0.0398  0.2640
 3168SOL    HW113292   1.635   4.350   3.575  1.0216 -0.0971  0.3119
 3168SOL    HW213293   1.561   4.348   3.707  0.9124 -0.0835  0.2516
 3169SOL     OW13294   6.388   4.391   1.890 -0.0607  0.2424 -0.0802
 3169SOL    HW113295   6.292   4.395   1.886 -0.2581 -2.2740  0.3199
 3169SOL    HW213296   6.410   4.425   1.976 -0.5405  1.1188 -0.2872
 3170SOL     OW13297   9.708   7.435   2.908 -0.2428 -0.1510 -0.3181
 3170SOL    HW113298   9.703   7.372   2.979 -2.3224 -1.6630 -1.7145
 3170SOL    HW213299   9.753   7.388   2.837 -2.8117 -0.5944 -1.7718
 3171SOL     OW13300   0.190   6.755   1.342  0.0434  0.0430 -0.2370
 3171SOL    HW113301   0.236   6.798   1.414 -0.3812 -0.6064  0.4333
 3171SOL    HW213302   0.143   6.683   1.383 -0.5120 -0.1074 -1.1115
 3172SOL     OW13303   9.058   6.051   8.520 -0.9831  0.4169 -0.1619
 3172SOL    HW113304   9.047   6.064   8.426 -1.3183 -1.6263 -0.4378
 3172SOL    HW213305   9.125   5.982   8.528  0.5623  1.9513  1.1695
 3173SOL     OW13306   5.983   1.625   9.414 -0.0992 -0.0466 -0.6874
 3173SOL    HW113307   5.978   1.691   9.483 -2.4186 -0.4616 -0.3911
 3173SOL    HW213308   6.021   1.548   9.458  1.5759  0.6859 -0.7647
 3174SOL     OW13309   8.228   3.615   0.703 -0.0100  0.3327  0.0576
 3174SOL    HW113310   8.290   3.548   0.731 -1.9872 -2.0310 -0.7893
 3174SOL    HW213311   8.224   3.606   0.608 -2.7358 -0.7682  0.1791
 3175SOL     OW13312   1.525  10.129   3.592 -0.3723 -0.1127  0.2940
 3175SOL    HW113313   1.532  10.146   3.498 -0.2287 -1.0361  0.1241
 3175SOL    HW213314   1.599  10.176   3.631  1.2082 -1.8943 -0.3840
 3176SOL     OW13315   5.359   7.895   9.968  0.0422 -0.5548 -0.1669
 3176SOL    HW113316   5.411   7.816   9.959  1.4836  0.2704  0.6721
 3176SOL    HW213317   5.420   7.962   9.998 -1.4767  0.4781  0.8024
 3177SOL     OW13318   9.641   2.966   9.670  0.2234 -0.2611  0.6744
 3177SOL    HW113319   9.629   2.988   9.578  2.5155  1.4345  0.7017
 3177SOL    HW213320   9.736   2.956   9.681 -0.0421 -1.1989  2.6993
 3178SOL     OW13321   0.129   8.041   4.617  0.0331 -0.3632 -0.5726
 3178SOL    HW113322   0.064   8.106   4.643  0.7956  0.0428  0.3630
 3178SOL    HW213323   0.101   7.960   4.660  1.0680  0.2115  1.2753
 3179SOL     OW13324   2.147   8.861  10.206  0.4780 -0.8766  0.1687
 3179SOL    HW113325   2.152   8.766  10.202  2.8229 -0.9048  1.5040
 3179SOL    HW213326   2.195   8.891  10.129 -0.3742 -0.7584 -0.3238
 3180SOL     OW13327   8.822   7.481   6.973  0.3218  0.0066 -0.0221
 3180SOL    HW113328   8.808   7.438   6.888  0.7141  0.9030 -0.5571
 3180SOL    HW213329   8.854   7.411   7.030  0.6082 -0.4990 -0.7751
 3181SOL     OW13330   9.291   6.614   9.678  0.0372  0.4132  0.2085
 3181SOL    HW113331   9.245   6.665   9.612  1.1079 -1.9910 -2.5812
 3181SOL    HW213332   9.226   6.550   9.708  0.0721  0.3516  0.1521
 3182SOL     OW13333   8.200   4.022   4.197  0.0564 -0.6224 -0.2189
 3182SOL    HW113334   8.114   3.994   4.229 -0.3168  1.0494  0.3254
 3182SOL    HW213335   8.259   4.005   4.270  0.2578 -1.9870 -0.6742
 3183SOL     OW13336   0.844   6.112  10.353  0.2940  0.5750  0.0023
 3183SOL    HW113337   0.850   6.072  10.266 -0.1177 -0.5856  0.4794
 3183SOL    HW213338   0.920   6.079  10.400 -0.0818  0.2782  0.4201
 3184SOL     OW13339   5.152   9.841   3.047 -0.3958 -0.0955  0.3257
 3184SOL    HW113340   5.175   9.877   3.132  1.4854 -1.3202  0.3948
 3184SOL    HW213341   5.126   9.917   2.994 -0.0316  0.8701  1.4984
 3185SOL     OW13342   3.283   2.466   6.710 -0.5528 -0.0354  0.3553
 3185SOL    HW113343   3.220   2.511   6.654 -2.3401 -1.3315  1.2532
 3185SOL    HW213344   3.230   2.409   6.766  1.4712 -1.8377  0.5591
 3186SOL     OW13345   9.682   5.617   2.954 -0.4957 -0.3068  0.1166
 3186SOL    HW113346   9.701   5.689   3.014 -0.5296  0.5797 -0.9081
 3186SOL    HW213347   9.589   5.598   2.968  0.0480 -1.7948  2.0961
 3187SOL     OW13348   4.028   1.755   6.517 -0.1752 -0.0291  0.1900
 3187SOL    HW113349   4.048   1.845   6.542 -1.0052  0.1636  0.1967
 3187SOL    HW213350   3.980   1.719   6.592  0.7985 -0.7241  0.5006
 3188SOL     OW13351   4.690   6.163   0.304  0.8462 -0.2864  0.5270
 3188SOL    HW113352   4.737   6.207   0.374  1.5821  0.1555 -0.2240
 3188SOL    HW213353   4.683   6.228   0.235 -2.4983  0.2997  1.2369
 3189SOL     OW13354   7.983   6.504   2.410 -0.2085 -0.3718 -0.4408
 3189SOL    HW113355   7.935   6.448   2.472 -1.2484  0.9846  0.0274
 3189SOL    HW213356   7.993   6.587   2.456  1.9770 -0.3752 -0.8352
 3190SOL     OW13357   3.566   3.169   3.167  0.3418  0.0761  0.0546
 3190SOL    HW113358   3.571   3.260   3.138 -0.4804  0.5167  1.1833
 3190SOL    HW213359   3.542   3.120   3.089 -0.5363  1.0285 -0.3018
 3191SOL     OW13360   8.106   7.331   6.683  0.2659  0.0232 -0.0131
 3191SOL    HW113361   8.020   7.301   6.714 -0.9951  3.4152  0.1623
 3191SOL    HW213362   8.157   7.341   6.763 -0.8457  2.5503  0.4701
 3192SOL     OW13363   0.604   5.000   4.377 -0.3863 -0.0575  0.0806
 3192SOL    HW113364   0.665   5.050   4.432  1.6159  0.4128 -2.3668
 3192SOL    HW213365   0.590   4.919   4.425  1.6518  0.1329  1.1217
 3193SOL     OW13366   7.826   8.039   2.573 -0.2479  0.2167  0.4385
 3193SOL    HW113367   7.791   7.956   2.539  1.0395  0.5894 -2.0813
 3193SOL    HW213368   7.765   8.105   2.539  0.1182  0.4838  0.3048
 3194SOL     OW13369   6.675   1.996   8.400  0.7964 -0.1639 -0.0980
 3194SOL    HW113370   6.666   1.990   8.305 -0.3078 -2.3077  0.0898
 3194SOL    HW213371   6.607   2.058   8.426  1.3607  0.7411 -0.7143
 3195SOL     OW13372   3.797   1.779   6.356 -0.1393  0.1479  0.0384
 3195SOL    HW113373   3.886   1.759   6.385 -0.3629 -0.0777  0.5967
 3195SOL    HW213374   3.765   1.842   6.420 -0.6663 -0.4018  0.3211
 3196SOL     OW13375  10.174   5.302   7.368 -0.6656  0.4447  0.2484
 3196SOL    HW113376  10.225   5.242   7.421 -0.8906 -0.2660 -0.3266
 3196SOL    HW213377  10.236   5.335   7.303 -0.8812 -0.2664 -0.3260
 3197SOL     OW13378   4.645   8.739   9.177 -0.0496  0.8586  0.5069
 3197SOL    HW113379   4.698   8.816   9.198 -0.1508  1.1736 -0.3553
 3197SOL    HW213380   4.555   8.773   9.171 -0.3808  0.3188  2.0295
 3198SOL     OW13381   6.836   8.328   3.359 -0.4424  0.3648  0.0828
 3198SOL    HW113382   6.795   8.386   3.424 -1.2793 -0.4742  0.3334
 3198SOL    HW213383   6.785   8.343   3.279 -0.5425  0.1136  0.0994
 3199SOL     OW13384   7.726   5.592   0.452  0.7520 -0.3302  0.4582
 3199SOL    HW113385   7.764   5.652   0.388  0.4548  2.5475  2.8065
 3199SOL    HW213386   7.802   5.543   0.485  1.2769  0.0213 -0.1804
 3200SOL     OW13387   4.158   6.577   8.129  0.0320 -0.6386  0.2648
 3200SOL    HW113388   4.087   6.530   8.087 -0.8476  1.2380 -0.4249
 3200SOL    HW213389   4.119   6.659   8.159  1.7370  0.1363  0.4924
 3201SOL     OW13390   9.955   6.920   2.566  0.3736 -0.1718 -0.0938
 3201SOL    HW113391   9.951   7.015   2.555 -1.5795  0.1960  2.5577
 3201SOL    HW213392   9.988   6.908   2.655 -1.0304 -1.8811  0.2521
 3202SOL     OW13393   2.058   3.703   1.458 -0.4635  0.3973 -0.3699
 3202SOL    HW113394   2.077   3.715   1.365  0.7730  0.0211 -0.1785
 3202SOL    HW213395   2.125   3.755   1.503  0.0635 -0.8393  0.3287
 3203SOL     OW13396   6.708   3.436  10.302  0.6657  0.2443  0.1200
 3203SOL    HW113397   6.670   3.377  10.237  1.0805  0.4966 -0.3605
 3203SOL    HW213398   6.662   3.518  10.290 -0.1741 -0.0757  1.0462
 3204SOL     OW13399   0.966   7.597   3.539  0.0022 -0.5489  0.2108
 3204SOL    HW113400   1.000   7.666   3.483 -2.3149  0.3088 -0.2478
 3204SOL    HW213401   1.024   7.522   3.523 -0.4747 -0.3428 -3.3261
 3205SOL     OW13402   9.948   3.513   2.885 -0.0113 -0.4735  0.2269
 3205SOL    HW113403   9.972   3.605   2.897  0.8080 -0.4095 -1.5510
 3205SOL    HW213404   9.914   3.485   2.970  1.2989  0.9962  1.2806
 3206SOL     OW13405   5.745   8.165  10.016  0.3793 -0.2178 -0.1319
 3206SOL    HW113406   5.731   8.253   9.982 -1.1536 -1.0997 -1.9620
 3206SOL    HW213407   5.825   8.135   9.972  1.8241  0.7613  1.6966
 3207SOL     OW13408   8.690   0.706   5.401  0.3821 -0.4514 -0.2805
 3207SOL    HW113409   8.674   0.611   5.393 -0.8556 -0.2166 -0.8299
 3207SOL    HW213410   8.762   0.722   5.340  0.7062 -1.0667 -0.0733
 3208SOL     OW13411   9.114   7.204   3.512 -0.0129  0.0343  0.2272
 3208SOL    HW113412   9.101   7.288   3.555  1.2708  1.1519 -1.4234
 3208SOL    HW213413   9.208   7.202   3.493 -0.0933 -1.6023 -0.1214
 3209SOL     OW13414   5.404   7.600   0.556 -0.2605 -0.0902 -0.4709
 3209SOL    HW113415   5.372   7.661   0.489 -0.1493 -0.1885 -0.6130
 3209SOL    HW213416   5.382   7.643   0.639  1.9297  1.2775 -0.5344
 3210SOL     OW13417   5.240   7.325   7.202  0.0010  0.0648  0.5565
 3210SOL    HW113418   5.144   7.320   7.199 -0.0540 -0.6548 -3.9883
 3210SOL    HW213419   5.260   7.414   7.174  0.6746 -0.1453  0.3579
 3211SOL     OW13420   2.911   3.464   8.758 -0.2304  0.4435  0.2549
 3211SOL    HW113421   2.945   3.460   8.668  1.7972 -0.9225  1.0215
 3211SOL    HW213422   2.819   3.438   8.750  0.1722 -0.6308 -1.3126
 3212SOL     OW13423   0.978   7.040   2.928  0.1516 -0.1026 -0.2570
 3212SOL    HW113424   1.057   6.989   2.910 -0.5098 -1.6354  0.9589
 3212SOL    HW213425   1.005   7.103   2.995  1.3030  2.1663 -2.6607
 3213SOL     OW13426   8.828   7.409   3.589  0.0221  0.2934  0.1618
 3213SOL    HW113427   8.785   7.326   3.610  0.4579 -0.4471 -1.6608
 3213SOL    HW213428   8.895   7.419   3.657 -0.6498 -0.3533  0.9440
 3214SOL     OW13429   5.945   6.084  10.218  0.5021 -0.2298 -0.0839
 3214SOL    HW113430   6.009   6.132  10.165  0.5636 -0.8217 -0.5568
 3214SOL    HW213431   5.862   6.096  10.172  0.3000  0.3792  0.4271
 3215SOL     OW13432   3.835   5.690   4.578 -0.2072 -0.1993  0.5041
 3215SOL    HW113433   3.868   5.678   4.667  1.4899  0.9777  0.0800
 3215SOL    HW213434   3.869   5.616   4.529  1.6509  0.8283  0.1474
 3216SOL     OW13435   4.587   5.463   6.049 -0.5408 -0.3582  0.0041
 3216SOL    HW113436   4.605   5.441   6.140  0.1403 -1.7096 -0.4259
 3216SOL    HW213437   4.649   5.533   6.028 -1.2000  0.4753  0.7697
 3217SOL     OW13438   3.110   2.676   2.038 -0.4114  0.4077 -0.5788
 3217SOL    HW113439   3.168   2.669   2.114  0.2545 -1.0485 -1.1855
 3217SOL    HW213440   3.157   2.734   1.978  0.4790 -0.8133 -1.0921
 3218SOL     OW13441   8.337   6.694   1.335 -0.1512 -0.2106  0.5996
 3218SOL    HW113442   8.379   6.777   1.314 -0.7471 -0.3543 -1.3864
 3218SOL    HW213443   8.376   6.667   1.418  2.2899  0.5691 -0.2182
 3219SOL     OW13444   0.933   7.773   7.686 -1.2554 -0.3239 -0.3620
 3219SOL    HW113445   0.868   7.715   7.646 -0.6820 -0.5050 -1.0431
 3219SOL    HW213446   0.996   7.791   7.616 -1.8939  1.8583 -0.4643
 3220SOL     OW13447   6.509   3.828   4.889  0.2357  0.0036 -0.2294
 3220SOL    HW113448   6.438   3.887   4.863  1.1441  1.0224 -0.4612
 3220SOL    HW213449   6.471   3.775   4.960 -1.2999 -0.7086 -1.4989
 3221SOL     OW13450   9.872   0.306   2.958  0.2942 -0.7671 -0.5115
 3221SOL    HW113451   9.874   0.221   3.003 -0.0338  0.0915  1.2187
 3221SOL    HW213452   9.791   0.347   2.988  1.1795  0.7780 -0.0902
 3222SOL     OW13453   9.624   7.609  10.164  0.3229 -0.1581  0.1057
 3222SOL    HW113454   9.562   7.678  10.187  0.0621 -0.7851  1.3745
 3222SOL    HW213455   9.648   7.569  10.248  3.3913  0.8447 -0.1857
 3223SOL     OW13456   7.726   4.709   7.815 -0.1450 -0.2787  0.4494
 3223SOL    HW113457   7.784   4.761   7.758 -1.1254 -0.1455 -0.4641
 3223SOL    HW213458   7.764   4.718   7.902  1.3550 -0.3971 -0.1478
 3224SOL     OW13459   2.474   1.016   6.279  0.1975  0.5181 -0.2529
 3224SOL    HW113460   2.434   0.946   6.227  0.4124 -1.4948  2.1117
 3224SOL    HW213461   2.410   1.087   6.277 -0.6585 -0.2480 -1.6001
 3225SOL     OW13462  10.199   0.949   1.950 -0.1728  0.0841 -0.2776
 3225SOL    HW113463  10.270   0.902   1.993 -1.4595 -0.8575  0.9304
 3225SOL    HW213464  10.177   1.020   2.011 -0.5603  0.0872 -0.4170
 3226SOL     OW13465   0.145   4.846   2.040  0.0040 -0.0588 -0.0285
 3226SOL    HW113466   0.128   4.940   2.028 -0.0030  0.0353  0.6440
 3226SOL    HW213467   0.211   4.842   2.109 -1.2760 -0.5797  1.2351
 3227SOL     OW13468   9.338   9.238   0.569 -0.3390  0.4240 -0.2151
 3227SOL    HW113469   9.254   9.226   0.524 -1.5413  0.2955  1.9608
 3227SOL    HW213470   9.343   9.331   0.586 -0.1837  0.3838 -0.0446
 3228SOL     OW13471   1.224   0.999   9.551  0.0811 -0.0902 -0.2614
 3228SOL    HW113472   1.136   1.002   9.515 -0.5334 -0.1766  1.1599
 3228SOL    HW213473   1.212   1.017   9.644  1.2190 -2.7831  0.5100
 3229SOL     OW13474   7.095   7.156  10.205 -0.4360  0.9292 -0.3790
 3229SOL    HW113475   7.175   7.189  10.246  0.0026 -0.4827 -0.0588
 3229SOL    HW213476   7.116   7.151  10.112 -0.2866  0.9083 -0.3429
 3230SOL     OW13477   4.825   2.985   9.034 -0.5332 -0.5212  0.1678
 3230SOL    HW113478   4.818   2.986   8.939 -2.0248  0.2364  0.2487
 3230SOL    HW213479   4.747   2.937   9.063 -1.0361  0.7530  1.0286
 3231SOL     OW13480   6.884   0.033   3.848  0.6285  0.6513 -0.0070
 3231SOL    HW113481   6.901   0.114   3.800  2.7518 -0.0709 -0.5897
 3231SOL    HW213482   6.839  -0.023   3.785  1.4891  0.4729 -0.4787
 3232SOL     OW13483   3.327   9.467   2.995  0.3774 -0.1171 -0.6586
 3232SOL    HW113484   3.411   9.445   2.954 -0.5103  0.5011 -2.9668
 3232SOL    HW213485   3.266   9.401   2.961 -0.6070  1.0512 -1.2331
 3233SOL     OW13486   7.720   4.696   1.314  0.9739  0.6860  0.1052
 3233SOL    HW113487   7.696   4.730   1.400 -1.6245  0.8646 -0.6179
 3233SOL    HW213488   7.697   4.603   1.318  2.9180  0.1584  0.2593
 3234SOL     OW13489   7.657   5.913   7.153 -0.6899 -0.5235 -0.3915
 3234SOL    HW113490   7.585   5.850   7.142 -1.8245  1.0370 -2.7663
 3234SOL    HW213491   7.702   5.913   7.069  0.6272  0.3129  0.2806
 3235SOL     OW13492  10.355   6.002   5.305 -0.6903 -0.0131  0.3649
 3235SOL    HW113493  10.395   5.930   5.256 -1.6301  0.3074 -0.9339
 3235SOL    HW213494  10.423   6.070   5.306 -0.0977 -0.5990  0.8817
 3236SOL     OW13495   1.181   7.092   4.567 -0.5641 -0.7071  0.0555
 3236SOL    HW113496   1.176   7.020   4.504 -0.8579  0.8325 -1.7504
 3236SOL    HW213497   1.228   7.161   4.521 -0.4178  0.3426  1.7024
 3237SOL     OW13498  10.013   1.579   4.255  0.1187 -0.4435 -0.6683
 3237SOL    HW113499   9.929   1.534   4.267  0.4525 -1.4034 -1.7674
 3237SOL    HW213500   9.992   1.653   4.198 -0.4907  1.0692  1.3906
 3238SOL     OW13501   8.640   0.527   9.584  0.0431 -0.4743 -0.3656
 3238SOL    HW113502   8.589   0.548   9.663 -1.0322 -0.6485 -0.9920
 3238SOL    HW213503   8.706   0.596   9.579  0.7075 -0.9425  1.1658
 3239SOL     OW13504   4.876   4.610   7.715 -0.0493  0.1585  0.1334
 3239SOL    HW113505   4.805   4.663   7.751  1.6311  1.4344  1.7711
 3239SOL    HW213506   4.866   4.524   7.756 -0.1908  0.5676  0.9594
 3240SOL     OW13507   2.630  10.144   9.152  0.5033 -0.8941  0.0141
 3240SOL    HW113508   2.564  10.192   9.202  1.8555  0.0542  0.9886
 3240SOL    HW213509   2.582  10.074   9.108 -0.8956 -1.2281  1.9436
 3241SOL     OW13510   5.938   7.093   0.751  0.0108 -0.5129  0.2718
 3241SOL    HW113511   5.972   7.152   0.685 -0.6264 -0.7095 -0.2435
 3241SOL    HW213512   6.011   7.080   0.812  1.0842 -1.4455 -1.1532
 3242SOL     OW13513   6.348   1.433   5.422  0.2026 -0.5637  0.4096
 3242SOL    HW113514   6.349   1.429   5.326 -0.5992  1.1376  0.2856
 3242SOL    HW213515   6.381   1.348   5.450  0.8761 -0.9411 -1.3773
 3243SOL     OW13516   9.426   7.824   6.360 -0.0701  0.1338  0.0244
 3243SOL    HW113517   9.502   7.776   6.390  0.9391  0.9653 -1.0896
 3243SOL    HW213518   9.359   7.808   6.427  1.7931  1.2966  2.3229
 3244SOL     OW13519   3.213   2.445   8.795 -0.3937  0.6406  0.1022
 3244SOL    HW113520   3.302   2.411   8.790 -0.0250  1.6689 -0.7362
 3244SOL    HW213521   3.158   2.373   8.764  0.3460  0.6675 -1.3976
 3245SOL     OW13522   8.326   2.830   2.786  1.3080 -0.2718  0.6585
 3245SOL    HW113523   8.371   2.762   2.737  1.0768  0.0530 -0.0169
 3245SOL    HW213524   8.297   2.892   2.720  0.7002  0.0094  1.1768
 3246SOL     OW13525   6.373   4.725   5.635 -0.0898  0.3592  0.0109
 3246SOL    HW113526   6.302   4.769   5.589 -0.2517 -0.6383 -0.7342
 3246SOL    HW213527   6.349   4.632   5.632  1.7509 -0.1224 -1.1903
 3247SOL     OW13528   9.633   6.739   9.318 -0.6604 -0.4742  0.1682
 3247SOL    HW113529   9.559   6.686   9.350 -1.1275  1.2174  2.1182
 3247SOL    HW213530   9.679   6.766   9.398  0.1062  1.2427 -0.8118
 3248SOL     OW13531   3.273   3.569   0.997  0.0443 -0.3682  0.2262
 3248SOL    HW113532   3.322   3.650   1.007  1.0381 -0.5378 -2.4536
 3248SOL    HW213533   3.182   3.593   1.012  0.4252  1.0437  0.3850
 3249SOL     OW13534   4.785   0.879   1.569  0.0103 -0.1277 -0.2420
 3249SOL    HW113535   4.859   0.832   1.607  0.4296 -0.1673 -1.0983
 3249SOL    HW213536   4.748   0.928   1.643  0.3461 -0.7877  0.3804
 3250SOL     OW13537   8.115   8.970   8.586 -0.0135 -0.5903  0.5745
 3250SOL    HW113538   8.207   8.996   8.580  0.1763 -1.1160  1.1385
 3250SOL    HW213539   8.081   9.018   8.662 -0.4761  0.3539 -0.1955
 3251SOL     OW13540   5.635   5.784   9.462 -0.0267 -0.5357  0.1939
 3251SOL    HW113541   5.564   5.825   9.511 -1.3665 -1.3326 -1.0007
 3251SOL    HW213542   5.655   5.847   9.392  0.3227 -0.3909  0.4238
 3252SOL     OW13543   5.959   2.436   8.716 -0.0677  0.0142 -0.3354
 3252SOL    HW113544   5.917   2.357   8.749  1.9886 -1.4117 -0.9106
 3252SOL    HW213545   5.928   2.444   8.626 -0.5155  0.0364 -0.1804
 3253SOL     OW13546   2.439   6.581   6.919  0.1686 -0.3563 -0.1622
 3253SOL    HW113547   2.362   6.527   6.932 -0.5476  1.0167  1.7138
 3253SOL    HW213548   2.487   6.538   6.848 -2.6834 -0.7947 -1.9477
 3254SOL     OW13549  10.019   8.723   4.996  0.3387 -0.2906 -0.3400
 3254SOL    HW113550  10.003   8.740   4.904 -0.7335 -0.9717 -0.2913
 3254SOL    HW213551  10.112   8.697   5.000 -0.0060 -1.8603 -1.4800
 3255SOL     OW13552   8.918   7.748   8.751 -0.1093 -0.0227  0.1149
 3255SOL    HW113553   8.904   7.655   8.736 -1.3926  0.1555  0.1202
 3255SOL    HW213554   8.906   7.760   8.845  1.5057 -0.0656  0.3624
 3256SOL     OW13555   6.924   0.204   5.687 -0.1555 -1.0247 -0.2968
 3256SOL    HW113556   6.962   0.292   5.686 -0.7388 -0.7681 -0.5142
 3256SOL    HW213557   6.960   0.163   5.765 -1.3081  0.0624  0.8599
 3257SOL     OW13558   5.005   6.182  10.185 -0.6546  0.0023  0.2207
 3257SOL    HW113559   4.978   6.155  10.097  1.7291 -0.5198 -0.4206
 3257SOL    HW213560   5.080   6.240  10.170  0.0037 -0.3656  1.9104
 3258SOL     OW13561   7.836   4.602   2.471  0.0723 -0.0409  0.1575
 3258SOL    HW113562   7.832   4.666   2.400 -0.2794 -1.0135 -0.7156
 3258SOL    HW213563   7.900   4.639   2.532  1.5909  0.0714 -1.4186
 3259SOL     OW13564   3.124   9.293   2.853 -0.3825 -0.4812 -0.1746
 3259SOL    HW113565   3.087   9.208   2.878 -1.0487 -1.3443 -3.5493
 3259SOL    HW213566   3.063   9.357   2.888 -1.6646 -1.5838 -0.3058
 3260SOL     OW13567   2.629   7.716   6.746  0.3254  0.1668 -0.1755
 3260SOL    HW113568   2.539   7.683   6.747  0.8956 -1.5506 -0.8761
 3260SOL    HW213569   2.676   7.653   6.692  2.1590  0.4824  0.9795
 3261SOL     OW13570   7.825   8.642   7.066  0.1944 -0.1502 -0.5010
 3261SOL    HW113571   7.909   8.649   7.111 -1.1596 -2.0192  2.6299
 3261SOL    HW213572   7.783   8.726   7.082  0.6149  0.0048 -0.1814
 3262SOL     OW13573   7.882   5.553  10.263  0.0159 -0.0197 -0.0011
 3262SOL    HW113574   7.947   5.501  10.215  0.2740  0.3782 -0.0948
 3262SOL    HW213575   7.872   5.508  10.347 -0.1436 -0.4994 -0.2749
 3263SOL     OW13576   6.215   6.172   8.498 -0.3128  0.0236 -0.0677
 3263SOL    HW113577   6.231   6.160   8.405  1.6686 -0.2681  0.2494
 3263SOL    HW213578   6.191   6.085   8.530  0.4240 -0.1957 -0.0860
 3264SOL     OW13579   7.745   9.265   4.646  0.4769 -0.0161  0.4153
 3264SOL    HW113580   7.736   9.245   4.552  0.3287  0.7817  0.2556
 3264SOL    HW213581   7.682   9.335   4.662  0.6262 -0.0293  1.0792
 3265SOL     OW13582   3.123   9.321   0.089 -0.1707  0.7376  0.1894
 3265SOL    HW113583   3.194   9.273   0.131 -0.7347 -0.8376 -0.5636
 3265SOL    HW213584   3.045   9.268   0.107 -1.0830  2.1305  0.5138
 3266SOL     OW13585   4.735   0.628   0.774 -0.0264 -0.8095  0.1920
 3266SOL    HW113586   4.750   0.614   0.868 -0.3725 -0.4833  0.2974
 3266SOL    HW213587   4.812   0.677   0.745 -1.4606  2.2322  1.0488
 3267SOL     OW13588   3.108   2.834   6.358 -0.4941  0.5898  0.1559
 3267SOL    HW113589   3.159   2.830   6.276 -1.3892 -0.3308 -0.3839
 3267SOL    HW213590   3.032   2.779   6.341  0.5106 -1.7129  2.4625
 3268SOL     OW13591  10.307   5.690   2.731 -0.8199  0.1082  0.2226
 3268SOL    HW113592  10.316   5.762   2.793 -0.2908  0.3422 -0.1128
 3268SOL    HW213593  10.263   5.621   2.780  1.0895 -0.3486  1.4181
 3269SOL     OW13594   9.048   4.398   1.017  0.6016  0.2670  0.2085
 3269SOL    HW113595   8.974   4.408   0.957 -0.6415  0.4709  1.6917
 3269SOL    HW213596   9.107   4.469   0.995  0.6132 -0.1885 -1.3348
 3270SOL     OW13597   1.139   3.326   2.043 -0.1131 -0.1889 -0.4848
 3270SOL    HW113598   1.127   3.421   2.043 -0.0385 -0.1802 -0.4316
 3270SOL    HW213599   1.052   3.291   2.023 -0.3365 -0.1342  0.3585
 3271SOL     OW13600   1.416   3.426   3.936 -0.0653 -0.2228 -0.4403
 3271SOL    HW113601   1.469   3.404   3.860 -1.0813  0.9278 -1.5272
 3271SOL    HW213602   1.344   3.479   3.901  0.1977  1.5393  1.4806
 3272SOL     OW13603   2.779   7.765   4.267 -0.2067  0.0398 -0.2921
 3272SOL    HW113604   2.862   7.721   4.286 -1.4425 -1.7930  1.3709
 3272SOL    HW213605   2.797   7.819   4.190  2.0690 -1.6078 -1.0390
 3273SOL     OW13606   4.940   7.151   9.501  0.4204  0.0822  0.1931
 3273SOL    HW113607   4.997   7.207   9.554  0.3074  3.1380 -2.5712
 3273SOL    HW213608   4.852   7.180   9.524  0.3179  0.3535 -0.5214
 3274SOL     OW13609   9.370   6.591   5.490  0.0025 -0.3228 -0.2509
 3274SOL    HW113610   9.383   6.515   5.433 -0.1656 -0.7104  0.2295
 3274SOL    HW213611   9.363   6.665   5.429 -1.5476 -0.9039 -0.8292
 3275SOL     OW13612   3.744   6.388   4.996 -0.2737 -0.7118 -0.4671
 3275SOL    HW113613   3.711   6.339   4.921  0.1633 -1.5363 -0.1306
 3275SOL    HW213614   3.837   6.365   5.002 -0.0334  0.2219 -0.3431
 3276SOL     OW13615   8.616   0.425   9.080  0.0714 -0.3257 -0.2468
 3276SOL    HW113616   8.624   0.330   9.087 -0.3809 -0.3696 -0.3327
 3276SOL    HW213617   8.706   0.457   9.091  0.5228 -0.8646 -1.9055
 3277SOL     OW13618   3.313   9.871   1.770 -0.3793 -0.3695 -0.0449
 3277SOL    HW113619   3.297   9.965   1.771 -1.2848 -0.5096 -0.1442
 3277SOL    HW213620   3.369   9.856   1.694  1.1656  0.2808  0.9232
 3278SOL     OW13621   1.167   8.906   5.263 -0.3871 -0.0833 -0.0233
 3278SOL    HW113622   1.106   8.977   5.246 -0.5397 -0.5589 -1.7125
 3278SOL    HW213623   1.133   8.862   5.341 -0.9987  0.9111  0.2819
 3279SOL     OW13624   7.520   7.802   9.085 -0.1088  0.4341  0.2726
 3279SOL    HW113625   7.455   7.755   9.033 -0.2117  0.6489  0.2060
 3279SOL    HW213626   7.504   7.774   9.175 -1.0621  1.3683  0.4117
 3280SOL     OW13627   9.232   5.462   4.430  0.1256  0.3140 -0.1712
 3280SOL    HW113628   9.178   5.540   4.443  0.4526  0.6253 -0.6591
 3280SOL    HW213629   9.174   5.398   4.389 -0.2236  0.1950  0.5010
 3281SOL     OW13630   1.019   0.743   8.247 -0.2873 -1.0430 -0.2461
 3281SOL    HW113631   1.077   0.798   8.194 -1.1098  1.4199  1.2438
 3281SOL    HW213632   1.071   0.665   8.267  2.1705  0.6219  0.2348
 3282SOL     OW13633   1.393  10.326   7.951  0.0951 -0.6741  0.0609
 3282SOL    HW113634   1.362  10.285   7.870  2.5126 -1.2484 -0.6493
 3282SOL    HW213635   1.470  10.377   7.925  0.4859 -0.2527  1.8738
 3283SOL     OW13636   0.937   2.331   7.042  0.4907  0.1122 -0.4602
 3283SOL    HW113637   0.901   2.373   7.120  2.4350  0.3863  0.3399
 3283SOL    HW213638   0.861   2.293   6.998 -0.7011  0.2712  1.3653
 3284SOL     OW13639   1.758   2.728   8.394  0.4542 -0.1137  0.0751
 3284SOL    HW113640   1.714   2.676   8.326  1.5697 -1.5632  0.4047
 3284SOL    HW213641   1.714   2.702   8.475 -0.6543  1.3712 -0.0079
 3285SOL     OW13642   2.693   7.758   8.465  0.0319 -0.0653  0.3894
 3285SOL    HW113643   2.668   7.765   8.373  0.6847 -2.0270  0.0240
 3285SOL    HW213644   2.641   7.685   8.498 -0.7041  1.0500  1.7971
 3286SOL     OW13645   1.503   6.440   3.810 -0.1426  0.0237  0.0441
 3286SOL    HW113646   1.418   6.404   3.833 -0.5276  0.3393 -0.8463
 3286SOL    HW213647   1.508   6.434   3.715  0.7709  0.1417  0.0667
 3287SOL     OW13648   1.662  10.093   0.762  0.0652 -0.4915  0.2701
 3287SOL    HW113649   1.698  10.007   0.740  0.0190 -0.1315 -1.3265
 3287SOL    HW213650   1.594  10.108   0.696  1.5036  1.6498 -0.8181
 3288SOL     OW13651   0.992   7.042   7.260 -0.1244  0.3877  0.0223
 3288SOL    HW113652   1.080   7.070   7.287 -0.6621  1.4299  0.7335
 3288SOL    HW213653   1.006   7.001   7.175  1.0584  0.5208  0.1292
 3289SOL     OW13654   0.912   7.619   6.165 -0.4907 -0.3924 -0.5959
 3289SOL    HW113655   0.958   7.537   6.147  0.5264  0.1272 -0.3653
 3289SOL    HW213656   0.952   7.683   6.106 -1.9165 -0.2519 -1.4619
 3290SOL     OW13657   5.935   8.842   0.287  0.2957 -0.0250  0.1446
 3290SOL    HW113658   6.016   8.894   0.285  0.3493 -0.0771 -2.2826
 3290SOL    HW213659   5.889   8.871   0.366  1.4266  1.9581  0.1300
 3291SOL     OW13660   1.579   7.037   0.248 -0.6694 -0.1400 -0.9977
 3291SOL    HW113661   1.651   7.091   0.215 -0.7573  0.2950 -0.4804
 3291SOL    HW213662   1.530   7.012   0.169 -0.4345  0.2593 -1.2730
 3292SOL     OW13663   9.000   6.954   3.124  0.3000  0.1587 -0.3187
 3292SOL    HW113664   8.960   6.957   3.211 -1.0157  0.5296 -0.9058
 3292SOL    HW213665   8.933   6.913   3.069  1.0332  0.1194 -1.1905
 3293SOL     OW13666   1.094   6.325   7.898 -0.0323 -0.1609  0.5912
 3293SOL    HW113667   1.167   6.303   7.840 -0.0349  1.8656 -0.2524
 3293SOL    HW213668   1.017   6.325   7.842 -0.4033 -0.4925  1.0921
 3294SOL     OW13669   8.346   6.503   8.871  0.0475 -0.0278  0.4849
 3294SOL    HW113670   8.308   6.529   8.787 -0.0385  1.9855  1.0849
 3294SOL    HW213671   8.393   6.422   8.852 -0.5160  0.0220 -1.3536
 3295SOL     OW13672   9.150   9.162   5.430 -0.1264 -0.5687 -0.6302
 3295SOL    HW113673   9.204   9.240   5.440 -1.1425  0.1929 -0.9154
 3295SOL    HW213674   9.206   9.100   5.383  0.8660 -0.2117  0.0512
 3296SOL     OW13675   8.009   5.636   7.067 -0.2251 -0.2398 -0.3385
 3296SOL    HW113676   7.918   5.609   7.066 -0.2783 -0.0724 -0.0013
 3296SOL    HW213677   8.051   5.582   7.000 -0.3184 -1.2066  0.3670
 3297SOL     OW13678   2.160   0.379   7.081  0.3706 -0.1498 -0.7377
 3297SOL    HW113679   2.066   0.362   7.091  0.2561  0.1633 -1.2451
 3297SOL    HW213680   2.175   0.461   7.129  0.5425 -0.6142  0.0190
 3298SOL     OW13681   7.947   3.436   3.988  0.2496  1.0575 -0.0524
 3298SOL    HW113682   7.957   3.351   3.944  2.7754  1.9921 -1.5098
 3298SOL    HW213683   7.858   3.435   4.022  0.3014 -2.3207  0.3380
 3299SOL     OW13684   7.382   4.958  10.100 -0.0773 -0.2821  0.0800
 3299SOL    HW113685   7.326   4.913  10.037 -0.0022  0.0206 -0.2084
 3299SOL    HW213686   7.336   4.951  10.183 -0.1905 -0.6649 -0.0114
 3300SOL     OW13687   8.765   1.272   3.557 -0.0946  0.3175 -0.2302
 3300SOL    HW113688   8.744   1.262   3.464 -0.3928 -0.4108 -0.0917
 3300SOL    HW213689   8.776   1.366   3.569  0.8403  0.3529 -1.1930
 3301SOL     OW13690   0.398   2.413   0.796 -0.0561  0.1214  0.2867
 3301SOL    HW113691   0.457   2.392   0.723 -1.6920  0.9164 -1.3643
 3301SOL    HW213692   0.384   2.507   0.788 -0.1054  0.2523  1.7851
 3302SOL     OW13693   7.239   9.109   4.893  0.1866 -0.3226 -0.4565
 3302SOL    HW113694   7.259   9.046   4.823 -0.9846  0.3427 -1.4420
 3302SOL    HW213695   7.243   9.194   4.849 -1.2155  0.0617  0.1178
 3303SOL     OW13696   6.580   8.945   1.714 -0.5849  0.2040 -0.5256
 3303SOL    HW113697   6.521   8.884   1.759 -0.5606  0.1600 -0.5526
 3303SOL    HW213698   6.664   8.935   1.758 -0.3117 -0.5357 -1.1794
 3304SOL     OW13699   1.257   3.919   6.976 -0.4479  0.8053  0.9404
 3304SOL    HW113700   1.261   4.010   6.947  0.3584  1.0178  1.7029
 3304SOL    HW213701   1.312   3.872   6.913 -2.4732  0.4645 -0.7128
 3305SOL     OW13702   3.825   5.372   3.421  0.4033  0.3516 -0.3074
 3305SOL    HW113703   3.794   5.302   3.477  0.4282 -0.8688 -1.7688
 3305SOL    HW213704   3.918   5.382   3.444  1.3774 -2.5282 -2.3931
 3306SOL     OW13705   7.392  10.164   2.030 -0.1150  0.0194 -0.4912
 3306SOL    HW113706   7.485  10.150   2.047 -0.0103  1.6122  0.4389
 3306SOL    HW213707   7.390  10.214   1.948 -0.0282  1.4783  0.3685
 3307SOL     OW13708   3.355   6.691   0.899  0.5252  0.1463  0.1249
 3307SOL    HW113709   3.265   6.686   0.868  0.6629  0.6235 -0.3798
 3307SOL    HW213710   3.349   6.729   0.986  0.4216  3.2471 -1.1086
 3308SOL     OW13711   4.946   1.191   2.889 -0.1068  0.0680 -0.6505
 3308SOL    HW113712   5.007   1.133   2.844 -1.3691 -1.7249 -0.1546
 3308SOL    HW213713   5.002   1.251   2.938  1.2436 -0.5176 -1.4151
 3309SOL     OW13714  10.301   8.207   0.965 -0.0913  0.0967  0.0375
 3309SOL    HW113715  10.212   8.173   0.976  0.2622 -0.3561  1.7778
 3309SOL    HW213716  10.309   8.275   1.031  0.4110  1.1549 -1.0618
 3310SOL     OW13717   5.607   8.508   9.368 -0.4115  0.0073 -0.3743
 3310SOL    HW113718   5.513   8.490   9.358 -0.5614 -1.2932  2.2764
 3310SOL    HW213719   5.649   8.424   9.347 -0.0369  0.0034  0.3630
 3311SOL     OW13720   4.984   9.158   3.541 -0.3129 -0.0166 -0.0178
 3311SOL    HW113721   5.068   9.158   3.588  2.1533  2.5048 -3.8422
 3311SOL    HW213722   4.928   9.218   3.590  1.6154  1.4189  0.5536
 3312SOL     OW13723   2.371   8.595   7.542  0.0968 -0.0226 -0.0716
 3312SOL    HW113724   2.280   8.604   7.516  0.3068  1.8173 -0.3404
 3312SOL    HW213725   2.377   8.641   7.626  0.6665 -0.6166  0.2262
 3313SOL     OW13726   6.398   0.890   0.468  0.5018  0.1486 -0.2664
 3313SOL    HW113727   6.398   0.923   0.378 -0.1994 -0.6321 -0.5728
 3313SOL    HW213728   6.426   0.799   0.460  0.0983 -0.0267  0.2620
 3314SOL     OW13729   3.365   5.141   9.496  0.0167 -0.5279  0.2842
 3314SOL    HW113730   3.407   5.217   9.536  0.1225  0.4625 -1.5846
 3314SOL    HW213731   3.437   5.088   9.462 -0.1062 -0.3876 -0.2183
 3315SOL     OW13732   3.891   6.797   7.414 -0.5635  0.5484  0.2284
 3315SOL    HW113733   3.805   6.825   7.446 -0.6325 -1.3297  1.8420
 3315SOL    HW213734   3.928   6.746   7.486  1.1433 -0.2246 -1.1261
 3316SOL     OW13735   0.769   3.067   8.277  0.3371 -0.0032  0.4709
 3316SOL    HW113736   0.674   3.072   8.280  0.2755 -0.4248 -0.4179
 3316SOL    HW213737   0.798   3.159   8.280 -0.2606  0.4124 -2.7991
 3317SOL     OW13738   9.987   9.293   5.013 -0.0248 -0.3252  0.1638
 3317SOL    HW113739   9.944   9.302   4.928 -1.1514 -0.4527  0.7092
 3317SOL    HW213740  10.029   9.207   5.009  0.9925  0.1958 -0.7204
 3318SOL     OW13741   3.278   6.507   2.733  0.8069  0.4584 -0.0734
 3318SOL    HW113742   3.329   6.478   2.657 -0.1216  0.4443 -0.7183
 3318SOL    HW213743   3.338   6.561   2.784  1.0212  1.7829 -1.6425
 3319SOL     OW13744   0.684   1.110   2.990  0.4399  0.3208 -0.2412
 3319SOL    HW113745   0.761   1.167   2.993  0.0999  0.8258 -0.8662
 3319SOL    HW213746   0.699   1.046   3.060  0.6782  1.3679  0.6965
 3320SOL     OW13747   8.665   2.886   3.981 -0.3416 -0.1127  0.4054
 3320SOL    HW113748   8.629   2.799   3.964  1.3700 -0.6381 -0.8034
 3320SOL    HW213749   8.754   2.882   3.947 -0.1989  2.1106  0.3843
 3321SOL     OW13750   3.770   2.599   4.923  0.4258 -0.3726  0.2332
 3321SOL    HW113751   3.839   2.559   4.976  1.8519 -1.1419 -2.0168
 3321SOL    HW213752   3.816   2.627   4.843 -1.5922  0.6269 -0.6356
 3322SOL     OW13753   4.708   6.345   5.537  0.2211  0.1288  0.3197
 3322SOL    HW113754   4.679   6.436   5.538  0.3544  0.2066 -0.8776
 3322SOL    HW213755   4.802   6.351   5.521 -0.0308 -0.2146 -1.6105
 3323SOL     OW13756   6.558   6.575   8.952  0.2971  0.0223 -0.0548
 3323SOL    HW113757   6.478   6.559   8.903 -0.2994  1.6541  0.2958
 3323SOL    HW213758   6.627   6.533   8.902 -0.4665  0.5724 -1.6176
 3324SOL     OW13759   0.297   6.474   9.249  0.1872  0.3619  0.4375
 3324SOL    HW113760   0.372   6.473   9.190  0.7105  0.6416  1.0888
 3324SOL    HW213761   0.239   6.405   9.216  0.5279  0.4267 -0.3173
 3325SOL     OW13762   5.915   8.112   9.579 -0.2334 -0.0755 -0.1902
 3325SOL    HW113763   5.922   8.054   9.503  0.4834  1.5447 -1.4136
 3325SOL    HW213764   5.969   8.187   9.557 -2.2145  1.7344  0.7235
 3326SOL     OW13765   1.110   3.489   7.249  0.7480 -0.7733  0.1216
 3326SOL    HW113766   1.172   3.440   7.196  1.7542 -0.2539  0.7889
 3326SOL    HW213767   1.163   3.553   7.295 -0.5519  1.1597 -0.9319
 3327SOL     OW13768   0.461  10.006   7.349 -0.7151  0.2242  0.5269
 3327SOL    HW113769   0.439  10.059   7.273 -0.1646  0.6972  0.6960
 3327SOL    HW213770   0.556  10.010   7.356 -0.3280 -3.0074 -1.0586
 3328SOL     OW13771   4.044   0.016   7.845  0.2191  0.7992  0.7524
 3328SOL    HW113772   3.977   0.083   7.844  1.4445  2.0898 -0.7198
 3328SOL    HW213773   4.068   0.007   7.937 -3.4087 -1.3364  1.6887
 3329SOL     OW13774   1.386   8.656   1.567 -0.0397  0.0388  0.0215
 3329SOL    HW113775   1.393   8.660   1.472 -1.5893 -0.4183 -0.1373
 3329SOL    HW213776   1.349   8.741   1.592  2.1881  0.9673  0.4648
 3330SOL     OW13777   4.419   2.283   9.933  0.3593  0.0111  0.0858
 3330SOL    HW113778   4.390   2.262  10.022  0.4409  2.2241  0.6949
 3330SOL    HW213779   4.512   2.262   9.933  0.4269  0.3018  0.6233
 3331SOL     OW13780   2.847   6.302   6.810  0.2022  0.0329 -0.0793
 3331SOL    HW113781   2.829   6.209   6.820 -0.7616  0.1920 -0.2200
 3331SOL    HW213782   2.934   6.306   6.772  0.4346 -0.7971  0.3546
 3332SOL     OW13783   3.052   7.407   1.381 -0.1580 -0.0949 -0.0664
 3332SOL    HW113784   3.092   7.321   1.366 -0.0692 -0.2377  0.8754
 3332SOL    HW213785   3.107   7.468   1.333  0.6915 -0.3919  0.5026
 3333SOL     OW13786   5.498   3.442   0.420  0.0892 -0.2254 -0.5805
 3333SOL    HW113787   5.504   3.473   0.329 -0.0034 -0.4409 -0.6589
 3333SOL    HW213788   5.413   3.472   0.450 -1.3204 -2.8895 -1.5843
 3334SOL     OW13789   0.783   6.403   6.235 -0.2035 -0.0271 -0.6746
 3334SOL    HW113790   0.761   6.492   6.206  0.2436  0.3704  0.1853
 3334SOL    HW213791   0.829   6.365   6.161  3.6424  1.9891  0.4093
 3335SOL     OW13792   0.867   9.805   0.229 -0.7205  0.4848 -0.1966
 3335SOL    HW113793   0.942   9.807   0.288 -0.7297 -1.5823 -0.0373
 3335SOL    HW213794   0.792   9.828   0.285 -0.5030  0.2694  0.1885
 3336SOL     OW13795   9.783   6.616   0.085  0.5757 -0.3557 -0.0065
 3336SOL    HW113796   9.805   6.678   0.155 -0.4294 -0.9556  0.8745
 3336SOL    HW213797   9.742   6.542   0.131  0.0138 -0.8200 -1.2224
 3337SOL     OW13798   1.935   1.039   0.441 -0.3780  0.3552 -0.2508
 3337SOL    HW113799   1.890   0.973   0.389 -0.5230 -0.4157  0.8222
 3337SOL    HW213800   2.011   0.994   0.477  1.3864  1.6600 -2.1189
 3338SOL     OW13801   4.314   5.451   1.155  0.1391 -1.1235 -0.2869
 3338SOL    HW113802   4.341   5.394   1.227  0.5991 -1.8561 -1.0146
 3338SOL    HW213803   4.382   5.519   1.151 -0.2385 -0.6955  0.3761
 3339SOL     OW13804   8.677   0.634   3.489  0.2299  0.0616 -0.1569
 3339SOL    HW113805   8.623   0.658   3.564 -1.4217 -0.5006 -1.1182
 3339SOL    HW213806   8.670   0.710   3.430  3.8615  1.8131  1.3548
 3340SOL     OW13807   9.596   6.202   2.125  0.1423  0.1904  0.4708
 3340SOL    HW113808   9.647   6.121   2.118 -1.0977 -0.6689  0.9600
 3340SOL    HW213809   9.506   6.172   2.138 -0.3327  1.6620  0.7347
 3341SOL     OW13810   3.925   9.901   4.617 -0.0187  0.5800  0.4098
 3341SOL    HW113811   3.899   9.984   4.576  1.2266  0.4643 -0.6807
 3341SOL    HW213812   4.005   9.923   4.664  1.1697 -0.2822 -1.1182
 3342SOL     OW13813   8.257   2.962   5.400 -0.6169  0.2141 -0.5357
 3342SOL    HW113814   8.167   2.982   5.375 -1.5024 -3.2818 -0.6786
 3342SOL    HW213815   8.252   2.944   5.494 -0.4315 -1.3966 -0.8037
 3343SOL     OW13816   9.269   2.023   1.064 -0.0135  0.0722  0.1404
 3343SOL    HW113817   9.351   1.973   1.068  0.4387  0.8648  1.5025
 3343SOL    HW213818   9.229   2.011   1.150  0.3874  2.4536  0.7338
 3344SOL     OW13819   2.383   0.622   7.586 -0.1700 -0.0095 -0.2432
 3344SOL    HW113820   2.352   0.686   7.651 -0.1224 -0.1455 -0.0855
 3344SOL    HW213821   2.380   0.669   7.503  0.3498  0.3579 -0.0550
 3345SOL     OW13822   3.104   6.519   7.049 -0.3389 -0.3394 -0.0727
 3345SOL    HW113823   3.154   6.485   6.974  0.7611  0.0067  0.4813
 3345SOL    HW213824   3.080   6.608   7.023  0.4605 -0.0450  0.1600
 3346SOL     OW13825   6.572   7.816   2.331  0.2948  0.5946  0.4249
 3346SOL    HW113826   6.602   7.775   2.412  1.6669  0.5954 -0.0680
 3346SOL    HW213827   6.500   7.874   2.359  0.0723 -0.1624  1.4835
 3347SOL     OW13828   5.727   6.004   7.610  0.0159 -0.5498  0.7227
 3347SOL    HW113829   5.767   6.015   7.696  0.9978 -2.1331  0.4985
 3347SOL    HW213830   5.786   6.050   7.551 -0.9511  1.0262  0.9063
 3348SOL     OW13831   6.374   2.807  10.322  0.3451  0.0959  0.0398
 3348SOL    HW113832   6.409   2.748  10.255  1.9790  0.3682  0.5866
 3348SOL    HW213833   6.294   2.842  10.284  0.6622 -0.5789 -1.3210
 3349SOL     OW13834   0.127   7.104   8.199  0.1817  0.0669  0.2202
 3349SOL    HW113835   0.115   7.130   8.108 -2.1580  0.1226  0.4909
 3349SOL    HW213836   0.138   7.009   8.196 -0.8458 -0.0541 -0.0759
 3350SOL     OW13837   1.219   4.040   0.432 -0.0970 -0.2673  0.1884
 3350SOL    HW113838   1.139   4.043   0.379 -0.0211 -1.8466 -0.0708
 3350SOL    HW213839   1.195   3.989   0.509  0.1053  1.0620  1.1772
 3351SOL     OW13840   7.064   2.732   7.203  0.1322 -0.1148 -0.3600
 3351SOL    HW113841   7.097   2.681   7.129 -1.0535 -1.4617 -0.0081
 3351SOL    HW213842   7.015   2.804   7.164  1.3467  0.4542 -0.8687
 3352SOL     OW13843   1.062   3.534   2.833 -0.5858  0.3718  0.0279
 3352SOL    HW113844   1.078   3.504   2.922 -2.0551 -2.0717 -0.4604
 3352SOL    HW213845   1.148   3.563   2.802  0.3450 -0.6700  1.5371
 3353SOL     OW13846   9.755   5.705   5.362  0.1744  0.3786 -0.3005
 3353SOL    HW113847   9.806   5.783   5.342 -1.1345  1.2204 -0.5207
 3353SOL    HW213848   9.804   5.633   5.323  0.4336  1.3398 -1.8250
 3354SOL     OW13849   6.736   8.040   2.396 -0.1203  0.0986 -0.0818
 3354SOL    HW113850   6.674   8.071   2.461  0.0568 -0.7996  0.5413
 3354SOL    HW213851   6.696   7.960   2.360 -1.3128  1.7680 -2.7789
 3355SOL     OW13852   9.949   3.471   3.592  0.0104  0.4916  0.2793
 3355SOL    HW113853   9.950   3.396   3.651  2.7557 -0.0350 -0.2800
 3355SOL    HW213854  10.024   3.456   3.533 -2.9382  0.5647 -3.9488
 3356SOL     OW13855   2.851   1.290   6.055  0.1896  0.4570 -0.2532
 3356SOL    HW113856   2.820   1.243   6.132 -1.8320 -0.2392 -1.4152
 3356SOL    HW213857   2.820   1.379   6.067  3.5462  1.5635  1.6801
 3357SOL     OW13858  10.328   1.477   5.740 -0.1367  0.1912  0.4349
 3357SOL    HW113859  10.365   1.559   5.773  0.1941  0.1089  0.2682
 3357SOL    HW213860  10.384   1.453   5.667 -0.6468  0.1772  0.0436
 3358SOL     OW13861   5.631   2.689   4.182  0.3876 -0.2669 -0.1829
 3358SOL    HW113862   5.659   2.641   4.104 -0.3054  1.9240 -1.9114
 3358SOL    HW213863   5.602   2.622   4.243  0.0634 -2.0602 -2.1957
 3359SOL     OW13864   3.622   4.086   0.217  0.4530  0.2622 -0.5782
 3359SOL    HW113865   3.534   4.110   0.245  0.7222  0.7142 -0.1006
 3359SOL    HW213866   3.680   4.145   0.265  1.1548 -1.4519  0.8174
 3360SOL     OW13867   8.702   9.576   0.595 -0.0436  0.5408  0.1951
 3360SOL    HW113868   8.770   9.598   0.530 -1.0142  0.8519 -0.7514
 3360SOL    HW213869   8.721   9.633   0.669 -0.2654  1.8848 -0.7376
 3361SOL     OW13870   2.879   6.099   1.235  0.3850  0.3230 -0.8549
 3361SOL    HW113871   2.944   6.138   1.293  0.0234  0.0245 -0.2420
 3361SOL    HW213872   2.803   6.155   1.243  0.4273  0.4455 -1.2688
 3362SOL     OW13873   8.200   5.160   9.302 -0.3399  0.2916 -0.3233
 3362SOL    HW113874   8.157   5.153   9.216 -0.1848  0.0296 -0.3810
 3362SOL    HW213875   8.236   5.249   9.303 -0.4401  0.3357 -0.4834
 3363SOL     OW13876   0.838   0.246   4.675 -0.6938  0.4934  0.0708
 3363SOL    HW113877   0.759   0.191   4.670  1.1753 -2.6436  1.7296
 3363SOL    HW213878   0.881   0.234   4.590 -1.2435  1.0402 -0.2956
 3364SOL     OW13879   5.905   5.507   6.723  0.2615 -0.2266 -0.0126
 3364SOL    HW113880   5.951   5.513   6.639  0.0230 -1.6238 -0.2683
 3364SOL    HW213881   5.841   5.579   6.720  0.4899 -0.0435 -0.8753
 3365SOL     OW13882   3.157   1.885   7.801  0.8537  0.1056 -0.1943
 3365SOL    HW113883   3.087   1.941   7.769  0.2922  0.1473  1.0313
 3365SOL    HW213884   3.142   1.800   7.759 -0.2720 -0.0415  0.4568
 3366SOL     OW13885   7.498   2.646   3.972 -0.3758 -0.5019  0.3967
 3366SOL    HW113886   7.434   2.576   3.969 -1.7456  0.6908 -2.5610
 3366SOL    HW213887   7.546   2.632   4.053 -1.3869 -4.0692  0.5337
 3367SOL     OW13888   3.609   5.927   8.034 -0.1309  0.8598  0.7871
 3367SOL    HW113889   3.579   5.836   8.037  1.0962  0.4118  0.1887
 3367SOL    HW213890   3.673   5.933   8.105  0.0028  1.1700  0.6422
 3368SOL     OW13891   5.753   1.844   8.064  0.3450  0.3330  0.0054
 3368SOL    HW113892   5.683   1.825   8.001 -0.2871  1.8620  0.2029
 3368SOL    HW213893   5.790   1.758   8.086 -0.6037 -0.3808 -1.0945
 3369SOL     OW13894   3.320   8.590   4.056  0.3754 -0.4396  0.5060
 3369SOL    HW113895   3.346   8.499   4.074  0.6020 -0.5264 -0.2484
 3369SOL    HW213896   3.402   8.638   4.048  0.3624 -0.6783 -1.6670
 3370SOL     OW13897   6.532   2.535   4.212  0.9759 -0.4593  0.0025
 3370SOL    HW113898   6.589   2.554   4.137  0.9659 -0.7105 -0.0688
 3370SOL    HW213899   6.519   2.440   4.209  0.1784 -0.3513 -0.2523
 3371SOL     OW13900   4.591   0.580   9.342 -0.5707 -0.2029 -0.5910
 3371SOL    HW113901   4.640   0.626   9.410  0.8438 -1.4826 -0.7138
 3371SOL    HW213902   4.652   0.571   9.269 -0.9039 -1.9175 -0.7135
 3372SOL     OW13903   0.090   8.796   6.678 -0.0759 -0.1619 -0.1151
 3372SOL    HW113904   0.072   8.862   6.745  1.2530  0.3468 -0.2325
 3372SOL    HW213905   0.030   8.817   6.606 -1.2171 -0.4587  0.7126
 3373SOL     OW13906   7.339   2.378   0.082  0.1323  0.1154  0.0932
 3373SOL    HW113907   7.261   2.420   0.046  0.8141  0.6975 -0.7218
 3373SOL    HW213908   7.318   2.285   0.081 -0.9696  0.3410  0.9019
 3374SOL     OW13909   4.121   2.085   9.283  0.5293  0.4242 -0.0368
 3374SOL    HW113910   4.136   2.093   9.377  1.5365  0.4460 -0.1878
 3374SOL    HW213911   4.131   1.991   9.265  1.6650  0.5788 -0.3151
 3375SOL     OW13912   5.834   2.108   8.103  0.0017  0.6188  0.0502
 3375SOL    HW113913   5.801   2.019   8.117 -1.5219  1.0049 -0.7791
 3375SOL    HW213914   5.784   2.140   8.028  1.0957  1.8989 -0.1654
 3376SOL     OW13915   6.909   3.941  10.119  0.4262 -0.2486  0.3719
 3376SOL    HW113916   6.825   3.911  10.083  0.2506  1.4650 -0.7700
 3376SOL    HW213917   6.975   3.891  10.070  0.0895 -1.0433  0.7240
 3377SOL     OW13918   1.266   9.781   1.888 -0.5865 -0.7055  0.0952
 3377SOL    HW113919   1.359   9.805   1.878 -1.0233  1.6927  1.1425
 3377SOL    HW213920   1.251   9.781   1.982 -2.0847  0.9649 -0.0852
 3378SOL     OW13921   6.493   0.978   4.671 -0.5986 -0.0466 -0.2319
 3378SOL    HW113922   6.441   0.902   4.644  2.0701 -2.3650  0.6878
 3378SOL    HW213923   6.474   0.987   4.764 -0.5015  0.1064 -0.2277
 3379SOL     OW13924   4.065  10.327   9.932  0.5288 -0.3529 -0.1596
 3379SOL    HW113925   4.063  10.383  10.010  1.2609 -0.0458 -0.3469
 3379SOL    HW213926   4.064  10.389   9.858  0.5679 -0.6088 -0.3770
 3380SOL     OW13927   3.211   0.768   0.702  0.3692  0.2112 -0.1231
 3380SOL    HW113928   3.244   0.814   0.780  1.5056  0.7973 -0.9272
 3380SOL    HW213929   3.238   0.677   0.715 -0.1142  0.1519  0.5201
 3381SOL     OW13930   9.401   8.943   7.904 -0.1001 -0.0862 -0.3107
 3381SOL    HW113931   9.454   8.955   7.983  0.2695  0.2062 -0.5959
 3381SOL    HW213932   9.442   9.001   7.840  0.3090 -1.1724 -1.0529
 3382SOL     OW13933   9.318   2.382   7.243 -0.5190  0.0142 -0.0837
 3382SOL    HW113934   9.266   2.388   7.162 -0.8706  0.1612  0.1521
 3382SOL    HW213935   9.407   2.363   7.213 -0.2514  1.9189 -0.6191
 3383SOL     OW13936   7.627   5.994   6.057 -0.5672  0.1152 -0.1251
 3383SOL    HW113937   7.671   6.054   6.116 -1.7870  3.0187 -1.9165
 3383SOL    HW213938   7.540   5.981   6.096 -0.3419 -0.4139  0.2063
 3384SOL     OW13939   9.806   7.145   0.401 -0.8086  0.1826  0.2039
 3384SOL    HW113940   9.859   7.069   0.427 -0.4822  0.9564  1.9636
 3384SOL    HW213941   9.870   7.216   0.392 -1.1617  0.3560 -1.0365
 3385SOL     OW13942   0.458   1.917   4.391  0.5373  0.2402 -0.2975
 3385SOL    HW113943   0.470   1.823   4.383  0.4797  0.0988  1.0187
 3385SOL    HW213944   0.547   1.953   4.389  0.7803 -0.1075  1.7630
 3386SOL     OW13945   8.786   2.390   8.401 -0.2211  0.1416  0.1711
 3386SOL    HW113946   8.870   2.434   8.417 -0.1477  1.4075 -3.0784
 3386SOL    HW213947   8.807   2.320   8.339 -1.5004  0.1678 -0.3193
 3387SOL     OW13948   3.791   9.919   1.503 -0.4141 -0.8993  0.2812
 3387SOL    HW113949   3.700   9.945   1.488  0.0622  0.9500  0.2784
 3387SOL    HW213950   3.795   9.898   1.596 -0.6758 -0.1117  0.4835
 3388SOL     OW13951   3.102   3.027   6.547 -0.3397  0.4289  0.2201
 3388SOL    HW113952   3.101   2.956   6.483 -0.2625 -0.2702  0.9776
 3388SOL    HW213953   3.087   2.983   6.631  1.8399  1.0034  0.9845
 3389SOL     OW13954   5.076   4.716   1.459  0.3468  0.1593 -0.3613
 3389SOL    HW113955   5.120   4.765   1.390 -0.2572 -2.0813 -2.4910
 3389SOL    HW213956   5.133   4.640   1.474  1.0312  1.0986  2.5092
 3390SOL     OW13957   8.471   4.608   6.376 -0.1518 -0.1407  0.2255
 3390SOL    HW113958   8.451   4.647   6.462  0.8779 -0.5126  0.6528
 3390SOL    HW213959   8.421   4.527   6.374 -0.9415  0.3439  0.0628
 3391SOL     OW13960   4.281   4.317   4.874 -0.3085 -0.2402  0.0869
 3391SOL    HW113961   4.263   4.344   4.784  0.5232 -0.4340 -0.1470
 3391SOL    HW213962   4.204   4.344   4.924 -0.6564  0.1049 -0.6363
 3392SOL     OW13963   7.914   5.238   1.563 -0.1519  0.1591 -0.3311
 3392SOL    HW113964   8.005   5.247   1.535 -0.0519 -0.1586 -0.1111
 3392SOL    HW213965   7.863   5.278   1.492  0.1460  0.1364 -0.5586
 3393SOL     OW13966   5.563   8.156   8.854 -0.0090 -0.0487 -0.5023
 3393SOL    HW113967   5.521   8.142   8.769 -1.1350 -1.3229  0.2361
 3393SOL    HW213968   5.607   8.073   8.873 -0.4907 -0.0803  0.5428
 3394SOL     OW13969   0.117   9.661   8.125 -0.1537 -0.3152 -0.4911
 3394SOL    HW113970   0.072   9.743   8.146 -1.4999 -0.9173 -0.8979
 3394SOL    HW213971   0.210   9.683   8.127 -0.4906  1.2036 -0.5046
 3395SOL     OW13972  10.072   1.014   6.755  0.0538 -0.1679 -0.8331
 3395SOL    HW113973  10.066   0.935   6.700 -1.2072 -0.9165  0.3078
 3395SOL    HW213974  10.165   1.021   6.777  0.3136 -0.8303 -1.6422
 3396SOL     OW13975   4.452   0.932  10.026 -0.0190  0.4442 -0.0089
 3396SOL    HW113976   4.495   1.017  10.040  0.5121  0.0444  0.8371
 3396SOL    HW213977   4.407   0.914  10.109  3.2054 -1.9898  1.4346
 3397SOL     OW13978   4.978   4.035   0.099  0.0547 -0.2169  0.2636
 3397SOL    HW113979   5.005   4.036   0.007 -0.6083 -0.4809  0.0591
 3397SOL    HW213980   4.930   4.117   0.111 -0.7612 -0.6649  0.0918
 3398SOL     OW13981   1.701   6.935   6.320  0.2790 -0.1892  0.5751
 3398SOL    HW113982   1.766   6.875   6.282  2.1183  2.8533 -1.5831
 3398SOL    HW213983   1.632   6.938   6.254 -0.2486 -0.5799  1.1053
 3399SOL     OW13984  10.053   1.067   7.516 -0.2898 -0.3621  0.4262
 3399SOL    HW113985  10.040   0.974   7.497  0.8890 -0.2055 -1.3885
 3399SOL    HW213986  10.060   1.071   7.612  0.8462 -2.3207  0.4819
 3400SOL     OW13987   6.940   3.975   6.925 -0.0941 -0.3009  0.1025
 3400SOL    HW113988   7.006   3.995   6.991 -0.3194  0.4283  0.1212
 3400SOL    HW213989   6.923   4.059   6.882 -1.6455 -0.2646  0.6977
 3401SOL     OW13990   6.863  10.071   9.107 -0.1766 -0.3153 -0.0992
 3401SOL    HW113991   6.917  10.126   9.164 -0.8763 -1.8306  2.1610
 3401SOL    HW213992   6.920   9.998   9.083 -0.0009  0.1304 -1.1067
 3402SOL     OW13993   3.632   2.169   2.876 -0.0863  0.2248 -0.0625
 3402SOL    HW113994   3.567   2.239   2.868 -1.6184 -0.7762  2.3234
 3402SOL    HW213995   3.714   2.215   2.894 -0.6594  1.4477 -0.4564
 3403SOL     OW13996   9.805   7.800   3.277  0.1327  0.4638  0.1566
 3403SOL    HW113997   9.769   7.877   3.233 -1.6866 -0.1934  0.4246
 3403SOL    HW213998   9.748   7.728   3.250  3.0444 -1.3237 -1.9088
 3404SOL     OW13999   8.065   2.665   9.000  0.4065  0.1027  0.0845
 3404SOL    HW114000   8.113   2.594   8.958  1.2353 -0.0828  1.2971
 3404SOL    HW214001   8.050   2.634   9.089  1.1389  1.5985  0.7593
 3405SOL     OW14002   3.866   0.526   2.483  0.0748 -0.4988 -0.1835
 3405SOL    HW114003   3.904   0.586   2.419  0.4372  0.7737  1.1534
 3405SOL    HW214004   3.798   0.480   2.436 -0.2330  1.0016 -1.2689
 3406SOL     OW14005   4.456   6.837   4.238 -0.1622 -0.4486  0.6417
 3406SOL    HW114006   4.537   6.795   4.210 -0.4831  0.3598 -1.7588
 3406SOL    HW214007   4.387   6.774   4.217 -0.4360  0.2960 -0.8953
 3407SOL     OW14008   9.911   4.850   5.390 -0.2688  0.2655  0.0845
 3407SOL    HW114009  10.000   4.818   5.378  0.1574  1.6102 -0.4727
 3407SOL    HW214010   9.866   4.779   5.437  1.2684 -0.1261  1.0060
 3408SOL     OW14011   2.335   5.455   5.168  0.5661  0.1062 -0.4796
 3408SOL    HW114012   2.270   5.517   5.133  0.4459 -0.6750 -1.7089
 3408SOL    HW214013   2.416   5.506   5.174 -0.4134  1.5367  2.5119
 3409SOL     OW14014   3.621   4.394   9.955 -0.6752 -0.1023 -0.3769
 3409SOL    HW114015   3.667   4.452   9.893  0.5058 -0.7317 -0.1275
 3409SOL    HW214016   3.545   4.363   9.906 -1.3745  1.6659 -0.5058
 3410SOL     OW14017   6.028   9.150   9.864  0.1346 -0.0870  0.5418
 3410SOL    HW114018   6.114   9.189   9.851 -0.0490 -0.0739 -0.7043
 3410SOL    HW214019   6.000   9.122   9.777  0.0029 -2.4975  1.2782
 3411SOL     OW14020   0.470   0.379   9.343  0.2869  0.4103 -0.6142
 3411SOL    HW114021   0.463   0.456   9.285  0.0478 -0.3145 -1.5816
 3411SOL    HW214022   0.382   0.370   9.380  0.0882  0.1177 -1.1484
 3412SOL     OW14023   3.331   4.253   5.003 -0.3042 -0.1624 -0.4644
 3412SOL    HW114024   3.364   4.302   4.927 -1.9256  2.0885  0.1792
 3412SOL    HW214025   3.401   4.192   5.024  1.0384  0.5497 -2.5252
 3413SOL     OW14026   2.919   3.696   7.395 -0.6488  0.5274 -0.8743
 3413SOL    HW114027   3.002   3.648   7.402 -0.8508  0.3329  0.3552
 3413SOL    HW214028   2.918   3.729   7.305 -0.4879 -1.7421 -1.7688
 3414SOL     OW14029   1.861   5.209   6.576  0.2989 -0.1372  0.1039
 3414SOL    HW114030   1.938   5.264   6.589 -0.8674  1.1242  2.0704
 3414SOL    HW214031   1.835   5.225   6.486  0.6890  1.6119  0.2764
 3415SOL     OW14032  10.246   6.140   0.382  0.6018  0.0440 -0.6900
 3415SOL    HW114033  10.222   6.047   0.380  1.3189 -0.1638  0.0519
 3415SOL    HW214034  10.337   6.141   0.355  0.9142  0.4157  0.3362
 3416SOL     OW14035   8.000   8.800   5.210 -0.7586  0.1438  0.7162
 3416SOL    HW114036   8.000   8.824   5.302  0.3052  0.8225  0.5598
 3416SOL    HW214037   7.943   8.723   5.205 -1.1935  0.3755  1.8543
 3417SOL     OW14038   3.237   0.973   5.496  0.1887  0.0312 -0.4528
 3417SOL    HW114039   3.256   0.886   5.530 -0.7712  0.0893  0.2657
 3417SOL    HW214040   3.194   0.957   5.411 -1.2301 -0.2678  0.2862
 3418SOL     OW14041   0.224   9.326   2.790 -0.1373 -0.5730  0.2268
 3418SOL    HW114042   0.243   9.239   2.753 -0.5085 -0.6433  0.1963
 3418SOL    HW214043   0.139   9.315   2.833 -0.5885 -0.0008 -0.5115
 3419SOL     OW14044   7.147   1.181   1.193  0.5144  0.1322  0.0062
 3419SOL    HW114045   7.074   1.235   1.222 -0.0857 -1.1350  0.9550
 3419SOL    HW214046   7.140   1.181   1.098 -0.3112  0.5767  0.0523
 3420SOL     OW14047   3.582   1.938   2.502  0.3989  0.0446 -0.6051
 3420SOL    HW114048   3.517   1.997   2.462  0.0267 -0.4676 -0.7620
 3420SOL    HW214049   3.565   1.853   2.462  0.0879 -0.4602  0.5518
 3421SOL     OW14050   2.175   7.998   5.575  0.3211  0.2127  0.7379
 3421SOL    HW114051   2.244   8.055   5.608  1.3520  0.6541 -1.9095
 3421SOL    HW214052   2.186   8.000   5.480 -1.4629 -2.1149  0.3935
 3422SOL     OW14053   8.469   9.991   5.319 -1.2273 -0.2423 -0.0344
 3422SOL    HW114054   8.465  10.085   5.304  0.3517 -0.3087 -1.0373
 3422SOL    HW214055   8.530   9.981   5.392  0.3343 -0.5858 -1.3519
 3423SOL     OW14056   5.721   8.706  10.037 -0.7883 -0.5190 -0.0036
 3423SOL    HW114057   5.672   8.721   9.957 -1.4096 -2.2858  0.0117
 3423SOL    HW214058   5.670   8.641  10.086 -0.9455  1.1953  2.3013
 3424SOL     OW14059   1.185   9.529   7.858  0.0151  0.0444  0.4143
 3424SOL    HW114060   1.120   9.461   7.875 -1.7884  1.0617 -1.8750
 3424SOL    HW214061   1.244   9.490   7.793 -0.8934  0.5405 -0.7379
 3425SOL     OW14062   8.717   7.663  10.022  0.1507 -0.0982 -0.1626
 3425SOL    HW114063   8.705   7.707   9.937 -0.8532 -1.0126 -0.5155
 3425SOL    HW214064   8.770   7.586  10.002  2.3297  1.1299  0.5372
 3426SOL     OW14065   5.687   5.878   1.684  0.1307  0.0185 -0.3583
 3426SOL    HW114066   5.603   5.837   1.706  0.1976 -2.3003 -3.5836
 3426SOL    HW214067   5.752   5.829   1.734 -0.1450 -1.3201 -1.2400
 3427SOL     OW14068   7.150   8.841   9.338  0.1753  0.0561  0.2026
 3427SOL    HW114069   7.181   8.874   9.253 -0.9330 -2.3760 -1.2546
 3427SOL    HW214070   7.059   8.872   9.343  0.3214  0.4211  0.6482
 3428SOL     OW14071   2.847   0.865   2.432 -0.2716 -0.3298 -0.9949
 3428SOL    HW114072   2.811   0.852   2.344 -0.3222 -2.6587 -0.6910
 3428SOL    HW214073   2.942   0.872   2.418 -0.1380 -2.0217 -1.1845
 3429SOL     OW14074   3.562   9.204   9.944  0.1261 -0.2741 -0.0975
 3429SOL    HW114075   3.620   9.280   9.953  0.5119 -0.7985  2.5001
 3429SOL    HW214076   3.495   9.216  10.011  0.1747 -2.1980  0.3562
 3430SOL     OW14077   9.650   7.172   5.851 -0.9636  0.3113  0.3016
 3430SOL    HW114078   9.641   7.235   5.922 -3.2599  0.3645  0.0605
 3430SOL    HW214079   9.716   7.109   5.881 -0.9074  1.0928  1.8746
 3431SOL     OW14080   9.452   9.992   7.491 -0.3105 -0.5432 -0.4663
 3431SOL    HW114081   9.461  10.065   7.553  0.5453  1.1685 -2.4883
 3431SOL    HW214082   9.536   9.947   7.494 -0.6388 -1.1313  0.3543
 3432SOL     OW14083   6.503   3.053   8.182  0.7924  0.3087 -0.4176
 3432SOL    HW114084   6.495   3.094   8.268  0.0286 -0.5741 -0.0502
 3432SOL    HW214085   6.588   3.009   8.184  1.4818  1.5804 -0.7081
 3433SOL     OW14086   4.670   8.451   1.242 -0.2785 -1.0809 -0.6630
 3433SOL    HW114087   4.633   8.380   1.295 -1.8851  1.0590  1.2746
 3433SOL    HW214088   4.759   8.462   1.276 -0.5520 -1.1696  0.1054
 3434SOL     OW14089   4.878   5.916   1.042  0.6218 -0.2195  0.4124
 3434SOL    HW114090   4.967   5.893   1.015  0.8537  1.2460 -0.1227
 3434SOL    HW214091   4.822   5.881   0.972  0.6020 -2.3248  1.3899
 3435SOL     OW14092   0.609   5.466   6.141 -0.0127 -0.5833 -0.2224
 3435SOL    HW114093   0.591   5.554   6.173 -2.2537 -1.6857  1.8458
 3435SOL    HW214094   0.694   5.444   6.180 -0.7663 -0.3384  1.6593
 3436SOL     OW14095   6.453   3.211   8.415 -0.7733  0.2184  0.2799
 3436SOL    HW114096   6.362   3.181   8.412 -0.7837  0.2360  0.3905
 3436SOL    HW214097   6.446   3.305   8.434 -0.7298  0.2026  0.3760
 3437SOL     OW14098   2.562   0.425   3.625  0.2625 -0.3423  0.0195
 3437SOL    HW114099   2.534   0.418   3.533  0.0241 -1.9599  0.1852
 3437SOL    HW214100   2.615   0.505   3.628 -1.3648  0.8420 -1.0814
 3438SOL     OW14101   2.759   8.527   8.793 -0.1274  0.2090 -0.4115
 3438SOL    HW114102   2.814   8.555   8.866 -0.4236 -3.6198  1.5212
 3438SOL    HW214103   2.805   8.451   8.756 -2.5681 -1.2473 -0.6814
 3439SOL     OW14104   5.294   9.081   3.531  0.2714  0.4113  0.5904
 3439SOL    HW114105   5.309   9.176   3.524  0.1032  0.3790 -0.3737
 3439SOL    HW214106   5.247   9.059   3.451 -1.7870 -0.0959  1.8778
 3440SOL     OW14107   6.894   1.500   5.921  0.4967  0.3240 -0.2507
 3440SOL    HW114108   6.975   1.547   5.904  0.0219  0.7247 -1.5238
 3440SOL    HW214109   6.866   1.531   6.007  1.1957  0.9080 -0.2208
 3441SOL     OW14110   7.240   0.783   6.738 -0.3283 -0.1466  0.4535
 3441SOL    HW114111   7.268   0.694   6.719  2.0970  0.7135 -0.3913
 3441SOL    HW214112   7.312   0.838   6.705 -0.1149  1.9639  3.9756
 3442SOL     OW14113   1.937   1.705   0.752  0.2267  0.4625 -0.0983
 3442SOL    HW114114   1.950   1.639   0.684  1.9329  1.5375 -0.8740
 3442SOL    HW214115   1.845   1.731   0.743 -0.2146 -1.0671 -0.4050
 3443SOL     OW14116   4.086   2.642   0.432  0.1220  0.7817  0.5302
 3443SOL    HW114117   4.165   2.599   0.466  2.1207  3.0345 -0.9312
 3443SOL    HW214118   4.048   2.578   0.372  2.2080  0.4325 -0.5160
 3444SOL     OW14119  10.226   3.344   3.564 -0.3931 -0.0569  0.4748
 3444SOL    HW114120  10.197   3.360   3.475 -1.7485 -0.3263  0.8474
 3444SOL    HW214121  10.322   3.342   3.558 -0.4710 -0.6010 -1.0546
 3445SOL     OW14122   6.526   9.132   8.454  0.1795  0.1638 -0.4873
 3445SOL    HW114123   6.514   9.069   8.525  1.0743  0.8589  0.2942
 3445SOL    HW214124   6.603   9.182   8.478 -0.2005  1.2140 -1.3693
 3446SOL     OW14125   0.377   9.148   0.764  0.0481  0.4264 -0.0507
 3446SOL    HW114126   0.284   9.134   0.784  0.2325 -1.8985 -0.4814
 3446SOL    HW214127   0.417   9.170   0.848 -0.5282 -0.9821  0.6291
 3447SOL     OW14128   7.996   5.810   8.291  0.5110 -0.0733 -0.4376
 3447SOL    HW114129   7.920   5.868   8.280  1.0021  0.7212  0.2439
 3447SOL    HW214130   7.958   5.727   8.319 -0.1695  0.0483 -0.9519
 3448SOL     OW14131   5.516   4.434   3.810 -1.0608  0.2994  0.0138
 3448SOL    HW114132   5.465   4.387   3.745 -0.5397 -1.0745  0.5600
 3448SOL    HW214133   5.561   4.503   3.761 -0.5304 -0.8198 -1.1086
 3449SOL     OW14134   9.158   7.832   6.635  0.4938 -0.1044 -0.0371
 3449SOL    HW114135   9.211   7.759   6.666  1.5223  0.9297  0.7075
 3449SOL    HW214136   9.216   7.907   6.636 -0.7241  0.8814 -0.1408
 3450SOL     OW14137   9.374   9.864   7.224 -0.2629 -0.2336 -0.0779
 3450SOL    HW114138   9.345   9.838   7.136 -0.7366  0.0101  0.0057
 3450SOL    HW214139   9.431   9.792   7.252 -2.2562 -1.6864  0.5208
 3451SOL     OW14140   8.298  10.006   0.599 -0.5099 -0.2027  0.1477
 3451SOL    HW114141   8.238   9.951   0.548 -0.3947  0.4182 -0.6846
 3451SOL    HW214142   8.351   9.944   0.649  0.7095 -0.9739 -1.9687
 3452SOL     OW14143   2.942   8.038  10.241  0.3737  0.1453 -0.3728
 3452SOL    HW114144   3.003   7.978  10.198  1.0691  2.2315 -2.5268
 3452SOL    HW214145   2.958   8.025  10.334 -1.6705 -5.0734 -0.4336
 3453SOL     OW14146   5.941   3.773   7.451  0.4007  0.3386  0.2186
 3453SOL    HW114147   5.846   3.780   7.461  0.4195  1.6867 -0.2995
 3453SOL    HW214148   5.954   3.719   7.373  0.1626 -3.2120  2.4359
 3454SOL     OW14149   3.430   8.223   3.407 -0.2297 -1.2844 -0.1590
 3454SOL    HW114150   3.360   8.158   3.401 -1.7308  0.0600  1.5087
 3454SOL    HW214151   3.417   8.279   3.331  0.0398 -1.9231 -0.6928
 3455SOL     OW14152   7.113   8.749   3.351  0.3051 -0.8752  0.3204
 3455SOL    HW114153   7.085   8.666   3.310  0.1241 -0.8381  0.3688
 3455SOL    HW214154   7.045   8.768   3.416 -0.5383  0.1524 -0.8054
 3456SOL     OW14155   5.820   6.874   0.107 -0.0506  0.2605 -0.2030
 3456SOL    HW114156   5.886   6.928   0.149  1.2315  1.3413 -3.2887
 3456SOL    HW214157   5.739   6.923   0.115  0.4918  1.2000 -0.3518
 3457SOL     OW14158   1.786   2.510   7.836  0.6274  0.2962  0.2697
 3457SOL    HW114159   1.831   2.444   7.783  1.3114 -1.4801  2.8542
 3457SOL    HW214160   1.693   2.492   7.823  0.8015 -0.7950  0.4481
 3458SOL     OW14161   0.820   2.350   9.392  0.0789  0.5393 -0.2645
 3458SOL    HW114162   0.841   2.272   9.341 -1.3767  0.6277 -1.0460
 3458SOL    HW214163   0.771   2.318   9.468  1.2746  0.5213  0.5354
 3459SOL     OW14164   5.371  10.184   5.624 -0.6379  0.3524  0.1377
 3459SOL    HW114165   5.447  10.192   5.566  1.1334 -0.2502  2.2324
 3459SOL    HW214166   5.309  10.130   5.575  1.3819 -1.3809 -0.6564
 3460SOL     OW14167   3.806   6.706   2.137  0.0737  0.2137 -0.4828
 3460SOL    HW114168   3.846   6.688   2.052  0.2780  0.7996 -0.5134
 3460SOL    HW214169   3.830   6.630   2.191 -0.6518 -0.5010 -1.1416
 3461SOL     OW14170   7.839   8.891   2.736  1.0770  0.1107 -0.3984
 3461SOL    HW114171   7.759   8.908   2.687  0.4042  0.1844  0.6857
 3461SOL    HW214172   7.863   8.976   2.773  1.0317 -0.1219  0.1771
 3462SOL     OW14173   6.780   4.587   7.955  0.0977 -0.1809  0.0566
 3462SOL    HW114174   6.694   4.592   7.995 -0.0241  0.2620 -0.2529
 3462SOL    HW214175   6.771   4.522   7.886 -0.1430  0.2629 -0.3385
 3463SOL     OW14176   9.438   9.935   0.979  0.3272  0.6503 -0.4001
 3463SOL    HW114177   9.511   9.956   0.921  0.2418 -0.7817 -1.0818
 3463SOL    HW214178   9.478   9.886   1.051  0.1864  0.7838 -0.2322
 3464SOL     OW14179   5.680   1.812   9.385  0.1169 -0.2086 -0.0134
 3464SOL    HW114180   5.768   1.799   9.421 -0.4745  0.2738  1.7375
 3464SOL    HW214181   5.630   1.739   9.421 -0.9536  1.3538  1.8726
 3465SOL     OW14182   4.632   0.191   6.483 -0.4547  0.3030 -0.0504
 3465SOL    HW114183   4.572   0.194   6.408  0.7022  1.6216 -0.9676
 3465SOL    HW214184   4.615   0.105   6.523 -2.0220  0.1009 -1.0303
 3466SOL     OW14185   5.216   3.504   1.469  0.0562 -0.6712 -0.5547
 3466SOL    HW114186   5.164   3.581   1.491 -2.3054 -2.2625 -0.1798
 3466SOL    HW214187   5.238   3.515   1.377 -0.3474  0.3936 -0.5299
 3467SOL     OW14188   0.175   5.848   7.246  0.4511 -0.0050 -0.0382
 3467SOL    HW114189   0.184   5.809   7.333 -0.2356  1.6097  0.7952
 3467SOL    HW214190   0.089   5.890   7.248  0.7850  0.7650 -1.1947
 3468SOL     OW14191   2.286   4.902   4.495  0.1684  0.4067  0.0518
 3468SOL    HW114192   2.216   4.853   4.538  1.1415 -0.5531  0.5976
 3468SOL    HW214193   2.253   4.918   4.406 -1.3914  1.4091  0.7760
 3469SOL     OW14194   3.452   1.780   6.510 -0.4826 -0.0846 -0.3018
 3469SOL    HW114195   3.508   1.847   6.470  1.7261 -1.8882 -0.4675
 3469SOL    HW214196   3.452   1.708   6.446  0.5310 -1.7814  1.5165
 3470SOL     OW14197   8.401   3.327   6.938 -0.2117  0.5721 -0.0394
 3470SOL    HW114198   8.306   3.330   6.950 -0.4154  0.0827 -1.4224
 3470SOL    HW214199   8.414   3.338   6.844  1.0867  0.2776  0.0907
 3471SOL     OW14200   5.721   6.885   9.654 -0.2536 -0.1415  0.3568
 3471SOL    HW114201   5.816   6.895   9.652  0.0147 -1.7956  2.2235
 3471SOL    HW214202   5.705   6.803   9.607 -0.7910  0.1581  0.0019
 3472SOL     OW14203   6.905   6.872   0.212 -0.4199  0.5290  0.0790
 3472SOL    HW114204   6.908   6.778   0.229  1.3991  0.7888  1.5969
 3472SOL    HW214205   6.817   6.898   0.239 -0.8578 -0.6857 -0.0967
 3473SOL     OW14206   2.393  10.049   6.560  0.1246  0.6606  0.2690
 3473SOL    HW114207   2.442   9.969   6.539 -0.4020  0.1470  0.9100
 3473SOL    HW214208   2.345  10.026   6.640  0.3300  1.7817  0.7362
 3474SOL     OW14209   4.225   9.203   2.578 -0.3971  0.4667  0.2244
 3474SOL    HW114210   4.203   9.118   2.618 -1.2124  0.3284 -0.4938
 3474SOL    HW214211   4.313   9.223   2.612  0.2993 -1.2010 -0.4585
 3475SOL     OW14212   2.824   0.720   6.966  0.1611  0.0837 -0.1929
 3475SOL    HW114213   2.742   0.728   6.917  0.1801 -0.3377 -0.2984
 3475SOL    HW214214   2.801   0.744   7.055 -0.2936 -0.9417 -0.0204
 3476SOL     OW14215   0.643   2.505   4.187  0.2356 -0.3749 -0.4726
 3476SOL    HW114216   0.609   2.472   4.270 -0.3237  2.0353  0.3558
 3476SOL    HW214217   0.587   2.464   4.121  0.2995 -1.8686  0.3539
 3477SOL     OW14218   8.108   6.673   8.839  0.3148  0.4866 -0.0413
 3477SOL    HW114219   8.076   6.711   8.920  1.0081  0.8195  0.0826
 3477SOL    HW214220   8.059   6.591   8.830 -1.9026  1.8228 -0.8130
 3478SOL     OW14221   6.988   8.493   8.993  0.1591  0.3838 -0.3372
 3478SOL    HW114222   7.049   8.461   8.926 -0.5306  0.4835 -1.0252
 3478SOL    HW214223   7.025   8.461   9.076  0.4808 -0.6240 -0.8476
 3479SOL     OW14224   1.168   1.697   6.484 -0.2329  0.3686  0.1823
 3479SOL    HW114225   1.205   1.629   6.428  0.1425  0.4657  0.3063
 3479SOL    HW214226   1.073   1.687   6.476 -0.1968  0.8255 -1.0205
 3480SOL     OW14227  10.351   8.020   9.965  0.1992 -0.0524  0.6495
 3480SOL    HW114228  10.258   8.006   9.985  0.2946 -2.2023 -0.2187
 3480SOL    HW214229  10.397   7.977  10.037  0.5061 -1.0346 -0.1134
 3481SOL     OW14230   1.821   7.763   8.231  0.1243  0.2457 -0.2326
 3481SOL    HW114231   1.801   7.672   8.251 -0.6811  0.3370 -0.5906
 3481SOL    HW214232   1.796   7.774   8.139 -0.4456  1.0042  0.0020
 3482SOL     OW14233   8.000   8.057   8.421 -0.2198  0.0261 -0.0132
 3482SOL    HW114234   7.994   8.134   8.478 -1.2114 -0.2307  0.2429
 3482SOL    HW214235   7.918   8.011   8.434  0.6537 -1.4844  0.4114
 3483SOL     OW14236   6.411   9.296   8.258 -0.1229  0.2525  0.0782
 3483SOL    HW114237   6.447   9.236   8.323  1.6689  1.6677  0.4848
 3483SOL    HW214238   6.380   9.371   8.309  1.1649  1.3134 -0.6292
 3484SOL     OW14239   0.116   4.250   2.743 -1.2205  0.2778 -0.1159
 3484SOL    HW114240   0.170   4.329   2.743  0.6403 -0.9396 -0.3869
 3484SOL    HW214241   0.036   4.276   2.789 -0.4126  2.1426  0.3293
 3485SOL     OW14242   9.332   0.344   5.427 -0.6988 -0.1043  0.2512
 3485SOL    HW114243   9.402   0.315   5.485  0.1793  2.2492  0.4518
 3485SOL    HW214244   9.367   0.333   5.339 -0.2802  0.5483  0.3330
 3486SOL     OW14245   2.314   3.763   2.255 -0.6879  0.5343 -0.4531
 3486SOL    HW114246   2.225   3.789   2.280  0.0059  0.3475  2.5881
 3486SOL    HW214247   2.312   3.668   2.252 -0.9150  0.5483 -2.0736
 3487SOL     OW14248   3.636   4.792   7.284  0.3104 -0.4032 -0.7872
 3487SOL    HW114249   3.568   4.829   7.228  0.0520 -1.9315 -1.5098
 3487SOL    HW214250   3.601   4.707   7.312  1.7651 -1.0518 -0.8691
 3488SOL     OW14251   7.295   9.848   6.691  0.0141  0.0825 -0.2402
 3488SOL    HW114252   7.346   9.859   6.610 -0.6504  1.5007 -0.4941
 3488SOL    HW214253   7.314   9.926   6.742 -1.0529  0.1080  0.1403
 3489SOL     OW14254   0.038   1.540   9.807 -0.4566  0.0277  0.6349
 3489SOL    HW114255  -0.039   1.563   9.754  0.5568  1.0542 -0.4356
 3489SOL    HW214256   0.015   1.568   9.896 -0.9609  1.1973  0.1497
 3490SOL     OW14257   6.604   5.989   3.183 -0.1249 -0.3336  0.4342
 3490SOL    HW114258   6.549   5.925   3.138 -2.0049  2.5551 -1.6955
 3490SOL    HW214259   6.664   6.021   3.116  0.4236  0.5456  1.3183
 3491SOL     OW14260   0.897   6.555   5.924 -0.1044  0.3135 -0.5384
 3491SOL    HW114261   0.877   6.593   6.009  0.6228 -0.3949 -0.0423
 3491SOL    HW214262   0.859   6.616   5.861 -0.7110  0.8079  0.2902
 3492SOL     OW14263   9.776   2.548   9.250 -0.2237 -0.3307  0.1368
 3492SOL    HW114264   9.793   2.457   9.277 -1.9341 -0.5309  0.6369
 3492SOL    HW214265   9.759   2.594   9.332  0.9254  0.5474 -0.0882
 3493SOL     OW14266   9.029   9.334   8.034 -0.2420 -0.3144 -0.0311
 3493SOL    HW114267   9.064   9.333   8.123 -0.6680  1.0743  0.1678
 3493SOL    HW214268   9.091   9.281   7.983 -0.4159 -1.8106  1.2206
 3494SOL     OW14269   9.465   6.066   7.191 -0.0457 -0.1779 -0.3968
 3494SOL    HW114270   9.466   5.986   7.138  0.3949  0.2234 -1.0139
 3494SOL    HW214271   9.401   6.049   7.259  0.2003 -1.1360 -0.3967
 3495SOL     OW14272   6.948   5.411   1.455  0.1896 -0.0335  0.1465
 3495SOL    HW114273   7.004   5.334   1.470 -0.9481 -1.8569 -3.7288
 3495SOL    HW214274   6.869   5.375   1.415 -2.3760  2.8290  2.1878
 3496SOL     OW14275   0.859   3.212   1.393 -0.0510 -0.4188  0.2048
 3496SOL    HW114276   0.892   3.142   1.338 -0.3334 -0.3441 -0.0610
 3496SOL    HW214277   0.928   3.227   1.458  0.8293  0.3406 -0.8751
 3497SOL     OW14278   4.028   9.520   0.350  0.5845 -0.1612  0.3668
 3497SOL    HW114279   4.084   9.443   0.351  1.3475  0.2616 -2.1237
 3497SOL    HW214280   3.949   9.493   0.397  0.8825 -2.4471 -0.3086
 3498SOL     OW14281   0.684   2.438   3.165  0.1358 -0.4053  0.4094
 3498SOL    HW114282   0.766   2.396   3.191 -0.1765 -1.7208 -0.6030
 3498SOL    HW214283   0.707   2.530   3.152  1.6845 -0.9045 -0.7012
 3499SOL     OW14284   0.017   1.464   9.085 -0.1451 -0.4949 -0.3044
 3499SOL    HW114285   0.088   1.517   9.121  1.0929 -2.1340 -0.2064
 3499SOL    HW214286   0.061   1.391   9.042 -1.7728 -1.5880 -0.2080
 3500SOL     OW14287   3.652   2.629  10.259 -0.4791  0.2377  0.0747
 3500SOL    HW114288   3.575   2.683  10.243 -1.1192 -0.9245 -0.9430
 3500SOL    HW214289   3.619   2.539  10.260  1.0053 -0.4084 -1.7384
 3501SOL     OW14290   7.560   5.463   3.253 -0.1175  0.6414 -0.3760
 3501SOL    HW114291   7.566   5.372   3.283 -1.3621  0.9782  1.0277
 3501SOL    HW214292   7.467   5.478   3.239  0.1332  1.5279 -1.1736
 3502SOL     OW14293   4.824   3.751   1.549 -0.0742  0.7839 -0.4471
 3502SOL    HW114294   4.795   3.831   1.593 -0.0644  0.4956  0.0905
 3502SOL    HW214295   4.841   3.689   1.620  0.3378  0.4414 -0.8374
 3503SOL     OW14296   0.718   3.770   8.123  0.1135 -0.7146  1.1575
 3503SOL    HW114297   0.686   3.833   8.059  0.7718  0.5015  1.9782
 3503SOL    HW214298   0.802   3.806   8.153 -0.0568 -1.3559  2.5064
 3504SOL     OW14299   7.348   2.183   8.167  0.2369  0.4712  0.5230
 3504SOL    HW114300   7.297   2.156   8.243  0.9070 -1.1043  0.4545
 3504SOL    HW214301   7.307   2.137   8.093  1.0147  0.1313  0.2955
 3505SOL     OW14302   0.848   5.673   4.077 -0.0961  0.3772  0.0426
 3505SOL    HW114303   0.840   5.585   4.113 -1.0242  0.6305  0.5035
 3505SOL    HW214304   0.913   5.717   4.131  1.1164 -0.3152 -0.8124
 3506SOL     OW14305   0.613   1.602   4.485 -0.4619 -0.0189 -0.0480
 3506SOL    HW114306   0.633   1.664   4.556 -1.7725 -0.3395  0.6352
 3506SOL    HW214307   0.697   1.562   4.464  0.3256  1.6112 -0.1456
 3507SOL     OW14308   9.122   0.365   3.981  0.0421 -0.2270 -0.1589
 3507SOL    HW114309   9.089   0.449   4.015 -1.3252 -0.9160  0.2668
 3507SOL    HW214310   9.216   0.379   3.973 -0.1763  1.4317 -0.3170
 3508SOL     OW14311   4.158   2.479   1.465  0.1237 -0.1450  0.3881
 3508SOL    HW114312   4.096   2.436   1.523  0.6386  0.0352  1.0955
 3508SOL    HW214313   4.160   2.426   1.386 -0.9133 -0.1556  0.3619
 3509SOL     OW14314   2.027   7.569   7.870  0.1901  0.0026  0.0668
 3509SOL    HW114315   1.978   7.493   7.901  2.4680 -1.2099  0.9345
 3509SOL    HW214316   2.093   7.584   7.937  1.7042  0.8729 -1.5303
 3510SOL     OW14317   6.257   6.206   0.259 -0.7583  0.0474 -0.3313
 3510SOL    HW114318   6.182   6.165   0.215 -0.9959  0.4412 -0.2958
 3510SOL    HW214319   6.271   6.288   0.212 -0.2201 -0.1200 -0.4649
 3511SOL     OW14320   3.281   2.908   2.551  0.0973 -0.1796  0.0885
 3511SOL    HW114321   3.354   2.851   2.577  1.2769  2.1232  2.2136
 3511SOL    HW214322   3.204   2.851   2.554  1.3321 -1.8986  1.0508
 3512SOL     OW14323   0.032   6.997   5.596 -0.2838  0.4386 -0.3243
 3512SOL    HW114324   0.042   6.915   5.549 -0.2225 -0.4748  1.2117
 3512SOL    HW214325   0.062   7.064   5.535  0.4193 -0.7554 -1.3260
 3513SOL     OW14326   9.116   8.899   8.852 -0.2867 -0.4124  0.1090
 3513SOL    HW114327   9.058   8.823   8.841 -0.3126 -0.5443  1.0408
 3513SOL    HW214328   9.084   8.942   8.932  0.3009  0.0577  0.0999
 3514SOL     OW14329   0.601   7.000   4.637  0.1206  0.1700 -0.1245
 3514SOL    HW114330   0.637   7.048   4.562 -0.1180 -0.9215 -0.9620
 3514SOL    HW214331   0.523   6.958   4.602  0.7818 -1.5119  0.3483
 3515SOL     OW14332   3.008   1.486   8.146  0.1035 -0.1369  0.7071
 3515SOL    HW114333   2.928   1.437   8.130  2.2341 -3.4857 -1.0976
 3515SOL    HW214334   3.058   1.431   8.207  2.9889 -0.9165 -2.0528
 3516SOL     OW14335   5.226   3.748   3.621  0.3206  0.7306 -0.3099
 3516SOL    HW114336   5.277   3.819   3.580  0.5316  0.1215 -1.1256
 3516SOL    HW214337   5.291   3.682   3.644 -0.0392  0.1229 -0.9895
 3517SOL     OW14338   2.692   0.681   2.841 -0.6091 -0.4458  0.0277
 3517SOL    HW114339   2.666   0.650   2.754 -0.6086  0.5693 -0.3514
 3517SOL    HW214340   2.785   0.701   2.832 -0.7940  0.4592  0.0066
 3518SOL     OW14341   1.334  10.333   2.590 -0.1305 -0.1213 -0.1945
 3518SOL    HW114342   1.399  10.282   2.638  1.6544  1.8649 -0.3754
 3518SOL    HW214343   1.250  10.302   2.624  0.9055 -2.0232  0.8143
 3519SOL     OW14344   1.461   6.585   5.160 -0.5100  0.2205  0.2058
 3519SOL    HW114345   1.422   6.498   5.164  1.4508 -0.7898 -0.8431
 3519SOL    HW214346   1.414   6.636   5.226 -1.6970 -1.6444  0.8719
 3520SOL     OW14347   9.613   2.611   8.031  0.1935  0.1652 -0.2590
 3520SOL    HW114348   9.569   2.540   8.079 -1.5068 -0.0017 -1.9513
 3520SOL    HW214349   9.673   2.566   7.972 -2.3672 -0.1835 -2.8534
 3521SOL     OW14350   7.759   8.670   8.966  0.7162  0.5384  0.1571
 3521SOL    HW114351   7.728   8.600   8.909  0.3799  0.3495  0.5580
 3521SOL    HW214352   7.771   8.628   9.051  0.7399  0.9143  0.3434
 3522SOL     OW14353   4.668   8.669   1.891  0.1850  0.2095 -0.3168
 3522SOL    HW114354   4.662   8.573   1.897 -1.8238  0.2480 -0.7221
 3522SOL    HW214355   4.758   8.689   1.915  0.6931 -1.7908 -0.3123
 3523SOL     OW14356   3.657   0.901   2.069  0.3000  0.5388  0.2750
 3523SOL    HW114357   3.689   0.857   2.149 -1.5524  0.0473  0.7960
 3523SOL    HW214358   3.592   0.963   2.101 -0.1599  0.6334 -0.8301
 3524SOL     OW14359   2.884   2.303   6.367 -0.3487  0.1760 -0.2226
 3524SOL    HW114360   2.974   2.279   6.344 -0.2820  0.7615 -0.6047
 3524SOL    HW214361   2.833   2.223   6.356 -0.1032  0.1614 -1.2926
 3525SOL     OW14362   4.058   5.033   6.628  0.1019 -0.3473 -0.0862
 3525SOL    HW114363   4.053   5.075   6.542 -3.1638 -1.3256 -0.4822
 3525SOL    HW214364   4.086   4.944   6.609 -0.2014 -0.4420 -0.0884
 3526SOL     OW14365   1.449   4.910   5.239 -0.3389 -0.2347 -0.2188
 3526SOL    HW114366   1.437   4.990   5.187  0.5079  0.1702  0.1858
 3526SOL    HW214367   1.361   4.876   5.252 -0.6591  0.3093 -0.9036
 3527SOL     OW14368   3.512   5.175   6.044 -0.0277 -0.6373  0.2698
 3527SOL    HW114369   3.577   5.132   6.100  2.0382 -0.0106 -1.5042
 3527SOL    HW214370   3.447   5.209   6.105  1.2401 -1.3817  2.1436
 3528SOL     OW14371   7.601   9.384   0.176 -0.4821 -0.4505 -0.0724
 3528SOL    HW114372   7.693   9.363   0.157  0.5123  2.3357  1.1583
 3528SOL    HW214373   7.589   9.360   0.268 -0.5640  0.3550  0.1375
 3529SOL     OW14374   5.972   7.880   1.240 -0.1872  0.2070 -0.3758
 3529SOL    HW114375   6.015   7.947   1.292  0.5239 -1.5426  1.4554
 3529SOL    HW214376   6.039   7.811   1.230 -1.3322 -0.8798 -0.8274
 3530SOL     OW14377   9.408   7.928   0.139  0.1234 -0.1801 -0.7832
 3530SOL    HW114378   9.436   7.994   0.202 -0.2969 -1.6237  1.0019
 3530SOL    HW214379   9.340   7.972   0.087 -1.7462  0.2253  1.8086
 3531SOL     OW14380   8.581   0.599   0.854  0.1043 -0.0394  0.2359
 3531SOL    HW114381   8.516   0.531   0.874 -0.5022  0.7248  0.8993
 3531SOL    HW214382   8.544   0.679   0.889  0.5738  0.7559 -0.9998
 3532SOL     OW14383   4.164   5.242  10.097  0.4194  0.2582 -0.2011
 3532SOL    HW114384   4.107   5.230  10.021 -0.2111 -0.9062  0.4213
 3532SOL    HW214385   4.245   5.280  10.061 -0.6500  1.7486 -1.1251
 3533SOL     OW14386   7.790   7.584   2.331  0.1152  0.1665  0.4246
 3533SOL    HW114387   7.751   7.499   2.352  0.1297  0.2030  0.5971
 3533SOL    HW214388   7.753   7.607   2.246 -0.8098  0.5512  0.9231
 3534SOL     OW14389   2.962   0.094   1.840  0.4400  0.2969 -0.1446
 3534SOL    HW114390   2.946   0.038   1.764 -0.8335  0.3822  0.0408
 3534SOL    HW214391   2.998   0.035   1.906  3.1963  0.5298 -1.3188
 3535SOL     OW14392   7.124   7.650   8.056  0.2911 -0.4921 -0.5551
 3535SOL    HW114393   7.197   7.645   8.118 -0.4255  2.6970  0.7483
 3535SOL    HW214394   7.152   7.714   7.991 -0.6436 -0.5994 -1.0766
 3536SOL     OW14395   5.160   5.121   1.155 -0.4650  0.3782 -0.3195
 3536SOL    HW114396   5.109   5.202   1.162 -1.3059 -0.1876  0.3900
 3536SOL    HW214397   5.220   5.123   1.229 -1.5930 -0.3674  0.6540
 3537SOL     OW14398   8.957   8.907   6.816 -0.5819 -0.1299 -0.4633
 3537SOL    HW114399   8.949   8.979   6.753  2.9896 -0.3739 -1.4455
 3537SOL    HW214400   8.955   8.951   6.901  0.7429  1.1219 -1.0201
 3538SOL     OW14401   8.259   2.774   4.671 -0.2604 -0.5117 -0.3734
 3538SOL    HW114402   8.308   2.810   4.597 -3.5625 -0.4459 -2.7331
 3538SOL    HW214403   8.255   2.846   4.735  0.0739  0.5126 -1.4702
 3539SOL     OW14404   8.867   9.013   3.210  0.4379 -0.0783  0.1853
 3539SOL    HW114405   8.808   9.025   3.284  0.3997 -1.5752  0.4402
 3539SOL    HW214406   8.826   9.061   3.138 -0.9051 -0.7632  0.4600
 3540SOL     OW14407   4.430   5.366   5.048 -0.2680 -0.2643 -0.8212
 3540SOL    HW114408   4.408   5.356   5.141 -0.5177  1.8799 -0.6055
 3540SOL    HW214409   4.363   5.315   5.002 -0.8920 -0.3303  0.1305
 3541SOL     OW14410   9.455   0.119   2.222 -0.5579 -0.5775  0.0655
 3541SOL    HW114411   9.414   0.140   2.306 -1.2342  1.5819 -0.7406
 3541SOL    HW214412   9.515   0.047   2.242 -2.7703 -2.0810  1.8086
 3542SOL     OW14413   9.353   9.912  10.105  0.3782  0.0912  0.2139
 3542SOL    HW114414   9.427   9.954  10.061  0.2107 -1.9284 -2.2345
 3542SOL    HW214415   9.276   9.948  10.061  0.1323 -0.7447 -0.0678
 3543SOL     OW14416   6.338   2.381   5.276  0.0377 -0.6899  0.4151
 3543SOL    HW114417   6.418   2.332   5.258  0.9729  1.0401 -0.3781
 3543SOL    HW214418   6.282   2.366   5.200  0.4943 -0.2149 -0.0218
 3544SOL     OW14419   1.849   4.825  10.060  0.4730 -0.9153  0.2664
 3544SOL    HW114420   1.823   4.917  10.068  2.6582 -0.3144  1.3853
 3544SOL    HW214421   1.794   4.791   9.990 -3.6836 -0.0800  2.7692
 3545SOL     OW14422   1.904   9.371   4.754  0.0655 -0.1358  0.0350
 3545SOL    HW114423   1.864   9.446   4.711 -0.3191 -0.5977 -0.4352
 3545SOL    HW214424   1.990   9.402   4.783 -0.6754  0.9079  1.1757
 3546SOL     OW14425   7.206   4.987   2.363 -0.1821  0.4219  0.7738
 3546SOL    HW114426   7.250   4.962   2.282 -0.0244  0.7884  0.7444
 3546SOL    HW214427   7.229   4.918   2.426  1.5022  1.2629  1.1276
 3547SOL     OW14428   1.123   6.366   0.115 -0.3669 -0.3046 -0.4468
 3547SOL    HW114429   1.128   6.312   0.036  0.1398 -0.2610 -0.4470
 3547SOL    HW214430   1.055   6.431   0.095  0.3540  0.2552 -1.1944
 3548SOL     OW14431   1.684   5.976   1.817 -0.4568 -0.3764 -0.0932
 3548SOL    HW114432   1.738   5.944   1.744  1.5952  0.6963  0.8609
 3548SOL    HW214433   1.725   6.058   1.843 -0.9394 -0.8381  2.4433
 3549SOL     OW14434   9.300   5.133   4.159 -0.1605  0.1150  0.1063
 3549SOL    HW114435   9.227   5.093   4.206  1.8880 -1.4361  2.2089
 3549SOL    HW214436   9.331   5.202   4.217  1.4380 -0.7898  0.3966
 3550SOL     OW14437   0.638   3.255   1.234 -0.6932 -0.1617 -0.4014
 3550SOL    HW114438   0.720   3.231   1.278  1.1456  1.6128 -2.6185
 3550SOL    HW214439   0.623   3.185   1.171  0.6063  0.7306 -1.7639
 3551SOL     OW14440   0.103   3.028   5.366 -0.1611  0.1523  0.3785
 3551SOL    HW114441   0.110   3.104   5.309 -0.0734 -0.1946 -0.0781
 3551SOL    HW214442   0.050   3.059   5.440 -1.1908  0.3187 -0.3974
 3552SOL     OW14443   9.534   4.588   0.698 -0.9263  0.0100  0.0823
 3552SOL    HW114444   9.486   4.621   0.773 -0.4469  1.0832 -0.0630
 3552SOL    HW214445   9.466   4.552   0.641 -1.3227 -0.5196  0.8766
 3553SOL     OW14446   7.719   6.159   6.243 -0.1186 -0.1313 -0.5975
 3553SOL    HW114447   7.730   6.245   6.201 -0.5156 -0.4722 -1.4294
 3553SOL    HW214448   7.800   6.146   6.292  0.9018 -0.2293 -2.2130
 3554SOL     OW14449   0.387   3.065   1.841 -0.4299  0.1296  0.0909
 3554SOL    HW114450   0.481   3.060   1.825 -0.1456  0.6498  1.4410
 3554SOL    HW214451   0.348   3.006   1.776  0.8955 -0.7931  0.0958
 3555SOL     OW14452   8.648   1.230   5.447  0.1378  0.4258  0.3005
 3555SOL    HW114453   8.579   1.191   5.394 -0.9048  1.0534  1.1690
 3555SOL    HW214454   8.692   1.155   5.488 -1.6453  0.0824  1.7147
 3556SOL     OW14455   2.819   3.116   5.595  0.1631 -0.2098  0.2543
 3556SOL    HW114456   2.851   3.135   5.684 -0.7812  0.0544  0.5512
 3556SOL    HW214457   2.724   3.114   5.604 -0.0279  1.2852 -1.0197
 3557SOL     OW14458   7.748   2.209   1.895 -0.1070 -0.2303  0.1377
 3557SOL    HW114459   7.714   2.238   1.810  0.4947 -1.4619 -0.5523
 3557SOL    HW214460   7.716   2.120   1.904 -0.1806 -0.1027  1.2303
 3558SOL     OW14461   7.469   0.481   5.954  0.6639  0.2622  0.3599
 3558SOL    HW114462   7.419   0.406   5.922  3.0413 -1.4197  0.2857
 3558SOL    HW214463   7.433   0.497   6.042  0.2060 -1.1149  0.4579
 3559SOL     OW14464   4.666   9.956   0.869  0.2659  0.0725 -0.1108
 3559SOL    HW114465   4.760   9.964   0.852  0.4841 -0.8143  0.6017
 3559SOL    HW214466   4.645  10.033   0.922  0.4043  0.7181 -0.9692
 3560SOL     OW14467   7.853   6.569   4.414 -0.0810  0.0566  0.6217
 3560SOL    HW114468   7.776   6.622   4.434  0.3782  1.9318 -2.0244
 3560SOL    HW214469   7.915   6.590   4.485 -0.9447  0.8144  1.1785
 3561SOL     OW14470   7.156   0.957   5.590 -0.4294  0.0184  0.3241
 3561SOL    HW114471   7.089   0.914   5.538 -2.3588  0.4248  2.3039
 3561SOL    HW214472   7.215   0.887   5.617 -0.4650 -0.4700 -0.8395
 3562SOL     OW14473   4.384   9.209   3.717 -0.2233  0.3748  0.3818
 3562SOL    HW114474   4.374   9.212   3.812  0.4389  1.1848  0.4382
 3562SOL    HW214475   4.419   9.122   3.699  1.0213  0.7033  1.0416
 3563SOL     OW14476   8.000   2.997   4.051  0.5603  0.9030  0.7924
 3563SOL    HW114477   7.980   2.922   3.995 -0.9226  1.5475  0.4142
 3563SOL    HW214478   8.057   3.052   3.997 -0.2600  1.1616  0.1609
 3564SOL     OW14479   8.002   5.060   4.444  0.1465 -0.9427  0.5746
 3564SOL    HW114480   8.022   4.994   4.510  2.8128  0.4849  1.3108
 3564SOL    HW214481   8.030   5.143   4.483 -1.0906  0.3806 -1.1607
 3565SOL     OW14482   7.257   8.098   1.218  0.2480 -0.1179 -0.4749
 3565SOL    HW114483   7.288   8.127   1.132 -1.7832  1.3894 -0.7634
 3565SOL    HW214484   7.173   8.056   1.201 -0.5907  0.9565  0.8487
 3566SOL     OW14485   5.359   1.771   3.402  0.0152  1.2771  0.1440
 3566SOL    HW114486   5.377   1.864   3.384  2.3107  0.8654 -0.0439
 3566SOL    HW214487   5.341   1.768   3.496  2.9073  1.6131  0.8079
 3567SOL     OW14488   9.443   8.840   6.004  0.3026 -0.1425  0.3857
 3567SOL    HW114489   9.476   8.771   6.062 -2.1408 -1.3863  0.4706
 3567SOL    HW214490   9.485   8.823   5.920  0.0316 -1.5474  0.5071
 3568SOL     OW14491   2.935   7.113  10.087 -0.1767 -0.6484  0.3999
 3568SOL    HW114492   3.017   7.069  10.110  0.1410 -0.2879 -0.0273
 3568SOL    HW214493   2.866   7.052  10.113  0.1040  0.0314  3.0743
 3569SOL     OW14494   4.991   2.773   2.363 -0.2083  0.4387 -0.3599
 3569SOL    HW114495   4.975   2.731   2.278 -0.7797  0.5046 -0.2873
 3569SOL    HW214496   4.910   2.820   2.382 -0.2462  0.0673  0.4301
 3570SOL     OW14497   0.939   4.982   5.935 -0.1879 -0.1909 -0.9237
 3570SOL    HW114498   1.018   4.950   5.979  1.2156  0.4561 -2.8370
 3570SOL    HW214499   0.893   5.033   6.002  1.4656  0.1685 -0.0046
 3571SOL     OW14500   1.681   1.524   1.758  1.1684  0.2023 -0.4247
 3571SOL    HW114501   1.662   1.574   1.838 -1.3997 -0.8151 -0.2980
 3571SOL    HW214502   1.599   1.527   1.708  1.2262 -2.9582 -0.8946
 3572SOL     OW14503   8.749   1.145   0.282  0.2296  0.4770 -0.4188
 3572SOL    HW114504   8.709   1.116   0.201 -0.9369 -2.4617  1.0777
 3572SOL    HW214505   8.832   1.097   0.287 -0.3454 -0.4512  0.7223
 3573SOL     OW14506   6.749   4.168   6.138  0.2033  0.0741  0.4419
 3573SOL    HW114507   6.828   4.184   6.087 -1.1025  0.0778 -1.6824
 3573SOL    HW214508   6.760   4.080   6.173  1.1726  0.1063  0.2355
 3574SOL     OW14509   1.252   7.144   7.036 -0.2058  0.2159 -0.0808
 3574SOL    HW114510   1.303   7.065   7.018 -0.2828 -0.0497  0.8025
 3574SOL    HW214511   1.194   7.154   6.961  0.7206  0.1813 -0.8205
 3575SOL     OW14512   8.333   9.398   8.261  0.1153  0.2333 -0.3864
 3575SOL    HW114513   8.346   9.391   8.356 -0.3098 -0.8171 -0.3850
 3575SOL    HW214514   8.317   9.308   8.233 -4.8389  0.9261 -0.6832
 3576SOL     OW14515   3.950   2.289   0.710  0.0731 -0.5663 -0.4062
 3576SOL    HW114516   3.986   2.377   0.722  0.7198 -0.7885 -0.6759
 3576SOL    HW214517   3.856   2.299   0.725  0.1382  0.1760 -0.4732
 3577SOL     OW14518   2.632   7.749   0.967  0.4348 -0.2608 -0.6445
 3577SOL    HW114519   2.624   7.844   0.959 -1.0445 -0.3682 -0.6435
 3577SOL    HW214520   2.556   7.722   1.019  0.8774 -1.4394 -0.5695
 3578SOL     OW14521   2.335   5.252   1.238  0.0736 -0.3190  0.3540
 3578SOL    HW114522   2.364   5.338   1.208  0.7380 -0.2374  1.2104
 3578SOL    HW214523   2.393   5.191   1.192  2.7597 -0.1100  3.1248
 3579SOL     OW14524   5.421   4.763   7.748  0.0393 -0.4362 -0.6028
 3579SOL    HW114525   5.467   4.762   7.664 -1.4407 -0.8492 -1.4431
 3579SOL    HW214526   5.336   4.723   7.730 -0.5901  0.1007  0.9390
 3580SOL     OW14527   8.266   8.699   8.560 -0.0058  0.0699 -0.4819
 3580SOL    HW114528   8.308   8.726   8.478  1.0251 -1.0445 -0.3535
 3580SOL    HW214529   8.180   8.741   8.559  0.2515  0.5947 -1.8194
 3581SOL     OW14530   3.181   3.096   8.933 -0.3938 -0.1935 -0.0828
 3581SOL    HW114531   3.145   3.170   8.982 -1.3069 -0.3151 -0.5495
 3581SOL    HW214532   3.182   3.126   8.842 -0.6811 -0.7223 -0.2624
 3582SOL     OW14533   2.439   6.260   6.224  0.5953  0.4262  0.4692
 3582SOL    HW114534   2.347   6.247   6.247  0.9950  1.2414  2.8130
 3582SOL    HW214535   2.437   6.289   6.133 -1.3469 -0.7063  0.0912
 3583SOL     OW14536  10.260   6.057   5.782 -0.0693  0.2497  0.3099
 3583SOL    HW114537  10.205   6.093   5.713 -0.0810  0.5836  0.4921
 3583SOL    HW214538  10.221   6.088   5.863  1.1182  1.5749  0.4162
 3584SOL     OW14539   7.848   2.575   7.536 -0.0819  0.3631 -0.1880
 3584SOL    HW114540   7.787   2.560   7.464  1.1746  0.6923 -1.3473
 3584SOL    HW214541   7.931   2.594   7.494  1.1626 -1.2799  1.3447
 3585SOL     OW14542   2.736   7.335   8.143  0.5274 -0.2944 -0.4482
 3585SOL    HW114543   2.778   7.337   8.229 -0.3197  1.2608 -0.0468
 3585SOL    HW214544   2.711   7.426   8.125 -3.1016 -1.1476 -0.4477
 3586SOL     OW14545   4.905   1.474   7.655 -0.3966  0.1473  0.0700
 3586SOL    HW114546   4.815   1.456   7.628 -0.9300 -1.0374  2.3505
 3586SOL    HW214547   4.948   1.389   7.651  0.2866  0.4831  0.1644
 3587SOL     OW14548   7.786   9.001   5.442 -0.2956 -0.3640  0.3675
 3587SOL    HW114549   7.834   9.075   5.478  1.3135 -1.2893  0.1874
 3587SOL    HW214550   7.844   8.926   5.453 -2.5418 -1.9995  2.1104
 3588SOL     OW14551   8.384   3.317   4.153 -0.3027  0.4178 -0.1047
 3588SOL    HW114552   8.470   3.350   4.127 -0.3441 -0.6727 -1.7535
 3588SOL    HW214553   8.388   3.223   4.134 -1.0661 -0.0960  2.0077
 3589SOL     OW14554   5.134  10.287   5.086  0.0174 -0.1807  0.0482
 3589SOL    HW114555   5.112  10.299   5.179 -0.6717  0.3656 -0.1779
 3589SOL    HW214556   5.049  10.277   5.043  0.2662  0.8982 -0.7076
 3590SOL     OW14557   8.985   5.152   9.771  1.0939 -0.1289 -0.0992
 3590SOL    HW114558   8.949   5.239   9.791  1.0009 -0.2990  0.4998
 3590SOL    HW214559   9.049   5.168   9.702 -0.6519  0.0971 -1.7817
 3591SOL     OW14560   5.450   7.758   4.386  0.6245  0.1227  0.3718
 3591SOL    HW114561   5.453   7.740   4.292 -0.0648  0.5237  0.2640
 3591SOL    HW214562   5.508   7.833   4.398 -1.4082  1.9008 -0.2067
 3592SOL     OW14563   5.318   0.023   0.950 -0.1845  0.0862 -0.2145
 3592SOL    HW114564   5.334   0.113   0.978  2.2282 -0.4149  0.2074
 3592SOL    HW214565   5.404  -0.018   0.946 -1.3131 -2.9151  1.9386
 3593SOL     OW14566   3.245   2.513   8.373  0.1720 -0.5661  0.2260
 3593SOL    HW114567   3.233   2.419   8.356 -1.3909 -0.4540  0.5517
 3593SOL    HW214568   3.294   2.517   8.455  2.4265 -1.0768 -1.0178
 3594SOL     OW14569   5.117   1.507   4.168 -0.1546 -0.0626 -0.9678
 3594SOL    HW114570   5.142   1.424   4.126 -1.4608 -0.8480 -0.2432
 3594SOL    HW214571   5.023   1.513   4.154 -0.0332  1.4900 -1.2945
 3595SOL     OW14572   1.088   4.849   7.362 -0.3085 -0.6414 -0.1709
 3595SOL    HW114573   1.032   4.772   7.372 -0.1894 -0.6037  0.9596
 3595SOL    HW214574   1.109   4.875   7.452  0.2785  0.2555 -0.5513
 3596SOL     OW14575   8.738   1.098   8.224 -0.3004  0.2419 -0.2575
 3596SOL    HW114576   8.654   1.052   8.229 -0.7521  0.7067 -2.3945
 3596SOL    HW214577   8.793   1.041   8.170 -0.2962  1.3469 -1.4697
 3597SOL     OW14578   2.759   7.522   6.597  0.6358 -0.3475  0.4222
 3597SOL    HW114579   2.739   7.565   6.514 -2.4894  0.9683  1.6931
 3597SOL    HW214580   2.741   7.429   6.581 -1.1576  0.0539 -0.0870
 3598SOL     OW14581  10.083   7.181   0.739 -0.5745 -0.5326 -0.1669
 3598SOL    HW114582  10.009   7.218   0.786  0.6985 -0.3693  1.8072
 3598SOL    HW214583  10.106   7.102   0.787  0.0474 -1.0227 -1.2214
 3599SOL     OW14584   1.118   7.189   3.132 -0.6925  0.1387  0.9691
 3599SOL    HW114585   1.170   7.171   3.210  0.3806  0.5828  0.3703
 3599SOL    HW214586   1.149   7.275   3.102  0.1444 -0.7694 -0.9199
 3600SOL     OW14587   8.991   3.352   3.075  0.1676  0.5089 -0.8262
 3600SOL    HW114588   9.083   3.376   3.086  0.6124 -1.7104  1.1396
 3600SOL    HW214589   8.943   3.415   3.128  0.8955 -0.1672  0.7148
 3601SOL     OW14590   7.401   5.976   6.165  0.6169 -0.8258 -0.4278
 3601SOL    HW114591   7.388   5.882   6.160  0.7046 -0.9976  1.7480
 3601SOL    HW214592   7.317   6.011   6.196  1.3779 -0.5441  1.4493
 3602SOL     OW14593   9.373  10.095   5.301  0.7518  0.2950 -0.1235
 3602SOL    HW114594   9.386  10.014   5.251  1.2072  0.7167 -0.7076
 3602SOL    HW214595   9.310  10.072   5.369 -0.3328 -0.1603 -1.2434
 3603SOL     OW14596   0.511   9.983   6.192  0.3153  0.4672  0.4748
 3603SOL    HW114597   0.542   9.952   6.106 -0.4526  0.6172  0.1349
 3603SOL    HW214598   0.517   9.906   6.248 -3.3923 -1.0100 -0.8306
 3604SOL     OW14599   1.200   9.440   0.188 -0.0255 -0.1475 -0.0215
 3604SOL    HW114600   1.178   9.353   0.222  1.3329 -0.3403  0.4298
 3604SOL    HW214601   1.133   9.458   0.121 -0.8476 -1.1435  0.5127
 3605SOL     OW14602   7.400   9.919   8.006  0.4715  0.1950  0.7608
 3605SOL    HW114603   7.354   9.888   7.929  1.8153 -1.3636  0.5371
 3605SOL    HW214604   7.382   9.854   8.073  0.3199  0.8911  1.4109
 3606SOL     OW14605   3.972   6.196   7.756  0.1698  0.7898  0.7322
 3606SOL    HW114606   3.998   6.256   7.686 -0.8083 -0.7654 -1.0572
 3606SOL    HW214607   3.879   6.216   7.771 -0.3636 -0.6266 -0.3678
 3607SOL     OW14608   8.423   1.388   3.368  0.2001 -0.2964 -0.2149
 3607SOL    HW114609   8.466   1.474   3.374 -0.1300 -0.2256  2.6755
 3607SOL    HW214610   8.352   1.402   3.306  0.5778  1.3310 -0.3452
 3608SOL     OW14611   9.402   1.050   6.746  0.2242  0.3659  0.9776
 3608SOL    HW114612   9.339   0.981   6.729  0.5154  0.3148  0.0245
 3608SOL    HW214613   9.357   1.131   6.719  0.6118  0.3090  0.1125
 3609SOL     OW14614   2.747   3.908   1.615 -0.0911  0.6902 -0.2235
 3609SOL    HW114615   2.672   3.853   1.638  0.1913 -0.2250 -1.4222
 3609SOL    HW214616   2.729   3.992   1.659 -1.6351  0.3720 -0.1907
 3610SOL     OW14617   5.135   9.237   5.224  0.1034 -0.0333  0.0390
 3610SOL    HW114618   5.105   9.235   5.315  0.1997  0.7923  0.0956
 3610SOL    HW214619   5.100   9.318   5.189 -1.3075 -1.1045 -1.1600
 3611SOL     OW14620   9.552   9.590   6.907 -0.1787 -0.3047  0.7812
 3611SOL    HW114621   9.581   9.584   6.816  0.6187  2.9547  0.7086
 3611SOL    HW214622   9.625   9.553   6.957  0.6691  0.5321  0.2031
 3612SOL     OW14623   6.664   3.915   5.904  0.2964 -0.0584 -0.6232
 3612SOL    HW114624   6.568   3.915   5.902  0.1293 -0.5978  2.5427
 3612SOL    HW214625   6.689   3.840   5.850 -1.0220  0.0546 -1.4379
 3613SOL     OW14626   4.309   1.995   5.903 -0.3570  0.4242 -0.1058
 3613SOL    HW114627   4.365   1.918   5.892 -0.7752  0.0869  0.0868
 3613SOL    HW214628   4.240   1.966   5.963 -0.0294  1.2085  0.6713
 3614SOL     OW14629   8.292   3.246   5.079  0.0927  0.0375  0.1532
 3614SOL    HW114630   8.384   3.232   5.100 -0.4402 -1.9071  1.4000
 3614SOL    HW214631   8.292   3.266   4.985  1.7074 -0.6859 -0.0408
 3615SOL     OW14632   3.874   9.528   8.458 -0.1851 -0.3709 -0.4269
 3615SOL    HW114633   3.908   9.586   8.527  0.6296 -0.1529 -1.0050
 3615SOL    HW214634   3.948   9.512   8.401 -0.4404 -1.8818 -0.3700
 3616SOL     OW14635   8.379   2.793   8.874 -0.5581 -0.3413 -0.2067
 3616SOL    HW114636   8.305   2.843   8.910 -0.9149 -0.8163 -0.2710
 3616SOL    HW214637   8.408   2.738   8.947 -0.9906 -0.9747 -0.5084
 3617SOL     OW14638  10.237   7.173   0.329  0.2006 -0.1829  0.3581
 3617SOL    HW114639  10.174   7.229   0.375  0.1525  0.0941 -0.0433
 3617SOL    HW214640  10.265   7.110   0.396 -0.8775 -0.6328  0.4050
 3618SOL     OW14641  10.335   0.326   4.250 -0.8246 -0.0259 -0.0806
 3618SOL    HW114642  10.406   0.307   4.189 -0.3078 -1.5034  0.9197
 3618SOL    HW214643  10.257   0.335   4.194 -0.1066  0.2214 -1.0657
 3619SOL     OW14644   0.518   9.413   3.879  0.2351  0.0111  0.0576
 3619SOL    HW114645   0.487   9.394   3.967 -0.9893  0.5901 -0.2304
 3619SOL    HW214646   0.444   9.454   3.835  0.0832 -2.1868 -1.9335
 3620SOL     OW14647   1.916   3.480   4.424  0.4043 -0.1957 -0.4864
 3620SOL    HW114648   1.865   3.404   4.397  0.8715 -1.3295  1.6281
 3620SOL    HW214649   1.909   3.541   4.350 -1.4060 -1.5657 -1.5232
 3621SOL     OW14650   6.920   4.656   1.494  0.1567  0.1828 -0.1632
 3621SOL    HW114651   6.859   4.656   1.419  1.1527  0.1842 -0.9935
 3621SOL    HW214652   6.864   4.638   1.570 -1.1262  1.6742 -0.6896
 3622SOL     OW14653   3.690   3.590   2.422  0.1642  0.4659 -0.8485
 3622SOL    HW114654   3.700   3.668   2.367 -0.3223  1.8545  0.9440
 3622SOL    HW214655   3.708   3.621   2.511 -0.3430 -1.4135 -0.0517
 3623SOL     OW14656   9.113   6.148   6.859  0.2480 -0.3685  0.3772
 3623SOL    HW114657   9.096   6.227   6.807 -1.9789 -1.3819 -0.5720
 3623SOL    HW214658   9.091   6.173   6.949  1.4812  0.6172  0.4357
 3624SOL     OW14659   4.832   0.445   4.475 -0.4072 -0.5334 -0.2770
 3624SOL    HW114660   4.747   0.404   4.491 -0.4003 -0.6988 -0.6369
 3624SOL    HW214661   4.869   0.461   4.562 -0.0600 -2.0207 -0.1142
 3625SOL     OW14662   2.192   3.047   7.099  0.0504  0.0787  0.0656
 3625SOL    HW114663   2.160   2.994   7.172  1.7718  1.4435  1.9128
 3625SOL    HW214664   2.161   3.136   7.118 -0.5640  0.2646 -1.5979
 3626SOL     OW14665   9.361   2.376   0.854 -0.4121  0.3386 -0.0878
 3626SOL    HW114666   9.286   2.432   0.875  0.4776  1.6626 -0.3311
 3626SOL    HW214667   9.365   2.375   0.759  0.2830  0.8304 -0.0662
 3627SOL     OW14668   0.317   7.445   3.926  0.4542  0.0760 -0.0624
 3627SOL    HW114669   0.314   7.366   3.872 -0.6024  0.0936 -0.0553
 3627SOL    HW214670   0.237   7.442   3.978  0.3456  1.1988 -0.1257
 3628SOL     OW14671   7.811   2.687   6.389 -0.3140 -0.4142 -0.7928
 3628SOL    HW114672   7.783   2.620   6.450  0.6332 -0.2464 -0.1526
 3628SOL    HW214673   7.900   2.709   6.416 -0.4570  0.8172 -1.2210
 3629SOL     OW14674   5.401   0.692   3.344 -0.1039  0.5370 -0.0223
 3629SOL    HW114675   5.350   0.770   3.366 -0.6749  0.1808 -0.0819
 3629SOL    HW214676   5.408   0.695   3.248 -0.2039  0.4656 -0.0317
 3630SOL     OW14677   9.113   5.319   7.899 -0.3689  0.4997 -0.1152
 3630SOL    HW114678   9.152   5.236   7.871 -0.5984  0.0874  0.7496
 3630SOL    HW214679   9.019   5.304   7.896 -0.4203 -0.0819  2.2638
 3631SOL     OW14680   0.340   9.628   0.113 -0.3933 -0.7145  0.2879
 3631SOL    HW114681   0.417   9.571   0.105 -1.2717 -2.1671  1.5765
 3631SOL    HW214682   0.267   9.576   0.081 -0.6287  1.5235 -3.3261
 3632SOL     OW14683   4.010   5.662   4.107 -0.2982  0.3411  0.4482
 3632SOL    HW114684   3.943   5.637   4.171 -0.8319 -0.3146 -0.3565
 3632SOL    HW214685   3.961   5.699   4.034  0.1953 -0.3388 -0.2398
 3633SOL     OW14686   1.433   4.402   4.338 -0.2767  0.3931 -0.2666
 3633SOL    HW114687   1.527   4.395   4.352 -0.3835  0.2397  0.4134
 3633SOL    HW214688   1.417   4.496   4.330  0.3578  0.3519 -3.6487
 3634SOL     OW14689   8.084   9.015   4.272  0.0579  0.5655  0.0910
 3634SOL    HW114690   8.104   9.066   4.350 -0.1632  1.8915 -0.7029
 3634SOL    HW214691   7.989   9.007   4.272 -0.0593  1.8166 -0.7997
 3635SOL     OW14692   4.842   3.990   9.010  0.2234  0.1366  0.4298
 3635SOL    HW114693   4.781   4.060   9.035 -0.5391 -0.5531  0.5395
 3635SOL    HW214694   4.861   4.008   8.918  0.3788  0.7367  0.5706
 3636SOL     OW14695   0.947   6.923   5.946  0.2946 -0.1696  0.5264
 3636SOL    HW114696   0.933   7.017   5.933  1.2485  0.1515  1.6060
 3636SOL    HW214697   0.866   6.891   5.985  0.7903  0.7142  2.4009
 3637SOL     OW14698   3.452   3.511   0.626  0.5325 -0.1288  0.4132
 3637SOL    HW114699   3.476   3.470   0.709  0.0003  0.1625  0.7178
 3637SOL    HW214700   3.528   3.496   0.569  0.6264 -0.9289  0.7303
 3638SOL     OW14701   8.974   3.839   4.794 -0.8027 -0.0632  0.0555
 3638SOL    HW114702   8.919   3.917   4.799 -0.9586 -0.0944 -0.8978
 3638SOL    HW214703   8.958   3.803   4.706 -0.8192 -1.2318  0.5107
 3639SOL     OW14704   7.882   1.630   3.686  0.0828  0.2341 -0.6990
 3639SOL    HW114705   7.952   1.590   3.738  0.1708  1.6530  0.3198
 3639SOL    HW214706   7.906   1.612   3.595  0.8427 -0.7812 -0.3228
 3640SOL     OW14707   9.553   1.639   0.718 -0.3436  0.0296  0.5380
 3640SOL    HW114708   9.622   1.705   0.727 -0.5698  0.4020 -0.3087
 3640SOL    HW214709   9.590   1.560   0.758  0.6366  0.1920 -0.0046
 3641SOL     OW14710   6.782   9.971   1.225  0.0190 -0.4973  0.2773
 3641SOL    HW114711   6.877   9.969   1.234  0.1791  1.3492 -0.5071
 3641SOL    HW214712   6.761   9.896   1.170  1.0547 -0.7216  0.1804
 3642SOL     OW14713   8.410   4.826   3.733  0.2805 -0.0774  0.0769
 3642SOL    HW114714   8.505   4.836   3.746  0.4439 -1.7484  0.4643
 3642SOL    HW214715   8.393   4.735   3.757 -1.0070 -0.5476 -2.2774
 3643SOL     OW14716   2.149   0.021   7.165 -0.1938  0.1983  0.2466
 3643SOL    HW114717   2.211  -0.021   7.226 -1.4915  0.9393  2.1683
 3643SOL    HW214718   2.073   0.042   7.219 -1.7550  0.2143 -1.8374
 3644SOL     OW14719   4.958   2.854   5.965  0.0678  0.7817 -0.1312
 3644SOL    HW114720   4.984   2.809   5.884  1.0063  2.3065 -0.7157
 3644SOL    HW214721   4.866   2.874   5.952  0.7204  3.0870 -1.9214
 3645SOL     OW14722   7.333   3.133   7.104 -0.4300  0.6830 -0.1625
 3645SOL    HW114723   7.248   3.160   7.069 -0.9817 -1.5562 -0.7619
 3645SOL    HW214724   7.311   3.075   7.177  0.4841 -0.9900 -1.1363
 3646SOL     OW14725   8.113   6.799   9.123  0.1077 -0.0582 -0.0212
 3646SOL    HW114726   8.115   6.774   9.216  0.9610 -0.6384 -0.1755
 3646SOL    HW214727   8.052   6.872   9.119 -1.6438 -1.4093  0.6448
 3647SOL     OW14728   3.714   2.317   7.700  0.4239 -0.3338  0.4940
 3647SOL    HW114729   3.680   2.265   7.772 -0.6753 -0.5934 -0.1943
 3647SOL    HW214730   3.670   2.401   7.707  0.7493 -0.1557  0.4598
 3648SOL     OW14731   9.503   1.845   7.248 -0.3407  0.3262 -0.0905
 3648SOL    HW114732   9.580   1.893   7.277 -0.3407  0.1270  0.2352
 3648SOL    HW214733   9.531   1.798   7.169  0.3774 -1.1368  0.9876
 3649SOL     OW14734   6.997   0.747   9.166 -0.2390 -0.0598 -0.1748
 3649SOL    HW114735   7.024   0.777   9.253 -0.4089 -0.7888  0.1415
 3649SOL    HW214736   6.926   0.805   9.142  0.0811  0.4104 -0.0077
 3650SOL     OW14737   0.545   3.602   9.292  0.4455 -0.0203  1.2650
 3650SOL    HW114738   0.491   3.594   9.371  0.3300 -0.8572  1.1062
 3650SOL    HW214739   0.484   3.625   9.223  0.7875  2.6587  1.7371
 3651SOL     OW14740   0.070   8.037   0.774  0.0963  0.2695  0.2017
 3651SOL    HW114741   0.014   8.098   0.822 -1.4689 -1.6564  0.9986
 3651SOL    HW214742   0.017   8.009   0.699 -0.3900 -2.0236  1.2787
 3652SOL     OW14743   1.624   6.208   9.005  0.3919  0.1344  0.0221
 3652SOL    HW114744   1.602   6.267   9.078  0.9490  0.7352 -0.2899
 3652SOL    HW214745   1.599   6.121   9.037  0.3063  0.4333  0.7961
 3653SOL     OW14746   2.285   6.024   5.000 -0.0349 -0.1652  0.2549
 3653SOL    HW114747   2.351   6.089   5.024 -0.3600  0.0135  0.6900
 3653SOL    HW214748   2.206   6.076   4.984  0.3780 -0.1772 -2.1402
 3654SOL     OW14749   6.111   4.851   1.558 -0.2572 -0.1848  0.9019
 3654SOL    HW114750   6.045   4.911   1.526  0.1809 -0.4023 -0.4568
 3654SOL    HW214751   6.061   4.776   1.592 -0.7329  0.0038  0.6211
 3655SOL     OW14752   1.643   8.569   9.569  0.1515  0.6663 -0.7055
 3655SOL    HW114753   1.623   8.580   9.476 -2.7969 -1.5157 -0.4753
 3655SOL    HW214754   1.639   8.475   9.583 -1.2627  1.0388  1.9435
 3656SOL     OW14755   4.087   3.054   7.518 -0.0848  0.1485  0.2334
 3656SOL    HW114756   4.156   3.082   7.578 -0.4657  1.4449  0.1046
 3656SOL    HW214757   4.026   3.128   7.516 -1.9158 -1.2657  0.9515
 3657SOL     OW14758   4.464   0.138   6.239  0.5572 -1.1619 -0.3308
 3657SOL    HW114759   4.401   0.197   6.198  0.2385 -1.4728 -0.2934
 3657SOL    HW214760   4.411   0.075   6.287  0.9337 -0.4154  1.1377
 3658SOL     OW14761   8.287   9.862   1.406  0.3275 -0.5343 -0.1780
 3658SOL    HW114762   8.250   9.805   1.474  1.4995 -0.9312  0.1520
 3658SOL    HW214763   8.211   9.901   1.363 -0.5098 -2.0176 -0.1200
 3659SOL     OW14764   8.617   9.838   2.798 -0.1077  0.2727  0.3576
 3659SOL    HW114765   8.546   9.899   2.818  0.3448  0.7582  0.5108
 3659SOL    HW214766   8.641   9.859   2.708  0.8178  1.1245  0.7823
 3660SOL     OW14767   1.159   5.562   9.849  0.0511  0.1996  0.0843
 3660SOL    HW114768   1.202   5.627   9.793 -2.8691  0.8218 -1.6791
 3660SOL    HW214769   1.093   5.521   9.792  0.0723 -2.5726  1.8339
 3661SOL     OW14770   1.957   0.799   6.004  0.5573 -0.1585  0.3811
 3661SOL    HW114771   1.932   0.814   5.912 -0.1127  0.2622  0.6218
 3661SOL    HW214772   2.017   0.871   6.024  2.2809 -1.3606 -0.2991
 3662SOL     OW14773   3.083   9.886   6.070  0.1119  0.0008 -0.6885
 3662SOL    HW114774   3.023   9.881   6.144  0.5311  2.6878 -0.0479
 3662SOL    HW214775   3.029   9.870   5.993 -0.4268 -2.3530  0.1001
 3663SOL     OW14776   3.935   4.607   8.156  0.1597  0.1547  0.3782
 3663SOL    HW114777   4.014   4.610   8.102  0.8039  1.6653  1.3311
 3663SOL    HW214778   3.963   4.566   8.238 -0.7177 -1.7635 -0.2264
 3664SOL     OW14779   4.896   4.196   3.418  0.0790 -0.0670 -0.3410
 3664SOL    HW114780   4.884   4.145   3.339  2.6482 -0.0846 -0.7999
 3664SOL    HW214781   4.830   4.266   3.412 -2.8467 -2.5985 -0.1741
 3665SOL     OW14782   9.194   8.772   7.844  0.4558  0.3580  0.2451
 3665SOL    HW114783   9.276   8.804   7.883  1.8064 -0.1413 -1.9624
 3665SOL    HW214784   9.202   8.795   7.751 -1.6608 -0.2783 -0.1423
 3666SOL     OW14785   9.926   9.928   4.017  0.2470 -0.0236  0.3526
 3666SOL    HW114786   9.873   9.852   4.040  0.4909 -0.2259  0.2527
 3666SOL    HW214787   9.877   9.970   3.946 -0.2974  0.3705  0.9544
 3667SOL     OW14788   8.075   6.577  10.258 -0.2641  0.0068 -0.4685
 3667SOL    HW114789   8.097   6.612  10.172  1.0174 -2.4462 -1.2272
 3667SOL    HW214790   8.101   6.645  10.319  1.2654  0.7646 -1.8937
 3668SOL     OW14791   8.140   7.535   3.366  0.6024 -0.2700 -0.1160
 3668SOL    HW114792   8.214   7.492   3.323  0.3133  0.1727 -1.0847
 3668SOL    HW214793   8.156   7.628   3.352  0.3621 -0.1314  0.5212
 3669SOL     OW14794   2.549   2.814  10.067 -0.4718  0.6469 -0.1878
 3669SOL    HW114795   2.542   2.827   9.972 -1.3362  0.1946 -0.1941
 3669SOL    HW214796   2.550   2.719  10.078 -0.0413  0.6989  0.2401
 3670SOL     OW14797   5.212   5.667   6.099  0.0371 -0.2858 -0.0562
 3670SOL    HW114798   5.270   5.599   6.134 -1.1565 -1.4142 -0.1878
 3670SOL    HW214799   5.242   5.680   6.009  2.1451  1.5378  0.8075
 3671SOL     OW14800   5.555   0.455  10.143 -0.0213 -0.3446  0.3647
 3671SOL    HW114801   5.582   0.525  10.083 -1.1111 -0.1037  0.1402
 3671SOL    HW214802   5.465   0.477  10.166  0.1456 -0.8252  1.5447
 3672SOL     OW14803   9.068   1.557   3.483  0.2224  0.3863 -0.2633
 3672SOL    HW114804   8.982   1.584   3.513  0.0850 -0.5361  0.2029
 3672SOL    HW214805   9.126   1.629   3.508 -0.8009  2.3747 -3.0808
 3673SOL     OW14806   5.171   5.155   5.012 -0.2911 -0.5463 -0.0137
 3673SOL    HW114807   5.096   5.213   5.019 -0.2221 -0.5905  1.1714
 3673SOL    HW214808   5.136   5.074   4.974 -0.7007 -0.3234 -0.1139
 3674SOL     OW14809   8.774   5.433   6.986  0.8212  0.1083  0.3212
 3674SOL    HW114810   8.700   5.439   6.925  1.0767  0.9133  0.0697
 3674SOL    HW214811   8.779   5.341   7.009 -1.4326  0.2824  1.8005
 3675SOL     OW14812   3.125   0.232   0.755  0.5142 -0.4887 -0.3338
 3675SOL    HW114813   3.192   0.183   0.708 -0.4572 -2.5798  0.3459
 3675SOL    HW214814   3.059   0.167   0.777 -0.8490  1.1505  0.6524
 3676SOL     OW14815   6.312   2.285   4.251 -0.3736  0.6549 -0.3371
 3676SOL    HW114816   6.224   2.298   4.215 -0.9215 -0.0565  0.7003
 3676SOL    HW214817   6.369   2.278   4.175 -1.3631  0.1377 -1.0462
 3677SOL     OW14818   6.714   5.207   9.312 -0.0837 -0.5199 -0.1965
 3677SOL    HW114819   6.801   5.179   9.339 -0.1095  0.4344  0.9649
 3677SOL    HW214820   6.728   5.252   9.228  0.6002 -0.0972  0.1300
 3678SOL     OW14821   9.230   1.756   3.540 -1.0705 -0.1213  0.4192
 3678SOL    HW114822   9.284   1.811   3.483 -0.5772 -1.9293 -0.9692
 3678SOL    HW214823   9.293   1.695   3.580 -1.8588 -1.3574 -0.1423
 3679SOL     OW14824   1.815   4.545   5.239 -0.2463 -0.6704  0.1196
 3679SOL    HW114825   1.752   4.609   5.205  0.7921 -0.1657 -0.9167
 3679SOL    HW214826   1.881   4.537   5.170  0.1472 -2.1613  0.6311
 3680SOL     OW14827   8.275   8.974   3.483  0.2008  0.3118 -0.2377
 3680SOL    HW114828   8.282   9.013   3.396 -0.1352  0.8091 -0.0445
 3680SOL    HW214829   8.254   8.882   3.466 -2.0985  0.8539 -0.6817
 3681SOL     OW14830   5.935   4.129   2.629  0.0592  0.2325  0.1338
 3681SOL    HW114831   5.920   4.083   2.712  1.7038  0.4150  0.5648
 3681SOL    HW214832   5.874   4.203   2.631  0.5339  0.6104  1.5019
 3682SOL     OW14833   4.024   4.406   1.160  0.3645  0.2779 -0.4014
 3682SOL    HW114834   4.039   4.349   1.085  2.4759 -0.0567  0.1944
 3682SOL    HW214835   3.999   4.490   1.122 -2.8216 -0.9219 -1.3018
 3683SOL     OW14836   6.111   6.157   3.683  0.7515 -0.1709 -0.1764
 3683SOL    HW114837   6.154   6.162   3.768 -0.9956 -1.9390  0.8925
 3683SOL    HW214838   6.098   6.063   3.668  0.5780  0.1190 -2.1949
 3684SOL     OW14839   0.913   9.055   7.963 -0.0831  0.0700 -0.1690
 3684SOL    HW114840   0.963   9.087   8.038 -0.3611  0.5625 -0.1910
 3684SOL    HW214841   0.829   9.099   7.969 -0.3285 -0.3554 -0.4297
 3685SOL     OW14842   7.864   9.179   1.631  0.5352  0.6346 -0.2252
 3685SOL    HW114843   7.802   9.120   1.588 -1.1527  1.0530  1.5028
 3685SOL    HW214844   7.810   9.232   1.689  2.5629  0.6523  1.7891
 3686SOL     OW14845   5.855   1.221   2.720  0.0577  0.1911  0.0356
 3686SOL    HW114846   5.765   1.248   2.736 -0.2976 -0.4815 -0.7158
 3686SOL    HW214847   5.856   1.195   2.628  0.1389 -3.0819  0.8487
 3687SOL     OW14848   4.074   8.756   9.126 -0.1538  0.3730 -0.2189
 3687SOL    HW114849   3.990   8.727   9.093  1.0638 -2.2805 -1.2903
 3687SOL    HW214850   4.063   8.759   9.221 -1.0200 -1.6204 -0.2073
 3688SOL     OW14851   3.314   3.606   7.920  0.7422  0.4225  0.4506
 3688SOL    HW114852   3.311   3.517   7.884 -2.3097  0.3686  0.6281
 3688SOL    HW214853   3.375   3.599   7.994  0.8779 -1.4296  0.2152
 3689SOL     OW14854   0.158   4.998   2.729  0.1530 -0.2342  0.5696
 3689SOL    HW114855   0.223   5.043   2.783 -0.2735 -0.7003  1.4949
 3689SOL    HW214856   0.085   4.981   2.788 -0.5142 -0.3686 -0.2711
 3690SOL     OW14857   5.994   2.153   3.237 -0.0443 -0.0331 -0.2849
 3690SOL    HW114858   6.081   2.187   3.255  0.1901 -0.5881 -0.3539
 3690SOL    HW214859   5.935   2.227   3.253  0.2869 -0.0851  1.3538
 3691SOL     OW14860   6.451   5.607   8.840  0.3485  0.7885 -0.1586
 3691SOL    HW114861   6.382   5.542   8.849  1.6230 -0.5568  0.3389
 3691SOL    HW214862   6.407   5.685   8.808 -1.4893  0.1525  0.6860
 3692SOL     OW14863   2.911   5.332   8.934  0.1861  0.0500 -0.0838
 3692SOL    HW114864   2.860   5.369   8.862 -2.5573  0.8875  2.1294
 3692SOL    HW214865   2.919   5.239   8.913 -1.8126  0.0084 -0.8058
 3693SOL     OW14866   7.992   1.792   9.641  0.3565 -0.5423  0.1830
 3693SOL    HW114867   7.973   1.884   9.660  1.7001 -0.0186 -0.8375
 3693SOL    HW214868   7.995   1.787   9.546  4.0099 -0.7608  0.1685
 3694SOL     OW14869   7.536   0.359   2.617 -0.0380  0.2743 -0.2106
 3694SOL    HW114870   7.532   0.419   2.691  0.4828  0.9890 -0.7487
 3694SOL    HW214871   7.464   0.385   2.561  0.8443  1.1439 -0.9794
 3695SOL     OW14872   9.670   4.290   9.454  0.2385 -0.4761 -0.3245
 3695SOL    HW114873   9.605   4.221   9.441 -0.0287 -0.1804 -0.5854
 3695SOL    HW214874   9.675   4.301   9.549 -0.9793  0.3139 -0.3284
 3696SOL     OW14875   7.648   3.166   5.632  0.5484  0.1564 -0.1392
 3696SOL    HW114876   7.708   3.233   5.665 -1.6870  2.1521  0.1138
 3696SOL    HW214877   7.567   3.213   5.614 -1.3196 -2.5821  0.5328
 3697SOL     OW14878   6.949   4.038   9.692  0.4204  0.1448  0.5201
 3697SOL    HW114879   6.913   4.088   9.765 -1.1026 -1.1782  0.7253
 3697SOL    HW214880   7.003   4.101   9.644 -3.3331  2.7908 -0.7059
 3698SOL     OW14881   0.562   2.808   3.243 -0.0994  0.1946 -0.0478
 3698SOL    HW114882   0.547   2.835   3.152  1.0365 -0.5393 -0.4798
 3698SOL    HW214883   0.656   2.816   3.255 -0.4100  1.9696  1.6554
 3699SOL     OW14884   2.891   9.750   7.397 -0.3632 -0.0155  0.1051
 3699SOL    HW114885   2.798   9.763   7.416 -0.1074  1.0445  0.7288
 3699SOL    HW214886   2.934   9.753   7.483  0.3288  0.3550 -0.2431
 3700SOL     OW14887   2.197   1.779   7.403 -0.4888  0.4638  0.1783
 3700SOL    HW114888   2.224   1.740   7.486  0.4590 -0.5105 -0.5433
 3700SOL    HW214889   2.126   1.722   7.373  0.1233 -0.0585 -0.3280
 3701SOL     OW14890   7.210   7.651   1.726  0.0524  0.3410  0.1294
 3701SOL    HW114891   7.240   7.686   1.810  3.9911 -1.6710 -0.1946
 3701SOL    HW214892   7.199   7.728   1.670  1.3859  1.4990  1.3872
 3702SOL     OW14893   9.281   3.326   0.660 -0.0962  0.3971  0.1725
 3702SOL    HW114894   9.271   3.418   0.635 -2.3595  0.7269  1.9400
 3702SOL    HW214895   9.343   3.328   0.732 -0.2431  0.5701  0.2974
 3703SOL     OW14896   3.301   9.383   8.772 -0.3846  0.6163 -0.3223
 3703SOL    HW114897   3.236   9.397   8.841  0.3125 -1.2457  0.7619
 3703SOL    HW214898   3.385   9.394   8.815  0.0636 -0.2939 -0.9339
 3704SOL     OW14899   6.922   9.287   7.371 -0.1799  0.1380 -0.6473
 3704SOL    HW114900   7.002   9.330   7.403 -1.0938  0.6749  1.0497
 3704SOL    HW214901   6.852   9.349   7.390 -1.6782 -2.2202  2.6096
 3705SOL     OW14902   0.094   7.014   6.526  0.4303  0.3389 -0.1045
 3705SOL    HW114903   0.158   6.956   6.567  0.6279 -0.6545 -1.7271
 3705SOL    HW214904   0.112   7.100   6.563  1.1332 -0.3517  1.2321
 3706SOL     OW14905   3.215   6.227   2.354  0.0974  0.1579  0.0573
 3706SOL    HW114906   3.169   6.309   2.373 -1.3050 -1.1084  2.7087
 3706SOL    HW214907   3.302   6.254   2.324 -1.1830  2.5865 -1.8094
 3707SOL     OW14908   3.531   1.950   5.489  0.4770 -0.4414  0.0996
 3707SOL    HW114909   3.509   2.026   5.435 -0.5745 -1.1154 -0.4531
 3707SOL    HW214910   3.524   1.982   5.579  0.9770  0.3583 -0.1426
 3708SOL     OW14911   4.068   1.965   8.345 -0.2879 -0.3087 -0.1172
 3708SOL    HW114912   4.068   1.929   8.434  3.5688  0.4707  0.3707
 3708SOL    HW214913   4.065   2.060   8.358  1.8126 -0.1265 -0.6439
 3709SOL     OW14914   9.240   7.087   6.496 -0.5833  0.0617  0.6744
 3709SOL    HW114915   9.301   7.024   6.457  0.5492  0.6315  1.4682
 3709SOL    HW214916   9.195   7.037   6.564 -1.5084 -0.5410 -0.3523
 3710SOL     OW14917   0.810  10.059   7.168 -0.2600  0.7960 -0.1267
 3710SOL    HW114918   0.779  10.046   7.257 -1.3624 -1.0561 -0.7042
 3710SOL    HW214919   0.732  10.087   7.119 -0.0763  0.1471 -0.8125
 3711SOL     OW14920   3.211   4.154   7.534  0.4467 -0.3277  0.0245
 3711SOL    HW114921   3.196   4.077   7.588 -1.2518 -0.2210 -0.2458
 3711SOL    HW214922   3.254   4.121   7.456  0.7591 -0.8153  0.3946
 3712SOL     OW14923   3.102   4.701   4.136 -0.1576 -0.1889 -0.3900
 3712SOL    HW114924   3.083   4.609   4.156 -0.0033  0.0785  1.1579
 3712SOL    HW214925   3.145   4.734   4.215 -2.2227  1.8152  0.0070
 3713SOL     OW14926   5.809   5.912   2.493 -0.1003  0.3456  0.0348
 3713SOL    HW114927   5.796   5.827   2.451 -0.5098  0.5657 -0.2927
 3713SOL    HW214928   5.885   5.899   2.550  0.3566 -0.0068 -0.6369
 3714SOL     OW14929   0.198   9.481   6.598 -0.0443 -0.1144 -0.2992
 3714SOL    HW114930   0.120   9.531   6.623  0.1138  0.4842 -0.9780
 3714SOL    HW214931   0.169   9.390   6.597 -0.7235  0.0997 -0.4933
 3715SOL     OW14932   5.423   7.136   3.232  0.3960 -0.1829  0.3045
 3715SOL    HW114933   5.465   7.144   3.317 -0.8443 -1.4173  1.0808
 3715SOL    HW214934   5.451   7.050   3.199  0.9690  0.3363 -0.6115
 3716SOL     OW14935   5.778   8.875   0.532  0.3539 -0.6166  0.0052
 3716SOL    HW114936   5.750   8.785   0.550 -1.6275  0.4485  3.3429
 3716SOL    HW214937   5.828   8.901   0.610 -0.5878  1.6277 -0.0359
 3717SOL     OW14938   2.581  10.106   1.275  0.3029  0.8926 -0.2566
 3717SOL    HW114939   2.674  10.113   1.252  0.3770  2.0900  0.2944
 3717SOL    HW214940   2.542  10.186   1.238  0.0401  1.8141  1.8749
 3718SOL     OW14941   1.847   4.495   8.499 -0.7809 -0.2094  0.0824
 3718SOL    HW114942   1.898   4.473   8.420 -0.0083  0.5506  0.3491
 3718SOL    HW214943   1.799   4.574   8.475 -0.4498  0.0945  0.4026
 3719SOL     OW14944   9.899   8.247   5.563 -0.3569 -0.0784  0.0477
 3719SOL    HW114945   9.878   8.309   5.492  1.0537 -1.5717 -1.7844
 3719SOL    HW214946   9.825   8.186   5.564  0.2480 -0.8739 -1.1629
 3720SOL     OW14947   0.276   8.472   0.039  0.8340 -0.4698  0.0718
 3720SOL    HW114948   0.313   8.415  -0.029  2.3921  1.1731 -0.5536
 3720SOL    HW214949   0.237   8.412   0.102  1.7815 -2.1926 -0.8965
 3721SOL     OW14950   0.865   2.450   4.389 -0.2183 -0.1039  0.1589
 3721SOL    HW114951   0.857   2.464   4.483  2.4477  2.1826  0.1871
 3721SOL    HW214952   0.837   2.533   4.350  1.7971  0.1958 -0.7714
 3722SOL     OW14953   9.374   4.636   8.868 -0.7604  0.5571 -0.1787
 3722SOL    HW114954   9.416   4.698   8.809 -0.8451  0.5148 -0.2827
 3722SOL    HW214955   9.323   4.579   8.811 -2.2326  1.5764  0.0652
 3723SOL     OW14956   8.960   2.039   8.079  0.1205  0.8268  0.0401
 3723SOL    HW114957   8.912   1.977   8.134  1.1312 -0.4743 -0.4971
 3723SOL    HW214958   9.052   2.016   8.091  0.3575  0.0104 -2.7261
 3724SOL     OW14959   5.970   4.994   6.707 -0.1006 -0.1597 -0.1370
 3724SOL    HW114960   6.022   4.916   6.728 -2.2588 -2.0092 -1.2635
 3724SOL    HW214961   6.027   5.067   6.730  2.7552 -2.0325 -0.7152
 3725SOL     OW14962   2.607   6.878   3.137 -0.4167  0.0946  0.1392
 3725SOL    HW114963   2.586   6.809   3.199 -0.3448 -1.0203 -1.0370
 3725SOL    HW214964   2.702   6.873   3.128 -0.4842 -0.1262 -0.4757
 3726SOL     OW14965   7.231   0.470   0.555 -0.5670  0.2760 -0.3599
 3726SOL    HW114966   7.248   0.562   0.576 -1.4718  0.1202  1.2838
 3726SOL    HW214967   7.311   0.425   0.579 -0.5187  0.5025 -0.0853
 3727SOL     OW14968   1.293   0.759   4.433 -0.1120  0.4140 -0.0824
 3727SOL    HW114969   1.211   0.720   4.402 -0.7602  1.0603  0.8016
 3727SOL    HW214970   1.361   0.706   4.390 -0.9744 -0.1668 -0.7842
 3728SOL     OW14971   4.418   8.937   0.437  0.5400  0.5261 -0.4209
 3728SOL    HW114972   4.327   8.965   0.445  0.7000  1.7015 -2.0742
 3728SOL    HW214973   4.468   9.019   0.441  1.5942 -0.1557  1.0495
 3729SOL     OW14974   5.146   9.010   9.433  0.2260  0.3880 -0.1357
 3729SOL    HW114975   5.073   8.953   9.456 -0.1573  0.3548 -1.3608
 3729SOL    HW214976   5.205   9.005   9.509 -0.4931 -0.4718  0.3927
 3730SOL     OW14977   5.749   0.556   8.670 -0.0218  0.5229  0.0395
 3730SOL    HW114978   5.778   0.482   8.617 -0.7493  0.8137 -0.7812
 3730SOL    HW214979   5.823   0.575   8.727 -0.7632 -2.6946  2.3914
 3731SOL     OW14980   8.787   9.998   8.627  0.5708 -0.8542  0.2304
 3731SOL    HW114981   8.837   9.929   8.584  0.8648  0.0783 -0.9817
 3731SOL    HW214982   8.848  10.072   8.631 -0.0433 -0.3612  0.6242
 3732SOL     OW14983   2.177   0.844   1.532  0.1403  0.4240 -0.3065
 3732SOL    HW114984   2.152   0.885   1.449 -0.4490  0.5305 -0.0811
 3732SOL    HW214985   2.242   0.777   1.507  1.5113  1.8129 -0.6176
 3733SOL     OW14986   0.136   0.088   0.119  0.7025  0.7748 -0.4226
 3733SOL    HW114987   0.192   0.025   0.164  0.5241 -1.0720 -2.6306
 3733SOL    HW214988   0.048   0.052   0.127  0.3694  1.5655 -0.4091
 3734SOL     OW14989   8.460   8.347   0.270  0.1695  0.0814  0.5983
 3734SOL    HW114990   8.385   8.407   0.280 -0.8040 -1.2217  1.4140
 3734SOL    HW214991   8.421   8.265   0.239  1.3881 -0.3493  0.1635
 3735SOL     OW14992   9.509   5.496   6.809 -0.3159 -0.7912  0.1904
 3735SOL    HW114993   9.484   5.453   6.890 -1.0201  3.9278  2.8677
 3735SOL    HW214994   9.432   5.547   6.784  1.3176  1.4190 -0.7309
 3736SOL     OW14995   8.901   3.412   6.984 -0.1811  0.1436 -0.2184
 3736SOL    HW114996   8.971   3.462   7.027  0.8974 -1.5616  0.0825
 3736SOL    HW214997   8.837   3.479   6.959  1.7383  1.8518 -0.9321
 3737SOL     OW14998   1.538   7.564   4.846  0.4304 -0.6484  0.0929
 3737SOL    HW114999   1.460   7.614   4.822  0.7934  0.0618  0.3709
 3737SOL    HW215000   1.515   7.520   4.928 -0.5272 -2.4207 -1.0533
 3738SOL     OW15001   6.537   4.168   2.156  0.8441  0.0291  0.1163
 3738SOL    HW115002   6.493   4.098   2.203  0.8219  1.3527  2.2013
 3738SOL    HW215003   6.491   4.248   2.183  0.2610  0.8614 -2.8716
 3739SOL     OW15004   6.295   2.061   8.385  0.1610 -0.1999  0.0409
 3739SOL    HW115005   6.276   2.041   8.293  0.9372  0.8000 -0.3561
 3739SOL    HW215006   6.213   2.097   8.419  0.3074  0.9225 -0.7225
 3740SOL     OW15007   2.794   4.662   0.163  0.6643  0.1047  0.6346
 3740SOL    HW115008   2.841   4.731   0.115  1.3349 -1.0176 -0.3694
 3740SOL    HW215009   2.826   4.671   0.253  2.2268 -0.1106  0.1364
 3741SOL     OW15010   4.485   2.291   2.538 -0.4307 -0.0154 -0.1516
 3741SOL    HW115011   4.477   2.224   2.470 -0.7360  0.4994 -0.6321
 3741SOL    HW215012   4.407   2.346   2.526  0.1460  0.8075 -0.1848
 3742SOL     OW15013   8.760   2.600   2.812 -0.2988 -0.1445 -0.2199
 3742SOL    HW115014   8.722   2.604   2.724 -0.4165  2.2206 -0.1037
 3742SOL    HW215015   8.741   2.685   2.851 -2.7664 -1.9844  3.1853
 3743SOL     OW15016   3.844   3.098   7.854  0.0065 -0.5581  0.3772
 3743SOL    HW115017   3.839   3.115   7.760  1.7577 -0.3828  0.2812
 3743SOL    HW215018   3.824   3.182   7.895  1.5039 -0.0316  0.0781
 3744SOL     OW15019   9.951   7.228   3.256 -0.2594 -0.4431 -0.4190
 3744SOL    HW115020   9.979   7.139   3.277 -1.1055 -0.3755  1.1793
 3744SOL    HW215021   9.917   7.262   3.339  1.3769  1.9064 -0.6218
 3745SOL     OW15022   8.637   6.118   9.285  0.4629 -0.0453 -0.0168
 3745SOL    HW115023   8.570   6.156   9.227 -1.2854 -2.4822  0.2492
 3745SOL    HW215024   8.596   6.119   9.372  1.9209  0.9552  0.6828
 3746SOL     OW15025   6.404   2.910   8.910  0.0162 -0.8739  0.2544
 3746SOL    HW115026   6.422   2.950   8.824 -0.0359  0.7299  0.9607
 3746SOL    HW215027   6.316   2.872   8.900 -0.2848 -0.0871 -0.2007
 3747SOL     OW15028   7.478   2.446  10.001 -0.2869 -0.1222 -0.2779
 3747SOL    HW115029   7.424   2.404   9.934 -0.9676  0.2895  0.0102
 3747SOL    HW215030   7.513   2.524   9.958  0.7948 -0.8335 -0.7403
 3748SOL     OW15031   6.325   2.565   0.114 -0.6578  0.7343 -0.0043
 3748SOL    HW115032   6.415   2.557   0.084 -1.0268  2.5639 -1.8256
 3748SOL    HW215033   6.277   2.496   0.068 -0.2592 -0.1075  0.8102
 3749SOL     OW15034   6.988   0.632   2.437 -0.0922  0.1387  0.2668
 3749SOL    HW115035   6.943   0.548   2.433  0.2204  0.0158 -1.0867
 3749SOL    HW215036   7.054   0.621   2.506  0.1575 -0.8287 -0.1129
 3750SOL     OW15037   9.109   9.819   2.712 -0.4195 -0.0208  0.0363
 3750SOL    HW115038   9.176   9.858   2.655 -1.1341  1.3778  0.1206
 3750SOL    HW215039   9.069   9.751   2.658  1.6379 -1.5094  0.2835
 3751SOL     OW15040   5.252   8.483   2.026  0.2458 -0.5200  0.2884
 3751SOL    HW115041   5.252   8.393   1.992 -0.2249  0.0101 -1.2195
 3751SOL    HW215042   5.176   8.523   1.985  1.4265  1.0540 -0.4461
 3752SOL     OW15043   3.584   0.959   5.858 -0.4754 -0.4940  0.1933
 3752SOL    HW115044   3.641   1.001   5.922  1.6386 -0.5050 -1.5573
 3752SOL    HW215045   3.538   1.031   5.816 -1.8623 -0.4860  1.6390
 3753SOL     OW15046   8.329   0.052   0.687  0.2419 -0.2349  0.0827
 3753SOL    HW115047   8.334   0.128   0.746 -0.1965  1.0666 -1.4799
 3753SOL    HW215048   8.375   0.081   0.608 -2.6168 -0.4039 -1.7507
 3754SOL     OW15049   5.465  10.155   4.048  0.1824  0.0382  1.0097
 3754SOL    HW115050   5.422  10.240   4.063  2.5441  1.4013  0.5716
 3754SOL    HW215051   5.543  10.177   3.997 -0.7668 -2.8341 -1.9741
 3755SOL     OW15052   8.699   0.943   3.110  0.2256  0.2468 -0.2448
 3755SOL    HW115053   8.784   0.982   3.091  0.0948  0.3009 -0.7202
 3755SOL    HW215054   8.669   0.908   3.026 -0.4501  0.6679 -0.1821
 3756SOL     OW15055   4.158   2.835   2.061 -0.1521  0.5337  0.0311
 3756SOL    HW115056   4.106   2.903   2.019 -1.2351  0.5812  1.3889
 3756SOL    HW215057   4.183   2.776   1.990 -1.8173  0.6680 -0.6974
 3757SOL     OW15058   7.319   4.425   4.835 -0.3656  0.1246  0.1895
 3757SOL    HW115059   7.400   4.379   4.813 -0.1794  0.5093  0.0551
 3757SOL    HW215060   7.346   4.516   4.848 -1.2517  1.0284 -3.3371
 3758SOL     OW15061   3.129   1.497   1.197 -0.9547 -0.3724  0.2053
 3758SOL    HW115062   3.181   1.553   1.255  1.0936 -2.2520  0.2947
 3758SOL    HW215063   3.132   1.542   1.112 -1.4909  0.8900  0.8226
 3759SOL     OW15064   4.647   6.816   3.864  0.3831 -0.2276  0.7450
 3759SOL    HW115065   4.712   6.761   3.820 -0.5796 -1.1505  0.4364
 3759SOL    HW215066   4.635   6.775   3.950 -2.5659 -2.4605 -0.5431
 3760SOL     OW15067   0.146   0.365   8.035 -0.7077  0.3626  0.3281
 3760SOL    HW115068   0.231   0.351   8.075 -0.6560  1.5305  0.6480
 3760SOL    HW215069   0.155   0.330   7.946 -0.0428  0.0720  0.5066
 3761SOL     OW15070   2.207   9.250   2.699  0.0120 -0.2077  0.2937
 3761SOL    HW115071   2.291   9.253   2.654 -0.2913 -1.3702 -0.4001
 3761SOL    HW215072   2.147   9.301   2.644  0.3889  1.1461  1.1105
 3762SOL     OW15073   0.432   5.669   2.306 -0.0025 -0.3394 -0.1133
 3762SOL    HW115074   0.483   5.616   2.246  0.6267  1.3170 -1.1009
 3762SOL    HW215075   0.490   5.682   2.382  1.1743  1.5853 -1.2534
 3763SOL     OW15076   6.701   0.569   2.108  0.2780  0.2795  0.2124
 3763SOL    HW115077   6.645   0.569   2.186  0.5372 -0.4616  0.4081
 3763SOL    HW215078   6.714   0.476   2.088  2.9948  0.3498  1.2874
 3764SOL     OW15079   2.223   2.688   6.679  0.3914  0.1281 -0.3144
 3764SOL    HW115080   2.134   2.690   6.643  0.6577  0.3508 -0.9743
 3764SOL    HW215081   2.267   2.618   6.632  0.4992 -0.1369  0.1763
 3765SOL     OW15082   8.444   7.700   6.928 -1.0273 -0.3143 -0.2954
 3765SOL    HW115083   8.490   7.736   6.853 -1.5266  1.4194  0.1758
 3765SOL    HW215084   8.483   7.614   6.942  3.7070  1.7490  1.3664
 3766SOL     OW15085   2.286   5.556   3.684  0.2406  0.0317 -0.3160
 3766SOL    HW115086   2.207   5.523   3.727 -0.9669  2.4382 -0.5249
 3766SOL    HW215087   2.331   5.477   3.653 -1.0417 -1.5200  1.5412
 3767SOL     OW15088   3.959   0.064   4.437 -0.4881  0.1075  0.0032
 3767SOL    HW115089   3.893   0.123   4.474 -0.1038 -0.0521  0.9784
 3767SOL    HW215090   3.958   0.082   4.344 -2.0110  0.0132 -0.0238
 3768SOL     OW15091   0.359   4.933   7.185  0.1281  0.9780  0.2696
 3768SOL    HW115092   0.420   4.955   7.115 -0.5877  0.1689 -0.6267
 3768SOL    HW215093   0.282   4.987   7.169 -0.7507 -0.4837 -0.6466
 3769SOL     OW15094   1.804   8.618   8.045 -0.3118 -0.5559 -0.5200
 3769SOL    HW115095   1.892   8.647   8.021 -0.8855  0.0265 -2.0394
 3769SOL    HW215096   1.745   8.677   7.998 -1.5386 -0.7147  0.7412
 3770SOL     OW15097   0.117   4.435   1.830  0.8071  0.3493  0.1713
 3770SOL    HW115098   0.094   4.487   1.907  1.0005  1.0625 -0.2398
 3770SOL    HW215099   0.083   4.485   1.756 -0.7810 -1.0973 -0.1400
 3771SOL     OW15100   7.382   3.083   9.281  0.0303  0.2150 -0.0068
 3771SOL    HW115101   7.420   3.147   9.341  0.7707 -0.4280  0.2334
 3771SOL    HW215102   7.293   3.069   9.312  0.3669 -0.0146  0.8655
 3772SOL     OW15103   2.619   1.928   9.356 -0.2204 -0.1254  0.1692
 3772SOL    HW115104   2.705   1.954   9.323  0.1093 -0.8881  0.3940
 3772SOL    HW215105   2.604   1.983   9.432 -0.9571  1.6127 -1.1553
 3773SOL     OW15106   1.010   3.524   3.104 -0.1642 -0.5250  0.2393
 3773SOL    HW115107   1.077   3.582   3.139 -0.4417 -0.7176  1.1050
 3773SOL    HW215108   0.928   3.570   3.117 -0.2082 -0.2012 -1.0003
 3774SOL     OW15109   3.111   3.944   9.201 -0.6350  0.4007 -0.2044
 3774SOL    HW115110   3.201   3.963   9.172 -1.5642  1.2260 -2.8893
 3774SOL    HW215111   3.113   3.852   9.228  1.0144  0.4287 -0.1179
 3775SOL     OW15112   5.484   4.525   2.663  0.0550  0.1115 -0.0737
 3775SOL    HW115113   5.522   4.467   2.597  2.9345  0.2819  1.2835
 3775SOL    HW215114   5.533   4.505   2.743 -2.2471  0.9924  1.6708
 3776SOL     OW15115   4.873  10.111   9.728  0.0546 -0.0468  0.0881
 3776SOL    HW115116   4.789  10.142   9.762 -0.3592 -0.1633 -0.7847
 3776SOL    HW215117   4.921  10.082   9.805 -1.3998 -1.6669  0.4511
 3777SOL     OW15118   6.536   2.713   2.344 -1.1060 -0.3655 -0.3175
 3777SOL    HW115119   6.477   2.651   2.386  0.3732 -1.0518  0.8529
 3777SOL    HW215120   6.594   2.657   2.291 -0.2734  0.0697  0.1104
 3778SOL     OW15121   2.554   8.558   0.311 -0.2453  0.0404 -0.4506
 3778SOL    HW115122   2.592   8.470   0.317 -0.1446  0.1343  0.3980
 3778SOL    HW215123   2.491   8.552   0.239  0.3757 -0.4933 -0.9639
 3779SOL     OW15124   4.146   3.773   9.464 -0.0686  0.5358 -0.3984
 3779SOL    HW115125   4.159   3.684   9.432  0.7154  0.9823 -1.3715
 3779SOL    HW215126   4.053   3.777   9.486 -0.3132 -0.2523 -1.2280
 3780SOL     OW15127   5.660  10.329   6.418  0.0954 -0.2309  0.3394
 3780SOL    HW115128   5.589  10.293   6.364 -0.8010  0.9454  0.6802
 3780SOL    HW215129   5.732  10.267   6.408 -0.2406 -0.3791 -1.7309
 3781SOL     OW15130   5.343   9.008   6.093 -0.0747  0.2399 -0.3255
 3781SOL    HW115131   5.400   9.072   6.136  1.0256 -0.5507 -0.5450
 3781SOL    HW215132   5.398   8.931   6.083 -1.0273 -0.3634 -1.0767
 3782SOL     OW15133   9.522   3.417   3.427  0.0301  0.0572 -0.2596
 3782SOL    HW115134   9.473   3.336   3.412  1.5160 -0.5002 -2.6990
 3782SOL    HW215135   9.543   3.449   3.339  2.0459  1.4821  0.6546
 3783SOL     OW15136   9.160   0.382   0.346 -0.0495  0.1859 -0.0150
 3783SOL    HW115137   9.210   0.304   0.323  1.9060  1.2775  0.2580
 3783SOL    HW215138   9.227   0.447   0.369 -1.6632  1.2328  2.0356
 3784SOL     OW15139   3.844   7.605   6.987 -0.9128  0.0464 -0.3689
 3784SOL    HW115140   3.832   7.592   7.081  0.0018  1.4134 -0.0323
 3784SOL    HW215141   3.799   7.531   6.946 -2.2388 -0.0024  1.0991
 3785SOL     OW15142   9.507   8.306   1.605  0.1303  0.0783  0.3893
 3785SOL    HW115143   9.533   8.254   1.680 -0.5065  0.9623  1.2618
 3785SOL    HW215144   9.467   8.385   1.644 -0.4134  0.4480 -0.8690
 3786SOL     OW15145   0.054   4.980  10.035  0.5018 -0.4186  0.4039
 3786SOL    HW115146   0.018   4.900   9.997 -1.0835  0.5933 -0.3214
 3786SOL    HW215147  -0.022   5.029  10.066  1.5991 -0.4718  3.5850
 3787SOL     OW15148   6.511   3.054   8.676  0.0128 -0.5606 -0.4830
 3787SOL    HW115149   6.466   3.097   8.603  0.2171  1.7060  0.6357
 3787SOL    HW215150   6.590   3.106   8.690  0.7568 -1.8720  0.3977
 3788SOL     OW15151   1.893   5.612   7.955  0.1049  0.3601  0.3551
 3788SOL    HW115152   1.799   5.626   7.955  0.1016  0.6711  2.2637
 3788SOL    HW215153   1.925   5.665   8.029  1.8654  0.8108 -0.6551
 3789SOL     OW15154   7.201   5.995   3.379 -0.4546 -0.6228 -0.5329
 3789SOL    HW115155   7.174   6.067   3.322  1.2667  0.1644 -0.4126
 3789SOL    HW215156   7.295   5.987   3.364 -0.4559 -2.2540  0.1440
 3790SOL     OW15157   2.551   2.589   2.160 -0.1708 -0.3885  0.3391
 3790SOL    HW115158   2.502   2.651   2.215 -1.2014 -1.2488  0.4191
 3790SOL    HW215159   2.642   2.614   2.172 -0.3434 -0.5194  2.4522
 3791SOL     OW15160   8.894   3.227   7.209 -0.2213  0.0287 -0.1247
 3791SOL    HW115161   8.917   3.298   7.150 -0.6958 -0.1538 -0.5376
 3791SOL    HW215162   8.833   3.266   7.272  1.3753  0.5839  1.1440
 3792SOL     OW15163   5.531   0.048   8.543 -0.1780  0.2961 -0.3894
 3792SOL    HW115164   5.545   0.142   8.549 -1.1300  0.6255 -2.5290
 3792SOL    HW215165   5.547   0.027   8.451 -1.2510 -1.3997 -0.2295
 3793SOL     OW15166   1.661   3.938   0.235  0.0233  0.8989 -0.4055
 3793SOL    HW115167   1.609   3.954   0.156  1.1462  2.0017 -0.9656
 3793SOL    HW215168   1.672   4.025   0.274  1.5134  0.7155 -0.3716
 3794SOL     OW15169   0.018   6.689   0.605 -0.9289  0.1188 -0.4242
 3794SOL    HW115170   0.000   6.604   0.647 -1.2663  0.7825  0.8532
 3794SOL    HW215171   0.101   6.677   0.560  0.4110 -0.1662  1.9608
 3795SOL     OW15172   0.477   5.296   4.265  0.3241 -0.4812 -0.2584
 3795SOL    HW115173   0.403   5.239   4.244 -1.3161  1.0471  1.0117
 3795SOL    HW215174   0.437   5.382   4.281  2.3225  0.2871  1.0224
 3796SOL     OW15175   8.578   7.758   5.842 -0.1382  0.1892  0.5428
 3796SOL    HW115176   8.608   7.839   5.884 -0.3055  0.5225  0.0189
 3796SOL    HW215177   8.659   7.711   5.821 -0.0255  0.4879  0.3120
 3797SOL     OW15178   0.717   5.559   5.128  0.0268 -0.3075  0.3915
 3797SOL    HW115179   0.786   5.549   5.193  0.4049  1.5749  0.3241
 3797SOL    HW215180   0.754   5.616   5.062 -1.1451 -0.3383 -0.3187
 3798SOL     OW15181   5.423   0.579   7.358 -0.0900 -0.6911  0.4223
 3798SOL    HW115182   5.433   0.501   7.302 -0.0307  1.0656 -2.1987
 3798SOL    HW215183   5.328   0.591   7.365 -0.1002 -0.3368 -0.2203
 3799SOL     OW15184   2.946   2.206   5.651  0.5828  0.4913 -0.7068
 3799SOL    HW115185   2.903   2.291   5.643  1.7349  1.7779  3.9868
 3799SOL    HW215186   2.895   2.159   5.717  2.0591 -0.9912 -0.5630
 3800SOL     OW15187   9.057   4.837   1.789 -0.5302 -0.4356  0.0520
 3800SOL    HW115188   8.987   4.797   1.842 -0.7750 -1.3231 -0.9049
 3800SOL    HW215189   9.062   4.927   1.821 -2.2681 -0.2827  0.0104
 3801SOL     OW15190   9.452   7.537   3.176 -0.0930 -0.0793  0.5794
 3801SOL    HW115191   9.530   7.494   3.210  1.1537  1.1247 -0.6102
 3801SOL    HW215192   9.438   7.611   3.236  1.4149  1.3564 -0.7183
 3802SOL     OW15193  10.194   9.421   4.261  0.1087  0.6073  0.3419
 3802SOL    HW115194  10.278   9.464   4.275 -0.0922  1.7250 -1.4285
 3802SOL    HW215195  10.131   9.493   4.260 -0.7366 -0.1140  0.7154
 3803SOL     OW15196   9.513   5.407   8.364  0.7693 -0.0164  0.1471
 3803SOL    HW115197   9.568   5.342   8.321  0.6075  0.7249 -1.2608
 3803SOL    HW215198   9.465   5.358   8.430 -1.2255 -1.9316 -2.4895
 3804SOL     OW15199   4.596   5.199   1.202  0.2082 -0.0322 -0.4040
 3804SOL    HW115200   4.620   5.257   1.129  0.9556  0.5187  0.2517
 3804SOL    HW215201   4.510   5.230   1.230  0.3335  0.3724 -0.4553
 3805SOL     OW15202   6.581   1.344   3.276 -0.1450 -0.4085  0.9805
 3805SOL    HW115203   6.623   1.321   3.359 -0.8095 -0.3474  1.3380
 3805SOL    HW215204   6.488   1.333   3.292 -0.2144 -2.3155 -0.3527
 3806SOL     OW15205   3.552   9.519   2.294 -0.1464 -0.1759 -0.1828
 3806SOL    HW115206   3.502   9.587   2.339  0.2299  0.0684 -0.1328
 3806SOL    HW215207   3.495   9.489   2.224 -1.5026 -1.8302  1.5204
 3807SOL     OW15208   4.644  10.181   3.694  0.1906 -0.2718  0.3323
 3807SOL    HW115209   4.604  10.234   3.625  1.8898 -1.1461 -1.4523
 3807SOL    HW215210   4.573  10.127   3.727 -0.8939  0.8897  0.0034
 3808SOL     OW15211   4.278   0.279   0.436  0.3265 -0.1428 -0.7149
 3808SOL    HW115212   4.355   0.332   0.453 -0.0662  1.4679 -3.3787
 3808SOL    HW215213   4.226   0.284   0.517  1.3344  1.7295 -0.1500
 3809SOL     OW15214   5.065   1.726   2.986  0.0975  0.3053  0.2132
 3809SOL    HW115215   5.113   1.644   2.999  2.2724  1.3206 -0.9351
 3809SOL    HW215216   5.007   1.709   2.911  0.5895 -0.1646 -0.0639
 3810SOL     OW15217   8.807   7.216  10.234 -0.4530 -0.3753 -0.3001
 3810SOL    HW115218   8.813   7.124  10.208 -1.9958  0.1485 -2.7367
 3810SOL    HW215219   8.716   7.227  10.260 -0.8252  0.9211 -2.0413
 3811SOL     OW15220   1.224   3.485   5.702 -0.1123  0.1118  0.0099
 3811SOL    HW115221   1.190   3.566   5.741  0.7878  1.6780 -2.1932
 3811SOL    HW215222   1.268   3.514   5.621  2.1785 -2.3306  0.2193
 3812SOL     OW15223   4.724   8.622   2.539  0.5309 -0.2981 -0.4856
 3812SOL    HW115224   4.646   8.659   2.581  1.6135 -0.4036  1.7848
 3812SOL    HW215225   4.736   8.675   2.460 -1.1352  0.5066 -0.2470
 3813SOL     OW15226  10.132   0.579   0.092  0.8500 -0.1807  0.3327
 3813SOL    HW115227  10.201   0.523   0.055  0.2859 -0.3676 -0.4539
 3813SOL    HW215228  10.098   0.528   0.165  0.5041 -0.7827 -0.2295
 3814SOL     OW15229   4.203   2.505   8.730  0.0887  0.2546 -0.0483
 3814SOL    HW115230   4.126   2.448   8.722 -0.6310  1.3263 -0.9531
 3814SOL    HW215231   4.275   2.444   8.747 -0.9394 -0.7733  0.8214
 3815SOL     OW15232   0.295   2.184   0.331 -0.2263  0.3870 -0.0563
 3815SOL    HW115233   0.335   2.262   0.370  1.6455  0.5019 -2.0075
 3815SOL    HW215234   0.369   2.133   0.299 -1.3396 -2.6467  1.8246
 3816SOL     OW15235   5.622   9.342   2.879  0.5011 -0.0874  0.8457
 3816SOL    HW115236   5.666   9.427   2.886  0.0855  0.2443 -0.2205
 3816SOL    HW215237   5.577   9.331   2.963  1.4670  0.2152  1.4165
 3817SOL     OW15238   0.908   9.346   0.990  0.3401  0.4377 -0.0556
 3817SOL    HW115239   0.813   9.349   0.991  0.3522  2.5388  0.1431
 3817SOL    HW215240   0.933   9.416   0.929  1.7547  0.5374  0.6012
 3818SOL     OW15241   0.528  10.091   8.004 -0.2023 -0.7084 -0.2485
 3818SOL    HW115242   0.469  10.028   7.962 -0.6282  0.1986 -1.0475
 3818SOL    HW215243   0.530  10.166   7.944 -1.9160  1.2429  1.9276
 3819SOL     OW15244   6.665   0.999   6.295  0.2966  0.5350  0.2101
 3819SOL    HW115245   6.700   0.948   6.368  0.0420 -1.8680 -1.2559
 3819SOL    HW215246   6.579   1.029   6.325  0.0295 -0.7426  0.7694
 3820SOL     OW15247   7.188   5.294   9.980  0.4032 -0.7035 -0.5581
 3820SOL    HW115248   7.269   5.323  10.020  0.0515 -1.8757  1.1111
 3820SOL    HW215249   7.124   5.292  10.051 -1.3232  0.8471 -1.9492
 3821SOL     OW15250   0.834   7.845   5.894 -0.4162  0.9686  0.0798
 3821SOL    HW115251   0.887   7.900   5.951  0.9268 -0.6436  0.4695
 3821SOL    HW215252   0.841   7.885   5.808 -0.6653  2.1953  0.6095
 3822SOL     OW15253   0.479   8.112   7.983 -0.6713 -0.0394 -0.0724
 3822SOL    HW115254   0.573   8.124   7.974 -0.5758 -1.3993 -1.4018
 3822SOL    HW215255   0.470   8.050   8.056 -0.5017 -0.1939 -0.1799
 3823SOL     OW15256   5.791   5.953   9.786  0.0868  0.3033  0.4073
 3823SOL    HW115257   5.859   5.914   9.731  0.3333  0.2707  0.7299
 3823SOL    HW215258   5.796   6.047   9.766  0.2682  0.3085  0.4662
 3824SOL     OW15259   7.705   0.962   8.420  0.6705 -0.3223  0.0918
 3824SOL    HW115260   7.772   0.916   8.471  0.7312 -0.8170 -0.4340
 3824SOL    HW215261   7.716   0.930   8.331  0.1172  0.0379 -0.1101
 3825SOL     OW15262   7.079   7.405   7.493 -0.6577  0.2667 -0.2348
 3825SOL    HW115263   7.113   7.461   7.424  0.2448  0.3800  0.2843
 3825SOL    HW215264   7.081   7.316   7.457  0.5340  0.2256 -0.1019
 3826SOL     OW15265   0.177   9.459   8.950 -0.0747 -0.5285 -0.2921
 3826SOL    HW115266   0.202   9.448   8.858  0.6197 -0.9124 -0.0660
 3826SOL    HW215267   0.129   9.379   8.972 -0.6120 -0.2486 -0.4365
 3827SOL     OW15268   2.964  10.281   0.944  0.5039  0.4494  0.2255
 3827SOL    HW115269   3.054  10.268   0.915  0.4062 -1.4238  0.6266
 3827SOL    HW215270   2.911  10.234   0.881  0.0671 -1.0004  1.5973
 3828SOL     OW15271   6.739   0.222   1.562 -0.0703 -0.3297 -0.1730
 3828SOL    HW115272   6.709   0.284   1.628  0.3813 -0.3921  0.0929
 3828SOL    HW215273   6.737   0.137   1.606 -1.1158 -0.5740 -0.6710
 3829SOL     OW15274   0.653   9.389   7.129  0.1053  0.1617 -0.4361
 3829SOL    HW115275   0.595   9.322   7.164  1.5245 -0.4928  0.7800
 3829SOL    HW215276   0.595   9.462   7.106 -1.0633  0.2015  2.2469
 3830SOL     OW15277   0.782   7.246   1.729 -0.3630 -0.3624 -0.6660
 3830SOL    HW115278   0.770   7.305   1.654  0.3719 -1.6232 -1.8360
 3830SOL    HW215279   0.800   7.304   1.803 -1.4574  0.9463 -1.3780
 3831SOL     OW15280   5.644   2.662   5.784  0.3748  0.0662  0.4492
 3831SOL    HW115281   5.665   2.643   5.875  2.0000  0.2903  0.1480
 3831SOL    HW215282   5.606   2.581   5.751 -2.5679  0.7128  1.9230
 3832SOL     OW15283   6.111   4.362   2.541 -0.3679  0.5198  0.0019
 3832SOL    HW115284   6.109   4.268   2.557  0.8347 -0.1111 -3.0251
 3832SOL    HW215285   6.194   4.391   2.578 -0.6994  0.4320  0.8576
 3833SOL     OW15286   9.450   6.641   3.626  0.4698  0.5517 -0.3160
 3833SOL    HW115287   9.385   6.655   3.557  1.2187  0.6778 -1.0200
 3833SOL    HW215288   9.463   6.728   3.665 -0.7092  0.2950  0.7011
 3834SOL     OW15289   9.299   2.128   2.901 -0.1526  0.1202  0.5672
 3834SOL    HW115290   9.235   2.130   2.971 -0.3790  1.4864  0.3585
 3834SOL    HW215291   9.263   2.068   2.836 -1.4335  1.1729  0.2705
 3835SOL     OW15292   9.575   0.303   5.129  0.3809 -0.1472 -0.0301
 3835SOL    HW115293   9.646   0.362   5.154 -0.1166  0.3262  0.2906
 3835SOL    HW215294   9.602   0.218   5.162  0.2833  0.2464  1.1062
 3836SOL     OW15295   4.426   5.144   0.017 -0.5232 -0.3342  0.4205
 3836SOL    HW115296   4.409   5.097   0.099 -3.1676 -0.6396 -0.2220
 3836SOL    HW215297   4.407   5.235   0.038 -1.9735 -0.5162 -0.0023
 3837SOL     OW15298   3.918   5.606   7.564 -0.1420 -0.2056  0.3765
 3837SOL    HW115299   3.833   5.594   7.522 -0.1792  3.0942 -0.7636
 3837SOL    HW215300   3.966   5.525   7.545 -1.3467 -0.2264 -3.1679
 3838SOL     OW15301   9.988   3.779   9.660  0.1516 -0.0849 -0.1680
 3838SOL    HW115302  10.015   3.787   9.568 -0.0673 -2.4615 -0.5055
 3838SOL    HW215303   9.901   3.739   9.656 -0.5180  1.1675  1.0729
 3839SOL     OW15304   3.530   0.688   8.223  0.1552 -0.0701 -1.1546
 3839SOL    HW115305   3.511   0.668   8.131 -1.4530  1.0571 -1.1063
 3839SOL    HW215306   3.495   0.614   8.271 -0.1065 -0.0974 -1.3822
 3840SOL     OW15307   1.036   0.497   6.643  0.4743 -0.3144  0.2573
 3840SOL    HW115308   1.042   0.592   6.631  0.1043 -0.3427 -0.1817
 3840SOL    HW215309   0.942   0.481   6.657  0.5946 -0.5639  0.7765
 3841SOL     OW15310   7.680   7.686   0.499 -0.2988  0.9169  0.2522
 3841SOL    HW115311   7.626   7.730   0.564 -1.0747 -1.2665  1.1691
 3841SOL    HW215312   7.770   7.698   0.530 -0.6153  0.4384  1.3867
 3842SOL     OW15313   7.742   2.067   2.576 -0.2654  0.0264  0.9334
 3842SOL    HW115314   7.688   2.011   2.631 -2.7095  0.5833 -0.7395
 3842SOL    HW215315   7.730   2.155   2.612 -2.4205  0.5023 -0.7078
 3843SOL     OW15316   7.741   8.823   8.645  0.1697  0.9474 -0.8452
 3843SOL    HW115317   7.668   8.789   8.594 -0.9713  0.8594  0.7760
 3843SOL    HW215318   7.800   8.749   8.657 -1.0381  0.1639  0.4846
 3844SOL     OW15319   0.615   4.219   4.251  0.2334 -0.0094 -0.1562
 3844SOL    HW115320   0.671   4.265   4.314 -1.0496 -0.8128  1.6682
 3844SOL    HW215321   0.539   4.277   4.241  0.8929  0.6102 -1.8376
 3845SOL     OW15322   1.203   8.917   5.753  0.5295  0.3699 -0.0023
 3845SOL    HW115323   1.280   8.962   5.788  0.6868  0.0661  0.0505
 3845SOL    HW215324   1.160   8.983   5.699 -0.3143  1.1910  1.6009
 3846SOL     OW15325   6.698   3.046   5.872 -0.3288  0.1246  0.1276
 3846SOL    HW115326   6.707   2.979   5.940 -0.7938 -1.5462 -1.3858
 3846SOL    HW215327   6.665   2.998   5.796 -1.9491  2.3210 -0.6383
 3847SOL     OW15328   7.441   7.551   2.513  0.3462  0.1904  0.1273
 3847SOL    HW115329   7.381   7.505   2.572 -0.4105  1.2769  0.2315
 3847SOL    HW215330   7.521   7.562   2.565 -0.9549  2.9148  1.8062
 3848SOL     OW15331   4.479   6.009   0.326 -0.1007  0.1494  0.9863
 3848SOL    HW115332   4.490   5.953   0.249 -0.0102 -1.1407  1.8976
 3848SOL    HW215333   4.554   6.068   0.323 -1.4064  1.8991 -1.2684
 3849SOL     OW15334   2.620   0.979   9.932 -0.3576  0.1231 -0.3599
 3849SOL    HW115335   2.696   0.987   9.874  0.0849 -2.0460 -0.1825
 3849SOL    HW215336   2.654   0.934  10.009 -1.4540  0.8232  0.5647
 3850SOL     OW15337   3.648   4.437   2.015  0.2509  0.4841  0.3394
 3850SOL    HW115338   3.675   4.462   2.103 -0.3058 -0.3631  0.7731
 3850SOL    HW215339   3.564   4.393   2.028  0.6502 -0.5670 -0.4889
 3851SOL     OW15340   5.267   6.347   8.454  0.3884 -0.6039  0.1650
 3851SOL    HW115341   5.184   6.323   8.494  0.1998 -0.7199 -0.2844
 3851SOL    HW215342   5.259   6.441   8.437  0.0629 -0.7517 -0.5291
 3852SOL     OW15343   4.027   1.822   9.898 -0.0560  0.0066 -0.3482
 3852SOL    HW115344   4.111   1.786   9.870  0.1553  0.3445 -0.1533
 3852SOL    HW215345   3.965   1.792   9.832  0.2321 -0.1750 -0.5376
 3853SOL     OW15346   3.215   5.113   9.118 -0.2109  0.1002  0.3542
 3853SOL    HW115347   3.192   5.026   9.088 -0.0826  0.3023 -0.3508
 3853SOL    HW215348   3.306   5.106   9.148 -0.5610 -0.2629  1.3760
 3854SOL     OW15349   4.980   2.986   7.826  0.1880  0.2144  0.5617
 3854SOL    HW115350   5.032   2.929   7.882 -0.4276 -0.5045  0.4087
 3854SOL    HW215351   4.942   2.928   7.760  0.9404  1.0381 -0.6533
 3855SOL     OW15352   8.536   5.484   0.392 -0.0290 -0.1540  0.8483
 3855SOL    HW115353   8.617   5.457   0.436 -0.2318 -0.2814  1.1517
 3855SOL    HW215354   8.558   5.486   0.299 -0.0908 -1.6942  0.7799
 3856SOL     OW15355   3.629   8.119   2.474  0.0897 -0.2847  0.5535
 3856SOL    HW115356   3.702   8.119   2.535 -1.7906 -0.7533  2.9704
 3856SOL    HW215357   3.619   8.028   2.447  0.7930 -0.1101 -0.3465
 3857SOL     OW15358   9.328   7.193   9.997  0.3090 -0.5586 -0.3409
 3857SOL    HW115359   9.286   7.265  10.045 -0.2414 -1.0630 -0.0605
 3857SOL    HW215360   9.276   7.184   9.917 -0.5041 -1.5598  0.2668
 3858SOL     OW15361   3.672  10.234   0.381 -0.1967  0.0597 -0.0157
 3858SOL    HW115362   3.639  10.225   0.292 -0.4975  1.0693 -0.0260
 3858SOL    HW215363   3.764  10.258   0.371 -0.3588  0.6652 -0.0696
 3859SOL     OW15364   0.362   4.499   7.558  0.2394 -0.0096  0.4051
 3859SOL    HW115365   0.440   4.480   7.610  0.4483  0.0081  0.0941
 3859SOL    HW215366   0.378   4.459   7.473  0.8478  1.8327 -0.4009
 3860SOL     OW15367   6.178   1.532   0.544  0.2419  0.1446 -0.4931
 3860SOL    HW115368   6.140   1.517   0.631 -1.5628  1.8079 -0.9296
 3860SOL    HW215369   6.122   1.598   0.504  1.7578  0.3288 -2.4835
 3861SOL     OW15370   3.551   1.179   6.802 -0.1999 -0.5521  0.0296
 3861SOL    HW115371   3.514   1.090   6.799  0.0221 -0.6230 -0.7947
 3861SOL    HW215372   3.481   1.233   6.837 -1.3287 -0.5865 -2.0139
 3862SOL     OW15373   1.697   8.545  10.230  0.2485  0.1015  0.5418
 3862SOL    HW115374   1.716   8.481  10.161  0.1006  0.3994  0.2239
 3862SOL    HW215375   1.609   8.575  10.211  1.5433  3.0780 -1.4639
 3863SOL     OW15376   9.302   0.183   0.604  0.0972 -0.5540  0.0333
 3863SOL    HW115377   9.217   0.172   0.647  0.4631  0.1501  0.9766
 3863SOL    HW215378   9.285   0.167   0.511 -0.7768 -1.8170  0.3861
 3864SOL     OW15379   3.597   5.039   4.714  0.1600 -0.3427 -0.3751
 3864SOL    HW115380   3.625   4.970   4.775 -1.7032 -0.4774  0.3772
 3864SOL    HW215381   3.528   5.086   4.760  0.9665  1.6857 -1.1128
 3865SOL     OW15382   3.673   5.589   9.843 -0.1240 -0.0054  0.3072
 3865SOL    HW115383   3.744   5.605   9.905  0.0574  1.0473 -0.1423
 3865SOL    HW215384   3.713   5.599   9.757 -0.5258 -0.7472  0.0286
 3866SOL     OW15385   6.925   9.232   2.365 -0.0091 -0.1832  0.5969
 3866SOL    HW115386   6.850   9.175   2.383 -0.3067  0.1460  0.4253
 3866SOL    HW215387   6.914   9.305   2.426  0.4362 -0.3684  0.8994
 3867SOL     OW15388   5.806   6.385   2.849 -0.3259 -0.9229  0.4905
 3867SOL    HW115389   5.788   6.334   2.770  0.4416 -1.7046  0.7891
 3867SOL    HW215390   5.876   6.336   2.892 -1.0284 -0.7429  1.8744
 3868SOL     OW15391   2.574   5.690   0.776  0.1252  0.0718  0.4789
 3868SOL    HW115392   2.597   5.646   0.694 -0.6149  2.3037 -1.0013
 3868SOL    HW215393   2.630   5.768   0.779 -1.9823  1.6728  0.4953
 3869SOL     OW15394   3.967   5.692   5.589 -0.1571  0.2133 -0.1769
 3869SOL    HW115395   3.980   5.662   5.679 -0.2930  1.3788  0.2537
 3869SOL    HW215396   3.983   5.615   5.535  1.0728 -0.2290  0.7708
 3870SOL     OW15397   4.389   3.922   7.823 -0.2867  0.8559 -0.2985
 3870SOL    HW115398   4.456   3.981   7.789 -0.6687  0.3593 -2.0017
 3870SOL    HW215399   4.323   3.918   7.754 -1.6679  0.6609  0.9878
 3871SOL     OW15400   8.427   8.970   7.476  0.4921  0.3587 -0.4241
 3871SOL    HW115401   8.508   8.998   7.519 -0.0538  1.4035 -0.0450
 3871SOL    HW215402   8.457   8.913   7.405  1.4920 -0.1607  0.3753
 3872SOL     OW15403   5.364   7.580   1.186  1.0535  0.0925  0.0809
 3872SOL    HW115404   5.313   7.503   1.161  0.1480  0.2462  1.3399
 3872SOL    HW215405   5.303   7.653   1.174  0.7360  0.2223  2.1549
 3873SOL     OW15406   5.143   9.886   0.305 -0.4837 -0.6039  0.1222
 3873SOL    HW115407   5.050   9.884   0.328 -0.1868 -0.4641  1.3828
 3873SOL    HW215408   5.178   9.804   0.340  0.0299 -0.2802  0.3778
 3874SOL     OW15409   1.468   4.130   2.726 -0.0251  0.2430 -0.5353
 3874SOL    HW115410   1.532   4.098   2.662  1.6495  0.2012  1.0786
 3874SOL    HW215411   1.447   4.054   2.780 -1.8290  0.1500 -1.3047
 3875SOL     OW15412   8.035   9.199   2.427  0.2437  0.4254 -0.2700
 3875SOL    HW115413   7.940   9.202   2.411  0.2453  1.2925 -0.1969
 3875SOL    HW215414   8.054   9.283   2.468  1.0902  0.3550 -0.5037
 3876SOL     OW15415   3.759   2.858   2.103 -0.5439  0.7386 -0.0529
 3876SOL    HW115416   3.818   2.806   2.159 -1.5370 -2.1554 -1.5185
 3876SOL    HW215417   3.817   2.895   2.036 -0.1897 -1.3605 -0.9739
 3877SOL     OW15418   3.988   0.003   3.084 -0.3248  0.7420  0.1765
 3877SOL    HW115419   3.947  -0.070   3.038 -0.5111  0.8243  0.2082
 3877SOL    HW215420   4.045   0.044   3.019 -0.3040  0.6345  0.1273
 3878SOL     OW15421   7.097   2.496   9.208  0.0700  0.4014 -0.6829
 3878SOL    HW115422   7.111   2.522   9.117  0.6290 -0.0922 -0.7434
 3878SOL    HW215423   7.138   2.410   9.215 -1.6492 -0.4383 -0.4474
 3879SOL     OW15424   5.296   3.179   5.460 -0.1218  0.7301  0.4784
 3879SOL    HW115425   5.283   3.239   5.386 -0.2637  1.3176  0.9781
 3879SOL    HW215426   5.228   3.204   5.523 -1.9960 -1.7187 -0.4042
 3880SOL     OW15427   8.602   9.120   6.798 -0.3482 -0.0878 -0.7303
 3880SOL    HW115428   8.635   9.030   6.811  0.4674 -0.2961 -3.6373
 3880SOL    HW215429   8.652   9.172   6.861 -1.4290 -1.6776  1.6418
 3881SOL     OW15430   1.082   1.655   8.517 -0.3913  0.0390  0.0882
 3881SOL    HW115431   1.131   1.634   8.597 -0.6735  0.1140  0.2851
 3881SOL    HW215432   1.002   1.602   8.524 -1.1605  1.2365  0.6360
 3882SOL     OW15433   2.373   2.956   6.249 -0.8038  0.2751  0.1876
 3882SOL    HW115434   2.387   3.011   6.327 -0.3642  1.1463 -0.4938
 3882SOL    HW215435   2.460   2.949   6.209 -0.3007 -2.9164  1.5144
 3883SOL     OW15436   0.913   5.327   1.647 -0.5617 -0.4168 -0.2553
 3883SOL    HW115437   0.994   5.321   1.697  0.1263 -1.2268 -1.4317
 3883SOL    HW215438   0.851   5.271   1.694 -1.0479  1.6026  1.6731
 3884SOL     OW15439   5.660   0.405   9.369 -0.3206 -0.0381  0.3254
 3884SOL    HW115440   5.719   0.466   9.412 -0.6085  1.0211 -0.7342
 3884SOL    HW215441   5.574   0.447   9.375 -0.3870  0.0905 -1.1462
 3885SOL     OW15442   8.839   3.440   4.358 -0.0603 -0.2016 -0.0667
 3885SOL    HW115443   8.779   3.508   4.391 -0.8537 -1.3381  0.9118
 3885SOL    HW215444   8.799   3.358   4.384  0.4605 -1.1099 -1.9576
 3886SOL     OW15445   7.312   4.234   7.420  0.2988 -0.2543  0.6604
 3886SOL    HW115446   7.345   4.306   7.474 -0.1450 -2.1052  3.6187
 3886SOL    HW215447   7.219   4.251   7.410  0.3683  0.0554  0.5368
 3887SOL     OW15448   4.178   1.385   2.833  0.2762  0.3207 -0.1909
 3887SOL    HW115449   4.267   1.355   2.846  0.3080  0.5798  0.2204
 3887SOL    HW215450   4.172   1.465   2.885 -0.5524 -0.3454  0.7767
 3888SOL     OW15451   9.272   7.541   5.587 -0.8468  0.6153 -0.4888
 3888SOL    HW115452   9.288   7.510   5.676  0.5739 -1.8294 -1.4994
 3888SOL    HW215453   9.296   7.634   5.589  1.8476 -0.0119  1.0818
 3889SOL     OW15454   0.885   3.210   0.891  0.1347 -0.3383  0.2974
 3889SOL    HW115455   0.799   3.192   0.853  0.0344 -0.1385  0.4300
 3889SOL    HW215456   0.901   3.137   0.951  0.0777 -0.3973  0.2409
 3890SOL     OW15457   6.984   0.823   7.176  0.4353 -1.1489  0.0818
 3890SOL    HW115458   7.058   0.821   7.115 -0.5229 -1.6338 -1.1066
 3890SOL    HW215459   6.908   0.840   7.121 -0.3282 -0.4794  1.3073
 3891SOL     OW15460   0.118   1.830  10.034  0.2982 -0.1892 -0.0162
 3891SOL    HW115461   0.076   1.876  10.107  0.6973  0.6840 -0.3313
 3891SOL    HW215462   0.095   1.738  10.048  0.4906 -0.0586  1.2948
 3892SOL     OW15463   4.173   5.521   3.960  0.2090  0.2232  0.3632
 3892SOL    HW115464   4.118   5.539   4.036 -0.4523 -3.7438  1.0492
 3892SOL    HW215465   4.112   5.487   3.894  1.3242 -0.3586 -0.3970
 3893SOL     OW15466   3.231   1.850   5.586  0.6294  0.7360  0.2192
 3893SOL    HW115467   3.245   1.865   5.492 -0.4627 -0.3738 -0.1389
 3893SOL    HW215468   3.184   1.767   5.591  0.5834  0.8242  1.7554
 3894SOL     OW15469   9.514   4.116   7.741  0.1731 -0.3458  0.1974
 3894SOL    HW115470   9.582   4.124   7.808  0.5051 -0.3140 -0.1401
 3894SOL    HW215471   9.439   4.077   7.787  0.5928 -0.8679  0.4497
 3895SOL     OW15472   4.056   2.735   8.662  0.0742 -0.4184 -0.1165
 3895SOL    HW115473   4.060   2.793   8.738  1.2918 -1.2541  0.4990
 3895SOL    HW215474   4.067   2.647   8.698 -1.3811 -1.0318 -1.0657
 3896SOL     OW15475   5.200   1.415   7.695 -0.0452  0.4187 -0.2149
 3896SOL    HW115476   5.187   1.508   7.675 -1.0829  0.5960  1.1588
 3896SOL    HW215477   5.288   1.411   7.731  0.3525  0.7133 -1.1272
 3897SOL     OW15478   0.743   4.606   1.283  0.1475  0.1530  0.4031
 3897SOL    HW115479   0.828   4.640   1.252 -0.0447  0.0807 -0.2284
 3897SOL    HW215480   0.764   4.557   1.362  0.8412 -0.6798 -0.2840
 3898SOL     OW15481   3.497   7.443   2.822 -0.2444  0.0249  0.1758
 3898SOL    HW115482   3.534   7.525   2.855  1.0821 -0.6866  0.5232
 3898SOL    HW215483   3.495   7.385   2.898  0.6183 -0.8731 -0.4651
 3899SOL     OW15484   5.894   6.126   7.409  0.0802  0.2979 -0.2173
 3899SOL    HW115485   5.810   6.119   7.364  0.2603 -1.4720 -0.3523
 3899SOL    HW215486   5.931   6.209   7.378 -1.7285  1.2827  0.1039
 3900SOL     OW15487   1.610   7.143   3.151 -0.1946 -0.1720  0.0754
 3900SOL    HW115488   1.567   7.212   3.101  0.4131 -1.0263 -1.7068
 3900SOL    HW215489   1.548   7.070   3.149  0.2176 -0.5150 -0.2142
 3901SOL     OW15490   3.594   4.849   4.921  0.1778 -0.1873 -0.0056
 3901SOL    HW115491   3.599   4.753   4.917 -0.1356 -0.2132  0.1909
 3901SOL    HW215492   3.501   4.867   4.935  0.3112  0.1264  0.4965
 3902SOL     OW15493   5.973   6.708   2.511  0.1115  0.1731  0.6363
 3902SOL    HW115494   5.977   6.660   2.428  0.3978  0.9505  0.1933
 3902SOL    HW215495   5.902   6.665   2.559  1.9538 -2.3616  1.3169
 3903SOL     OW15496   7.684   7.006   9.844  0.3365 -0.2039  0.0058
 3903SOL    HW115497   7.774   6.990   9.872  0.5979 -0.0114 -0.7095
 3903SOL    HW215498   7.650   6.919   9.822  1.2477 -0.0311 -2.3619
 3904SOL     OW15499   8.960   6.516   3.207  0.3137 -0.4958  0.2806
 3904SOL    HW115500   8.979   6.609   3.196 -0.8886 -0.1762  0.7037
 3904SOL    HW215501   9.008   6.473   3.136  0.1603  0.5317 -0.4724
 3905SOL     OW15502   6.941   0.161   4.089  0.7386 -0.4640  0.4078
 3905SOL    HW115503   6.851   0.141   4.116  0.2370  1.1219 -0.0022
 3905SOL    HW215504   6.954   0.108   4.010 -0.3408  0.3214 -0.3199
 3906SOL     OW15505   5.281   9.215   6.447 -0.7322  0.1707 -0.1398
 3906SOL    HW115506   5.247   9.154   6.512  0.1312  1.2367  1.3879
 3906SOL    HW215507   5.227   9.293   6.455 -0.2235  0.5449 -0.2464
 3907SOL     OW15508   8.011   9.701   3.744 -0.0853 -0.2877 -0.0996
 3907SOL    HW115509   7.994   9.707   3.838  0.0720 -0.1771 -0.0783
 3907SOL    HW215510   8.076   9.631   3.736 -1.3743 -1.5334 -0.2808
 3908SOL     OW15511   2.850   4.256   3.768  0.3741 -0.2000  0.2493
 3908SOL    HW115512   2.916   4.250   3.699 -1.0141 -1.4150 -1.0587
 3908SOL    HW215513   2.782   4.313   3.732 -0.0656 -0.3016  0.8916
 3909SOL     OW15514  10.190   0.085   0.482 -0.3141 -0.2902  0.5287
 3909SOL    HW115515  10.205   0.019   0.550  1.1546 -0.5751 -0.0474
 3909SOL    HW215516  10.273   0.133   0.476 -1.2846  1.5134  0.8059
 3910SOL     OW15517   2.131   1.454  10.077 -0.6428  0.2125  0.4202
 3910SOL    HW115518   2.208   1.411  10.114  0.2277  0.0837 -1.4295
 3910SOL    HW215519   2.064   1.385  10.072  1.0369 -1.4474 -3.4459
 3911SOL     OW15520   4.925   1.022   0.479 -0.2317 -0.2282 -0.4119
 3911SOL    HW115521   4.991   1.084   0.449 -0.5186 -0.2174 -1.0455
 3911SOL    HW215522   4.848   1.042   0.426 -1.0065  0.2977  0.8646
 3912SOL     OW15523   9.957   3.179   5.761  0.1096  0.2384 -0.4471
 3912SOL    HW115524   9.946   3.091   5.796 -1.6007  0.4368 -0.4143
 3912SOL    HW215525   9.949   3.169   5.666  0.2941  0.3039 -0.4694
 3913SOL     OW15526   4.568   2.759   0.423 -0.2806  0.5179 -0.4773
 3913SOL    HW115527   4.588   2.848   0.392 -1.4152  0.7644 -0.5576
 3913SOL    HW215528   4.482   2.768   0.466 -0.1959 -0.4544 -0.0932
 3914SOL     OW15529   8.811   4.934   9.787 -0.2492  0.1208 -0.7671
 3914SOL    HW115530   8.822   5.029   9.780 -0.3905  0.4315  2.1358
 3914SOL    HW215531   8.723   4.923   9.825 -0.9427 -1.2967 -2.6250
 3915SOL     OW15532   5.437   7.959   1.961  0.2301  0.2522 -0.2234
 3915SOL    HW115533   5.525   7.964   1.925 -0.2676  1.2267 -1.3682
 3915SOL    HW215534   5.406   7.871   1.937  1.0528 -0.3028  0.6529
 3916SOL     OW15535   7.927  10.315   9.470  0.0257 -0.4747  0.8828
 3916SOL    HW115536   7.914  10.274   9.555 -0.9419 -0.5576  0.7121
 3916SOL    HW215537   7.842  10.356   9.450 -0.8018 -2.9998 -1.3652
 3917SOL     OW15538   9.669   4.390   8.192 -0.1522 -0.7915 -0.4437
 3917SOL    HW115539   9.591   4.412   8.141  0.0397 -1.3759 -1.0039
 3917SOL    HW215540   9.736   4.451   8.160 -0.0155 -1.1977 -0.9468
 3918SOL     OW15541   8.541   6.220   5.246  0.1065 -0.1412 -0.0475
 3918SOL    HW115542   8.542   6.183   5.334 -1.8261 -1.7750 -0.6389
 3918SOL    HW215543   8.632   6.214   5.217  0.7968  0.5289  1.8490
 3919SOL     OW15544   8.159   9.836   0.399 -0.3067  0.0341  0.2415
 3919SOL    HW115545   8.149   9.741   0.388 -1.1059  0.3059 -1.8404
 3919SOL    HW215546   8.070   9.870   0.394 -0.0491  0.9076  1.1869
 3920SOL     OW15547   1.528   2.074   3.711 -0.0557  0.2210 -0.3833
 3920SOL    HW115548   1.501   2.061   3.802  1.1869  1.0955  0.1423
 3920SOL    HW215549   1.543   1.986   3.678  0.1799 -0.0794  0.4905
 3921SOL     OW15550   1.625   4.445   9.019  0.4070 -0.0602  0.5811
 3921SOL    HW115551   1.665   4.400   9.093  0.7573 -0.7350 -0.0061
 3921SOL    HW215552   1.573   4.378   8.975  0.5341  0.2245 -0.0218
 3922SOL     OW15553   9.842   8.603   8.999 -0.2466 -0.2696  0.1220
 3922SOL    HW115554   9.825   8.542   9.071 -0.8489 -0.6581 -0.3317
 3922SOL    HW215555   9.872   8.683   9.041 -1.6168 -0.1264  0.8808
 3923SOL     OW15556   5.769   6.538   4.039 -0.1295  0.3336  0.6110
 3923SOL    HW115557   5.777   6.474   4.109  2.1370  0.5911  0.6586
 3923SOL    HW215558   5.833   6.511   3.974 -0.8524  1.1830 -0.5013
 3924SOL     OW15559   5.801   2.318   2.363 -0.1180 -0.9080 -0.0245
 3924SOL    HW115560   5.707   2.333   2.375 -0.2085  1.7913 -2.7816
 3924SOL    HW215561   5.819   2.237   2.411 -3.9493 -1.8407  0.1504
 3925SOL     OW15562   5.923   0.231   5.844 -1.0215  0.1944  0.2224
 3925SOL    HW115563   5.843   0.257   5.890 -2.0984 -1.7527 -0.4081
 3925SOL    HW215564   5.916   0.272   5.758 -1.3219  0.0931  0.1976
 3926SOL     OW15565   5.875  10.284   1.726  0.5972 -0.1194 -0.1697
 3926SOL    HW115566   5.839  10.363   1.688 -1.4780 -0.8477  0.1626
 3926SOL    HW215567   5.828  10.212   1.683  1.8452 -1.1623  0.1173
 3927SOL     OW15568   0.752   2.016   5.795  0.2178 -0.5214  0.0148
 3927SOL    HW115569   0.811   2.086   5.768  1.8760 -1.3003  1.4004
 3927SOL    HW215570   0.783   1.939   5.746 -1.4330 -0.4081 -1.3149
 3928SOL     OW15571   9.766   9.985   9.254  0.1317  0.1179 -0.4471
 3928SOL    HW115572   9.768   9.944   9.340  2.9014  0.4322 -0.2782
 3928SOL    HW215573   9.802   9.919   9.195  2.3526  1.3233 -0.5683
 3929SOL     OW15574   1.489   9.006   6.256 -0.0512 -0.4608 -0.4099
 3929SOL    HW115575   1.480   8.970   6.168 -0.8616 -1.6286  0.1357
 3929SOL    HW215576   1.421   9.073   6.262 -0.3680 -0.7740 -0.4821
 3930SOL     OW15577   7.204   8.385   5.348 -0.2523 -0.2298  0.0428
 3930SOL    HW115578   7.169   8.431   5.272  0.6073  2.2225  1.0261
 3930SOL    HW215579   7.285   8.431   5.369 -0.0095 -1.3866  1.9266
 3931SOL     OW15580   7.379   8.472   7.472  0.7122 -0.2492 -0.3498
 3931SOL    HW115581   7.341   8.397   7.426 -2.8512  1.8755 -1.2716
 3931SOL    HW215582   7.425   8.521   7.405 -0.0345  0.1808 -0.5599
 3932SOL     OW15583   6.119   4.268   4.173  0.1473 -0.1990  0.3070
 3932SOL    HW115584   6.151   4.275   4.263 -2.5746 -0.4183  1.3988
 3932SOL    HW215585   6.104   4.358   4.146 -1.3638 -0.1740  1.0773
 3933SOL     OW15586   9.925   5.241   1.300  0.2000 -0.6953 -0.3458
 3933SOL    HW115587   9.904   5.307   1.366 -1.2578 -0.8377 -0.6542
 3933SOL    HW215588   9.849   5.238   1.243  1.4306 -0.5490 -2.0961
 3934SOL     OW15589   4.211   0.855   1.411 -0.0418 -0.1499 -0.7570
 3934SOL    HW115590   4.122   0.868   1.443  0.1330 -0.6211 -0.0675
 3934SOL    HW215591   4.201   0.844   1.316 -0.4567  2.3175 -1.0659
 3935SOL     OW15592   9.614   3.679   9.001 -1.0265 -0.6871 -0.0185
 3935SOL    HW115593   9.552   3.732   8.952 -0.9455  0.8076  1.3868
 3935SOL    HW215594   9.564   3.602   9.029 -0.8962 -1.9375 -2.8833
 3936SOL     OW15595   2.648   1.134   5.660 -0.2321  0.1977  0.2708
 3936SOL    HW115596   2.602   1.179   5.731 -1.9824 -1.4698  0.2682
 3936SOL    HW215597   2.667   1.203   5.596 -0.1719  1.4190  1.5574
 3937SOL     OW15598   1.385   8.444   2.568  0.2575  0.1142  0.1004
 3937SOL    HW115599   1.375   8.518   2.627 -0.8937  1.1366 -1.3153
 3937SOL    HW215600   1.355   8.476   2.483  0.0938 -1.8655 -0.6428
 3938SOL     OW15601   1.705   2.148   5.042  0.2915 -0.0970 -0.9484
 3938SOL    HW115602   1.735   2.238   5.050 -0.5474  0.2225 -1.1799
 3938SOL    HW215603   1.647   2.149   4.965  0.1857 -0.8070 -0.8906
 3939SOL     OW15604   5.019   5.597   2.974 -0.1208 -0.2029  0.3172
 3939SOL    HW115605   4.990   5.616   2.885  2.3094 -1.1454 -0.7703
 3939SOL    HW215606   4.963   5.525   3.004 -0.7921 -0.0450 -0.5381
 3940SOL     OW15607   7.659   8.690   7.669 -0.0018 -0.4478 -0.2346
 3940SOL    HW115608   7.650   8.638   7.589 -0.0865  0.3784 -0.7733
 3940SOL    HW215609   7.743   8.736   7.658 -0.1805 -0.0641 -0.0103
 3941SOL     OW15610   3.128   0.306   2.421 -0.7325  0.4535  0.3367
 3941SOL    HW115611   3.163   0.378   2.474  1.2458 -0.6772  0.6471
 3941SOL    HW215612   3.199   0.286   2.359 -1.2256 -1.2433  0.2796
 3942SOL     OW15613   1.015   7.286  10.354  0.1008 -0.1429  1.0388
 3942SOL    HW115614   1.092   7.233  10.376  0.2606  0.1964  1.2924
 3942SOL    HW215615   0.951   7.266  10.422 -0.3686 -1.0961  0.3510
 3943SOL     OW15616   9.121   1.421   9.412  0.3634 -0.0697  0.5011
 3943SOL    HW115617   9.085   1.491   9.357 -0.6771  0.4399  1.7833
 3943SOL    HW215618   9.213   1.416   9.387 -0.3758 -1.0511 -2.5226
 3944SOL     OW15619   5.257   4.366   0.466 -0.2965 -0.1782 -0.0723
 3944SOL    HW115620   5.243   4.385   0.374  0.5299 -2.2391 -0.6932
 3944SOL    HW215621   5.217   4.280   0.480  2.1642 -1.3022  0.6817
 3945SOL     OW15622   8.112   9.822   6.440 -0.2271  0.4370  0.0087
 3945SOL    HW115623   8.109   9.825   6.344 -0.5777 -0.6791 -0.0267
 3945SOL    HW215624   8.198   9.858   6.462  0.4433 -0.5925 -0.8075
 3946SOL     OW15625   1.039   6.602   5.232 -0.4775 -0.0961 -0.3868
 3946SOL    HW115626   1.028   6.644   5.146 -0.7172 -0.0617 -0.3420
 3946SOL    HW215627   1.125   6.630   5.262 -0.5848  0.2685 -0.4121
 3947SOL     OW15628   1.387   4.997   4.209 -0.2574  0.2144  0.1477
 3947SOL    HW115629   1.456   5.062   4.218 -0.8317  0.8632 -0.1054
 3947SOL    HW215630   1.310   5.037   4.250 -0.2759 -0.8344  1.1743
 3948SOL     OW15631   8.819   5.183   6.718  0.5867  1.1349  0.1449
 3948SOL    HW115632   8.833   5.117   6.649 -0.8185  1.3486 -0.3904
 3948SOL    HW215633   8.738   5.156   6.760  0.2750  2.2341  0.2672
 3949SOL     OW15634   0.260   9.002   3.221  0.7979  0.2812  0.1596
 3949SOL    HW115635   0.310   9.077   3.187  0.1049  0.8712  0.4200
 3949SOL    HW215636   0.172   9.015   3.187  1.2194 -1.8338 -1.9773
 3950SOL     OW15637   0.130   5.737   6.558 -0.2397  0.3763 -0.0615
 3950SOL    HW115638   0.126   5.795   6.633  0.4908 -0.1026  0.3655
 3950SOL    HW215639   0.040   5.731   6.526 -0.3414  1.6359 -0.0424
 3951SOL     OW15640   8.458  10.290   0.262 -0.1185 -0.0489 -0.2350
 3951SOL    HW115641   8.381  10.234   0.265 -0.3099  0.2303  0.1258
 3951SOL    HW215642   8.461  10.331   0.348  2.1147 -2.3057  0.9092
 3952SOL     OW15643   7.809   2.476   9.688 -0.0813 -0.3142  0.2376
 3952SOL    HW115644   7.812   2.382   9.709 -0.0558 -0.0648  1.3901
 3952SOL    HW215645   7.898   2.507   9.704  0.3623 -0.3878 -1.7451
 3953SOL     OW15646   3.372   7.348   0.029  0.3136  0.1016 -0.1907
 3953SOL    HW115647   3.340   7.258   0.024  0.9756 -0.1867  0.4349
 3953SOL    HW215648   3.460   7.344  -0.008  0.4755  0.4197  0.1555
 3954SOL     OW15649   9.892   0.331   1.770  0.2478  0.3059 -0.2314
 3954SOL    HW115650   9.927   0.411   1.811 -0.4622  0.1790  0.6440
 3954SOL    HW215651   9.967   0.272   1.767  0.2832  0.2495  1.0870
 3955SOL     OW15652   0.070   8.902   3.881 -0.0268 -0.1023  0.3064
 3955SOL    HW115653   0.087   8.907   3.975 -0.1213  1.3001  0.2674
 3955SOL    HW215654   0.014   8.978   3.862 -0.6871 -0.8231 -0.7459
 3956SOL     OW15655   2.548   6.351   0.928 -0.2487 -0.5560  0.2479
 3956SOL    HW115656   2.474   6.396   0.887 -1.1973 -0.2850  2.1485
 3956SOL    HW215657   2.620   6.363   0.867 -1.3922  0.4515 -0.9646
 3957SOL     OW15658   3.254   6.327   8.878  0.9008  0.1703 -0.2556
 3957SOL    HW115659   3.243   6.269   8.803  1.1007  1.0417 -0.9663
 3957SOL    HW215660   3.165   6.342   8.910  0.7280  0.5912 -0.9251
 3958SOL     OW15661   8.590   1.131   7.043 -0.0703  0.3752  0.4727
 3958SOL    HW115662   8.527   1.060   7.056 -0.1211  0.6548  1.9176
 3958SOL    HW215663   8.554   1.204   7.094  0.8912  0.8726  0.4505
 3959SOL     OW15664   9.726   5.743   0.268 -0.6190  0.2382 -0.1233
 3959SOL    HW115665   9.665   5.670   0.272 -0.6279  0.1984 -0.7989
 3959SOL    HW215666   9.698   5.803   0.336 -0.9442 -0.1365  0.0725
 3960SOL     OW15667   0.835   5.732   0.853 -0.4956  0.4975  0.1024
 3960SOL    HW115668   0.787   5.752   0.934 -1.6242 -0.5196 -0.2855
 3960SOL    HW215669   0.847   5.817   0.812 -0.6809  0.9349  0.9225
 3961SOL     OW15670   7.096   4.015   0.288  0.4993 -0.1574 -0.3786
 3961SOL    HW115671   7.109   3.924   0.316 -1.7654 -0.5861 -0.5598
 3961SOL    HW215672   7.055   4.008   0.202  0.5203  1.0403 -0.4928
 3962SOL     OW15673   3.984   7.751   5.463 -0.0863 -0.0693  0.2960
 3962SOL    HW115674   4.073   7.761   5.497 -0.3397 -0.3859  1.0752
 3962SOL    HW215675   3.960   7.660   5.483 -0.0003 -0.4785 -1.3559
 3963SOL     OW15676   3.495   3.615   9.765  0.3931 -0.2034 -0.5917
 3963SOL    HW115677   3.588   3.595   9.781  0.4382  0.3475 -0.1393
 3963SOL    HW215678   3.448   3.549   9.816  0.5451  0.6458  0.7069
 3964SOL     OW15679   5.014   9.931   9.551  0.4065  0.4753  0.1045
 3964SOL    HW115680   5.005   9.986   9.474  1.6474 -0.1305 -0.5061
 3964SOL    HW215681   4.950   9.966   9.614  0.4853  1.9656 -0.6126
 3965SOL     OW15682   9.644   9.102   8.404  0.2622 -0.4057  0.3307
 3965SOL    HW115683   9.671   9.039   8.337  1.9694  1.2412 -0.6231
 3965SOL    HW215684   9.717   9.103   8.466 -0.4765 -0.5295  1.2205
 3966SOL     OW15685   9.753   7.048   1.860  0.6142  0.2503  0.2029
 3966SOL    HW115686   9.749   7.089   1.774  1.8169 -1.5781 -0.8003
 3966SOL    HW215687   9.787   7.115   1.919  0.8593  1.1882 -0.9930
 3967SOL     OW15688   7.193   1.269   5.940  0.4332  0.4287 -0.3438
 3967SOL    HW115689   7.239   1.343   5.979  0.4695 -0.4129  1.3015
 3967SOL    HW215690   7.237   1.192   5.975 -0.5750 -0.3906 -0.8046
 3968SOL     OW15691   0.479   1.394   0.330 -0.1521 -0.5924 -0.5137
 3968SOL    HW115692   0.428   1.344   0.394  0.4507 -1.5270 -0.7504
 3968SOL    HW215693   0.413   1.443   0.281 -0.5968  0.3735  1.0033
 3969SOL     OW15694   4.430   9.629   1.000 -0.3709 -0.5022 -0.0111
 3969SOL    HW115695   4.477   9.616   0.918 -0.5893  1.4986 -0.5112
 3969SOL    HW215696   4.498   9.653   1.063 -0.4880  0.6882 -0.3132
 3970SOL     OW15697   2.268   2.743   0.595  0.4398 -0.0135 -0.1832
 3970SOL    HW115698   2.336   2.705   0.650  0.8245 -0.7252 -1.1179
 3970SOL    HW215699   2.286   2.837   0.598  0.0960  0.0270  1.3361
 3971SOL     OW15700   1.060   8.381   1.059 -0.4090 -0.0400 -1.1108
 3971SOL    HW115701   1.046   8.369   1.153  3.4043 -0.2613 -0.4141
 3971SOL    HW215702   0.994   8.446   1.034 -1.5448  0.0514  1.6848
 3972SOL     OW15703   5.525   1.556   9.459 -0.3642 -0.4172 -0.3065
 3972SOL    HW115704   5.482   1.497   9.397  0.0229 -1.6157  0.5409
 3972SOL    HW215705   5.595   1.504   9.497  1.9012  1.4696 -1.6355
 3973SOL     OW15706   9.986   1.072   4.919  0.2541 -0.5100  0.5227
 3973SOL    HW115707   9.937   1.108   4.994  0.8428  0.9452  0.2426
 3973SOL    HW215708   9.945   1.112   4.842 -1.0692 -2.8392 -0.0741
 3974SOL     OW15709   4.344   1.320   1.740 -0.1253  0.0550 -0.6095
 3974SOL    HW115710   4.375   1.410   1.752  1.3739 -0.3409 -1.3480
 3974SOL    HW215711   4.316   1.292   1.827  1.8723  0.3600  0.1699
 3975SOL     OW15712   9.907   6.898   2.119  0.8988 -0.2051  0.1504
 3975SOL    HW115713   9.815   6.892   2.095 -0.0887  2.3792  2.6377
 3975SOL    HW215714   9.944   6.813   2.098 -1.4451 -0.6048 -3.0803
 3976SOL     OW15715  10.020   2.390   9.516 -0.3863 -0.4417 -0.4696
 3976SOL    HW115716   9.961   2.365   9.587  0.2175 -0.4054  0.0565
 3976SOL    HW215717   9.969   2.376   9.436 -1.7087  1.2106  0.0377
 3977SOL     OW15718   0.620   4.185   0.918  0.3097 -0.2058  0.4133
 3977SOL    HW115719   0.638   4.129   0.842 -0.3958 -0.9049  0.7381
 3977SOL    HW215720   0.525   4.196   0.916  0.4240  0.8508  0.4632
 3978SOL     OW15721   0.017   3.313   6.805 -0.0514  0.0057 -0.3251
 3978SOL    HW115722   0.105   3.351   6.811  0.4070 -1.2112  1.4325
 3978SOL    HW215723   0.024   3.230   6.852 -2.5292  0.5722  1.1718
 3979SOL     OW15724   4.369   3.131   3.755  0.3730 -0.1431 -0.7037
 3979SOL    HW115725   4.299   3.194   3.772  0.4066 -0.2010 -0.3442
 3979SOL    HW215726   4.358   3.064   3.822 -0.6653 -1.3828 -2.0524
 3980SOL     OW15727   6.286   5.915   3.581  1.0338  0.3151  0.3822
 3980SOL    HW115728   6.362   5.972   3.566  0.3822  1.4722  1.3311
 3980SOL    HW215729   6.249   5.901   3.494  1.9495  0.2532 -0.0152
 3981SOL     OW15730  10.362   4.494   4.312  0.3160  0.3427  0.6843
 3981SOL    HW115731  10.368   4.436   4.388 -0.2010 -0.7975 -0.1191
 3981SOL    HW215732  10.451   4.497   4.277  0.9552  2.2571  2.2819
 3982SOL     OW15733   9.527   1.038   7.352 -0.2391  0.4463  0.2758
 3982SOL    HW115734   9.564   0.990   7.278 -0.6456 -0.8174  0.8679
 3982SOL    HW215735   9.478   1.110   7.311 -0.3254 -0.1371 -0.6876
 3983SOL     OW15736   9.252   3.885   8.575 -0.2216 -0.4313 -0.2510
 3983SOL    HW115737   9.321   3.857   8.635  0.1179 -0.5146 -0.6781
 3983SOL    HW215738   9.206   3.955   8.622  1.2954  0.9085 -0.6831
 3984SOL     OW15739   3.263   7.750   4.614 -0.0941 -0.2516 -0.0175
 3984SOL    HW115740   3.186   7.713   4.657  0.6644 -1.6388  0.2009
 3984SOL    HW215741   3.251   7.845   4.622 -1.0797 -0.4486  1.2831
 3985SOL     OW15742   3.272   1.008   5.168 -0.0882 -0.2764  0.2389
 3985SOL    HW115743   3.179   0.992   5.180 -0.3407  0.7106 -0.2814
 3985SOL    HW215744   3.315   0.933   5.210 -1.0881 -0.4109  1.0730
 3986SOL     OW15745   0.751   2.839   2.790  0.1271 -0.4330 -0.1882
 3986SOL    HW115746   0.710   2.859   2.707  0.4249 -2.7217 -0.9621
 3986SOL    HW215747   0.834   2.885   2.788 -0.6558  1.0173 -0.3247
 3987SOL     OW15748   9.455   6.423   0.826 -0.3488  0.4129  0.3508
 3987SOL    HW115749   9.401   6.451   0.753 -0.5469 -0.8569 -0.0229
 3987SOL    HW215750   9.407   6.349   0.864  0.9464 -0.5529  0.2017
 3988SOL     OW15751   8.733   7.976   0.449  0.1723  0.3466  0.3373
 3988SOL    HW115752   8.701   7.889   0.474 -0.4701  0.6041  0.4382
 3988SOL    HW215753   8.824   7.976   0.477 -0.3284  0.3753  2.1042
 3989SOL     OW15754   8.717   7.863   2.967 -0.4819  1.0574  0.5675
 3989SOL    HW115755   8.806   7.893   2.984  0.2890  0.3457 -1.8356
 3989SOL    HW215756   8.716   7.771   2.993  0.3538  0.3001 -1.7948
 3990SOL     OW15757   5.045   4.882   1.098 -0.2015 -0.6313 -0.3804
 3990SOL    HW115758   5.108   4.817   1.127  0.2630  0.0248  0.1056
 3990SOL    HW215759   5.077   4.965   1.135 -1.0710 -0.2143 -0.5341
 3991SOL     OW15760   8.173  10.223   3.432 -0.5192  0.3230 -0.1921
 3991SOL    HW115761   8.215  10.220   3.518 -1.6356 -2.2862  0.3571
 3991SOL    HW215762   8.238  10.265   3.375  0.5016  1.5203  1.7576
 3992SOL     OW15763   3.630   6.685   4.891 -0.1466 -0.1423 -1.2326
 3992SOL    HW115764   3.619   6.753   4.824  3.5717  0.5924 -1.2845
 3992SOL    HW215765   3.673   6.613   4.846 -1.5945 -1.5213 -0.5295
 3993SOL     OW15766   7.142   5.538   8.684  0.4383  0.2970  0.3134
 3993SOL    HW115767   7.053   5.508   8.670 -0.3135  0.7526  3.3702
 3993SOL    HW215768   7.196   5.479   8.631 -1.6465  0.6477 -2.4464
 3994SOL     OW15769   8.991   7.471   4.518  0.1995  0.0287  0.2873
 3994SOL    HW115770   9.062   7.534   4.530 -0.8964  1.3565 -0.0133
 3994SOL    HW215771   8.911   7.523   4.520 -0.7137 -1.2557 -0.6959
 3995SOL     OW15772   4.699   7.806   3.622  0.1657 -0.0588  0.6485
 3995SOL    HW115773   4.770   7.742   3.619 -0.4570 -0.9522  2.8706
 3995SOL    HW215774   4.720   7.861   3.697  0.2527  1.8749 -0.7364
 3996SOL     OW15775   9.613   0.554   9.991 -0.1952 -0.2303  0.6058
 3996SOL    HW115776   9.623   0.490  10.061 -0.1439  0.6369  1.4179
 3996SOL    HW215777   9.669   0.627  10.018 -2.8129  1.5943  1.4680
 3997SOL     OW15778   8.640   4.766   5.707  0.2391 -0.3505 -0.5126
 3997SOL    HW115779   8.580   4.801   5.773 -0.8328 -2.3942 -0.3335
 3997SOL    HW215780   8.718   4.742   5.757  0.2708  0.0772 -0.3487
 3998SOL     OW15781   4.795   2.986   8.655 -0.6497  0.3482  0.1392
 3998SOL    HW115782   4.823   3.073   8.628 -2.1360  0.9000  0.2801
 3998SOL    HW215783   4.861   2.927   8.618  0.3064  1.5132 -0.0634
 3999SOL     OW15784   6.770   7.684   3.548 -0.4074 -0.3145 -0.2276
 3999SOL    HW115785   6.849   7.660   3.499 -0.2537  1.9976 -1.2292
 3999SOL    HW215786   6.751   7.607   3.601  1.9152 -1.3251 -0.7299
 4000SOL     OW15787   3.169   6.116  10.066 -0.4024 -0.2991  0.3473
 4000SOL    HW115788   3.253   6.077  10.043 -1.0695 -1.1697 -0.6630
 4000SOL    HW215789   3.108   6.044  10.064 -1.3177  0.4590  0.3690
 4001SOL     OW15790   5.695   0.796   6.249 -0.1571 -0.1528  0.1764
 4001SOL    HW115791   5.678   0.815   6.157  0.4956  0.0577  0.0878
 4001SOL    HW215792   5.632   0.729   6.273  0.6565 -1.3208 -0.8424
 4002SOL     OW15793   5.249   7.540   4.050  0.2088  0.0690  0.3433
 4002SOL    HW115794   5.278   7.473   3.988  2.3912  1.9752 -0.8541
 4002SOL    HW215795   5.191   7.494   4.110  2.7415 -3.2557  0.5070
 4003SOL     OW15796   0.755   7.445  10.118 -0.2348 -0.3845 -1.0465
 4003SOL    HW115797   0.698   7.367  10.122 -2.7598  1.3421 -0.6988
 4003SOL    HW215798   0.803   7.443  10.200 -0.6574 -1.3015 -0.7953
 4004SOL     OW15799   6.272   0.341   2.555 -0.2593  0.1855 -0.4012
 4004SOL    HW115800   6.329   0.314   2.484 -0.5838 -1.1633 -0.1848
 4004SOL    HW215801   6.281   0.271   2.620 -1.9146  0.0816 -0.2420
 4005SOL     OW15802   8.586   3.923   8.573  0.0856 -0.2059  0.5221
 4005SOL    HW115803   8.601   3.972   8.654  0.3326  0.7777 -0.0973
 4005SOL    HW215804   8.535   3.983   8.518  0.6818 -0.5200 -0.3879
 4006SOL     OW15805   7.821   2.237   8.202 -0.1542 -0.4000  0.2416
 4006SOL    HW115806   7.750   2.200   8.150  0.8919 -2.2455  0.0337
 4006SOL    HW215807   7.899   2.189   8.175  0.5159 -1.1809  3.1668
 4007SOL     OW15808   5.721   7.305   8.874 -0.5729 -0.1823  0.0536
 4007SOL    HW115809   5.734   7.399   8.893  0.0931 -0.2929  0.1865
 4007SOL    HW215810   5.732   7.298   8.779  0.1839 -0.2362  0.1346
 4008SOL     OW15811   9.101   2.050   7.851  0.0633 -0.3446  0.1420
 4008SOL    HW115812   9.180   2.037   7.904 -0.6444 -0.8975  1.1029
 4008SOL    HW215813   9.029   2.039   7.913 -0.7620  0.8615 -0.5676
 4009SOL     OW15814   1.488   2.299   4.523  0.3217  0.2446  0.4110
 4009SOL    HW115815   1.545   2.357   4.572  0.8619  0.8000 -0.8537
 4009SOL    HW215816   1.401   2.338   4.532  0.6641  1.2124 -0.3554
 4010SOL     OW15817   6.117   3.170   4.074  0.0753  0.4698 -0.6215
 4010SOL    HW115818   6.170   3.096   4.045 -1.1151 -0.8678  0.4404
 4010SOL    HW215819   6.155   3.246   4.030  1.1509 -0.8040 -1.9986
 4011SOL     OW15820   3.487   2.342   8.769  0.3836  0.1326 -0.0731
 4011SOL    HW115821   3.500   2.269   8.709 -1.2589  0.9823 -1.5690
 4011SOL    HW215822   3.572   2.355   8.811  0.9052 -2.1235 -0.3271
 4012SOL     OW15823   8.391   1.547   3.009 -0.0879  0.5230 -0.5289
 4012SOL    HW115824   8.397   1.636   3.042 -0.2152  0.5752 -0.6437
 4012SOL    HW215825   8.306   1.543   2.966  0.0909  0.4675 -0.8815
 4013SOL     OW15826   2.052   0.263   7.403  0.1872 -0.0436 -0.1298
 4013SOL    HW115827   2.044   0.355   7.428 -0.7952  0.1998 -1.2284
 4013SOL    HW215828   2.145   0.244   7.410  0.0108 -0.6662  5.7388
 4014SOL     OW15829   5.445   0.918   6.888  0.5836  0.5062 -0.0092
 4014SOL    HW115830   5.358   0.886   6.908  1.1854 -1.7590 -0.6883
 4014SOL    HW215831   5.437   1.013   6.887 -1.1474  0.5126  3.0452
 4015SOL     OW15832   2.882  10.119   0.724 -0.0483  0.0392 -0.3912
 4015SOL    HW115833   2.817  10.050   0.710 -0.8305  0.6076  0.2713
 4015SOL    HW215834   2.952  10.101   0.662  0.5637 -2.3091  0.8759
 4016SOL     OW15835   8.909   5.593   1.961 -0.0290  0.2778 -0.5368
 4016SOL    HW115836   8.820   5.569   1.986 -0.2618  1.1162 -0.5406
 4016SOL    HW215837   8.931   5.532   1.890 -0.0339 -0.9048  0.4350
 4017SOL     OW15838   1.734   3.765   8.087  0.1900  0.1086  0.0144
 4017SOL    HW115839   1.661   3.814   8.050 -0.0893 -0.1801  0.1795
 4017SOL    HW215840   1.804   3.774   8.023 -0.0778  0.1587 -0.2747
 4018SOL     OW15841   8.398   2.001   6.511 -0.1705  0.2302 -0.0500
 4018SOL    HW115842   8.423   2.063   6.442  1.2483 -0.6588 -0.3597
 4018SOL    HW215843   8.461   2.016   6.581 -1.3923  0.8827  0.9540
 4019SOL     OW15844   2.248   2.250   7.836  0.1474  0.0975  0.2330
 4019SOL    HW115845   2.312   2.250   7.907  0.3768  1.6974  0.0573
 4019SOL    HW215846   2.188   2.321   7.858 -0.0747  0.2783 -0.9121
 4020SOL     OW15847   6.288   6.155   0.733 -0.2103  0.4232  0.0121
 4020SOL    HW115848   6.292   6.198   0.818  2.1993  0.6913 -0.1931
 4020SOL    HW215849   6.209   6.190   0.692 -0.8448  1.0587  1.7072
 4021SOL     OW15850   9.031   7.047   5.698 -0.2058 -0.1678  0.4230
 4021SOL    HW115851   9.082   7.012   5.771 -0.9486 -1.3442  0.4118
 4021SOL    HW215852   8.940   7.024   5.719 -0.2642 -2.4069 -1.8157
 4022SOL     OW15853   2.217   2.398   6.541 -0.1649 -0.6122 -0.4185
 4022SOL    HW115854   2.178   2.472   6.494 -1.3311 -0.8167  0.1800
 4022SOL    HW215855   2.142   2.343   6.565  0.3686 -0.5712  1.5463
 4023SOL     OW15856   2.439   4.748   6.603 -0.1342 -0.1601  0.3681
 4023SOL    HW115857   2.488   4.717   6.679 -0.5779  0.2018  0.8057
 4023SOL    HW215858   2.379   4.677   6.582 -0.0024 -0.2655  0.3526
 4024SOL     OW15859   6.931   6.521   5.818  0.0300  0.3571  0.3106
 4024SOL    HW115860   6.856   6.530   5.876 -0.8232 -1.5099 -0.4390
 4024SOL    HW215861   7.002   6.493   5.876  0.3360  2.5121  1.0922
 4025SOL     OW15862   6.842   5.358   0.552 -0.5532  0.6659 -0.0221
 4025SOL    HW115863   6.852   5.300   0.476 -0.7540  0.4211  0.1373
 4025SOL    HW215864   6.748   5.377   0.555 -0.8593 -0.8528  1.2791
 4026SOL     OW15865   6.657   1.335   0.815 -0.1713  0.1379  0.1891
 4026SOL    HW115866   6.743   1.294   0.825  0.7643  2.1285  0.8139
 4026SOL    HW215867   6.595   1.270   0.848  1.1263 -1.1860  0.0910
 4027SOL     OW15868   2.472   8.716   0.794 -0.2050  0.0693 -0.0349
 4027SOL    HW115869   2.500   8.754   0.711 -0.0898 -0.9521 -0.4812
 4027SOL    HW215870   2.485   8.621   0.783 -1.4074 -0.2054  0.6747
 4028SOL     OW15871   1.582   9.836   8.396 -0.4295 -0.5099 -0.0537
 4028SOL    HW115872   1.492   9.837   8.364 -0.3718  0.6367 -0.2065
 4028SOL    HW215873   1.594   9.746   8.428 -1.8530 -0.4861  0.6442
 4029SOL     OW15874   3.259   8.735   9.353 -1.0772  0.1787 -0.2078
 4029SOL    HW115875   3.245   8.777   9.268 -1.9425  0.4238  0.0474
 4029SOL    HW215876   3.171   8.727   9.391 -0.7660 -0.4880  0.4000
 4030SOL     OW15877   1.895   5.999   8.887 -0.0609  0.7899 -0.6864
 4030SOL    HW115878   1.820   5.941   8.901  0.1765  0.8200  0.9160
 4030SOL    HW215879   1.951   5.951   8.825  0.0484 -0.6382  0.4577
 4031SOL     OW15880   3.331   8.079   0.242  0.0795  0.2556  0.4777
 4031SOL    HW115881   3.270   8.005   0.235  0.6050 -0.1909  0.5156
 4031SOL    HW215882   3.345   8.089   0.336 -2.2716  2.3308  0.7053
 4032SOL     OW15883   0.381   9.417   2.301 -0.1743  0.1938 -0.2188
 4032SOL    HW115884   0.416   9.496   2.262  0.1994 -0.0866 -0.4562
 4032SOL    HW215885   0.457   9.360   2.314 -0.1987  0.4561  1.3561
 4033SOL     OW15886   3.295   9.547   1.224  0.4686 -0.3188  0.2573
 4033SOL    HW115887   3.354   9.542   1.149  0.1703 -1.1207  0.0631
 4033SOL    HW215888   3.232   9.615   1.200 -0.2457 -1.2759 -0.6972
 4034SOL     OW15889   0.659   0.356   1.755  0.2171 -0.6592  0.3129
 4034SOL    HW115890   0.594   0.373   1.686  0.3660  1.5733  0.6539
 4034SOL    HW215891   0.623   0.282   1.804 -1.2542 -0.5260 -0.5003
 4035SOL     OW15892   0.216   4.976   0.616 -0.1472 -0.1927  0.3464
 4035SOL    HW115893   0.171   4.894   0.636  1.0045 -0.7450  0.7581
 4035SOL    HW215894   0.306   4.950   0.597  0.1142  0.9268 -0.0070
 4036SOL     OW15895   7.179   9.836   0.003 -0.3401  0.7437  0.1199
 4036SOL    HW115896   7.190   9.919   0.049 -0.0545  1.5024 -1.2551
 4036SOL    HW215897   7.126   9.857  -0.074 -2.5962 -0.8824  1.1200
 4037SOL     OW15898   0.337   3.193   4.389 -0.0622  0.9620 -0.3500
 4037SOL    HW115899   0.282   3.189   4.468  0.1911 -1.1750 -0.2137
 4037SOL    HW215900   0.278   3.166   4.318  0.1692  1.1288 -0.6043
 4038SOL     OW15901   3.006   7.707   9.065 -0.2297 -0.0188 -0.0197
 4038SOL    HW115902   2.995   7.737   9.156 -1.4427 -2.1916  0.6341
 4038SOL    HW215903   2.942   7.757   9.015  0.7696  1.5373  0.1871
 4039SOL     OW15904   2.423   2.841   5.853 -0.1433 -0.0516  0.5116
 4039SOL    HW115905   2.450   2.769   5.796 -1.9063 -0.7558  0.4880
 4039SOL    HW215906   2.461   2.821   5.938  0.9775  0.0297  0.0478
 4040SOL     OW15907   2.134   2.618   4.509  0.0946 -0.1439  0.3072
 4040SOL    HW115908   2.206   2.671   4.476 -1.7223  1.2395 -1.7276
 4040SOL    HW215909   2.170   2.529   4.515  1.8403  0.4056 -1.1320
 4041SOL     OW15910   1.583  10.174   8.478 -0.1967  0.4808  0.0001
 4041SOL    HW115911   1.604  10.084   8.503 -0.0456  0.1774 -1.1701
 4041SOL    HW215912   1.547  10.167   8.390 -1.4920  1.4283  0.4178
 4042SOL     OW15913   2.527   4.367   9.707  0.1105  0.0485 -0.0522
 4042SOL    HW115914   2.529   4.453   9.749 -1.7376  0.1883 -0.1764
 4042SOL    HW215915   2.539   4.385   9.613 -0.4954  0.2017 -0.1030
 4043SOL     OW15916  10.046   6.613   9.802 -0.0607  0.4759 -0.4936
 4043SOL    HW115917   9.978   6.550   9.777 -0.0892  1.2248 -2.4706
 4043SOL    HW215918  10.003   6.672   9.863 -0.4809 -0.4723  0.1523
 4044SOL     OW15919   9.037   2.781   6.998  0.4173  0.2367  0.0234
 4044SOL    HW115920   9.061   2.818   6.912 -1.1470  2.6520  0.5367
 4044SOL    HW215921   9.073   2.843   7.061  1.2633 -1.3509  1.1620
 4045SOL     OW15922   2.906   9.137   6.794  0.7283  0.5149  0.4530
 4045SOL    HW115923   2.946   9.058   6.758 -1.2646 -1.2404  1.8821
 4045SOL    HW215924   2.830   9.153   6.738  0.2955  0.5529  1.0456
 4046SOL     OW15925   2.863   5.911   7.629 -0.1321  0.3232 -0.0861
 4046SOL    HW115926   2.866   5.874   7.541 -0.6284 -0.9276  0.3948
 4046SOL    HW215927   2.827   5.840   7.683  0.5544  0.9179  1.1908
 4047SOL     OW15928   1.406   2.992   9.583 -0.4170 -0.2037 -0.0716
 4047SOL    HW115929   1.422   3.002   9.489 -1.2327 -0.1729 -0.2106
 4047SOL    HW215930   1.412   2.898   9.598 -0.0993 -0.1926 -0.1148
 4048SOL     OW15931   9.138   8.245   4.990 -0.1188 -0.3414  0.3111
 4048SOL    HW115932   9.159   8.226   4.899  2.3673 -4.0125  1.3800
 4048SOL    HW215933   9.043   8.234   4.996 -0.2070 -1.0908 -1.6675
 4049SOL     OW15934   5.902   0.335   2.011 -0.4821  0.5642 -0.2169
 4049SOL    HW115935   5.973   0.338   1.947 -2.0760 -3.0064 -2.4664
 4049SOL    HW215936   5.822   0.340   1.958 -1.9137  0.2830  1.8084
 4050SOL     OW15937   1.336  10.362   1.369 -0.3341 -0.3017 -0.2133
 4050SOL    HW115938   1.318  10.407   1.452  1.9956 -0.2913  0.3639
 4050SOL    HW215939   1.381  10.427   1.316  2.5067 -1.6397  0.3904
 4051SOL     OW15940   6.954   4.230   7.877 -0.2806  1.2368 -0.4142
 4051SOL    HW115941   6.883   4.262   7.823 -0.7241 -1.3835 -1.4848
 4051SOL    HW215942   6.924   4.244   7.967 -0.9121  2.6574 -0.8173
 4052SOL     OW15943   7.435  10.163   3.707 -0.1868  0.2218 -0.0315
 4052SOL    HW115944   7.380  10.145   3.630  0.0184  2.4711 -0.7824
 4052SOL    HW215945   7.497  10.230   3.677  1.9887 -1.0981  1.2457
 4053SOL     OW15946   4.331   2.654   9.177 -0.1671 -0.0046  0.2478
 4053SOL    HW115947   4.353   2.744   9.152  2.1549 -0.6611 -0.3090
 4053SOL    HW215948   4.354   2.601   9.101 -2.7433 -1.0181  0.0444
 4054SOL     OW15949   7.722   5.032   5.954 -0.1598 -0.6321  0.1539
 4054SOL    HW115950   7.706   5.123   5.981  1.9547 -0.5828  1.4724
 4054SOL    HW215951   7.674   4.979   6.017  0.3954 -0.4350  0.7514
 4055SOL     OW15952   5.746   6.102   2.115  0.0070  0.0514 -0.6932
 4055SOL    HW115953   5.677   6.160   2.085  0.8183  0.0458 -2.7495
 4055SOL    HW215954   5.712   6.014   2.100 -0.4474 -0.0183  0.5806
 4056SOL     OW15955  10.066   8.006   9.502  0.6260  0.5170 -0.3711
 4056SOL    HW115956   9.973   7.987   9.499  0.5901  0.7469 -0.7420
 4056SOL    HW215957  10.080   8.073   9.435  1.2406 -0.3153 -1.1031
 4057SOL     OW15958   6.787   8.159  10.244 -0.1109 -0.3938  0.2482
 4057SOL    HW115959   6.807   8.235  10.298 -0.2173  0.0798 -0.3726
 4057SOL    HW215960   6.863   8.148  10.188 -0.9031  0.4805 -1.0480
 4058SOL     OW15961   3.074   7.194   8.768  0.3787  0.1143  0.7421
 4058SOL    HW115962   3.031   7.213   8.684 -0.4576  0.3376  1.2045
 4058SOL    HW215963   3.010   7.220   8.833  1.0810  0.0735  1.4594
 4059SOL     OW15964   9.883   4.839   5.871 -0.4960 -0.3695  0.4177
 4059SOL    HW115965   9.946   4.830   5.943 -1.1485 -0.9563  0.9283
 4059SOL    HW215966   9.935   4.872   5.798 -0.0340  1.2916  1.4581
 4060SOL     OW15967   3.119   4.938   4.579 -0.2317  0.0971  0.6051
 4060SOL    HW115968   3.174   4.983   4.516 -0.6972 -2.2522 -1.6315
 4060SOL    HW215969   3.118   4.846   4.550 -3.0594 -0.4885  2.1370
 4061SOL     OW15970   4.829   0.311   2.979 -0.6908 -0.1891  0.2940
 4061SOL    HW115971   4.748   0.361   2.968 -0.4916  0.0687 -0.0125
 4061SOL    HW215972   4.893   0.356   2.923 -0.3834 -0.4969  0.3947
 4062SOL     OW15973   5.309   8.565   1.225 -0.1672  0.6446 -0.5034
 4062SOL    HW115974   5.380   8.503   1.244 -0.2967  0.8357  0.6870
 4062SOL    HW215975   5.306   8.569   1.129  1.6326  0.8780 -0.5838
 4063SOL     OW15976   5.281   1.507   1.759 -0.6409 -0.1537 -0.0909
 4063SOL    HW115977   5.237   1.590   1.777 -0.5909 -0.5832  2.4438
 4063SOL    HW215978   5.229   1.467   1.689 -1.9530  1.0449  0.1422
 4064SOL     OW15979   2.536   0.122   3.616  0.1287 -0.0508  0.1473
 4064SOL    HW115980   2.540   0.194   3.553 -0.3180 -0.7575 -0.7109
 4064SOL    HW215981   2.447   0.088   3.607 -0.3473  0.5811  2.0333
 4065SOL     OW15982   4.626   3.965   4.549  0.5200  1.0173  0.4172
 4065SOL    HW115983   4.603   3.975   4.456  0.0256  0.9917  0.5376
 4065SOL    HW215984   4.677   4.044   4.569 -0.1784  1.4889  0.3696
 4066SOL     OW15985   9.413   5.997   5.582  0.3683 -0.2819  0.1042
 4066SOL    HW115986   9.464   6.046   5.518 -0.3910 -1.5582 -1.5756
 4066SOL    HW215987   9.323   6.001   5.549 -0.3998  0.5565  2.1143
 4067SOL     OW15988   1.451   9.603   9.034  0.0778  1.0526  0.6543
 4067SOL    HW115989   1.437   9.675   9.095  0.4051  1.8016 -0.1254
 4067SOL    HW215990   1.399   9.626   8.957 -3.0321 -1.4853  1.7961
 4068SOL     OW15991   3.163   4.194   3.962 -0.1640 -0.2658  0.4590
 4068SOL    HW115992   3.074   4.158   3.966 -0.5296  0.6746  0.9970
 4068SOL    HW215993   3.180   4.225   4.051  0.7019 -0.4113  0.3524
 4069SOL     OW15994   9.996   7.111   6.628  0.5644  0.4956  0.0458
 4069SOL    HW115995  10.059   7.073   6.567  1.2536  1.4002  0.1742
 4069SOL    HW215996   9.930   7.042   6.641  0.5597  0.1848 -1.4710
 4070SOL     OW15997   3.751   3.884   1.719  0.3837 -0.0691 -0.1815
 4070SOL    HW115998   3.803   3.964   1.710  0.7050 -0.0464  1.4951
 4070SOL    HW215999   3.761   3.859   1.811 -1.5225 -0.8035 -0.1175
 4071SOL     OW16000   7.227   5.269   8.505 -0.3341 -0.2477  0.2745
 4071SOL    HW116001   7.171   5.225   8.442  0.5434 -1.6156  0.4112
 4071SOL    HW216002   7.199   5.234   8.590  1.2145 -1.5688  0.2806
 4072SOL     OW16003   1.348   3.395  10.095  0.1582 -0.2779  0.6057
 4072SOL    HW116004   1.295   3.349  10.030  0.1249 -1.7006  1.5867
 4072SOL    HW216005   1.298   3.475  10.114  0.3560  0.3637 -1.3487
 4073SOL     OW16006   1.050   1.914   6.896  0.0456  0.2065  0.4516
 4073SOL    HW116007   0.959   1.930   6.872  0.1330  1.4280  0.8675
 4073SOL    HW216008   1.046   1.838   6.953 -0.5510 -0.5762 -0.5861
 4074SOL     OW16009   5.560   2.376   3.499 -0.3359 -0.0495 -0.1619
 4074SOL    HW116010   5.545   2.372   3.594  0.6966  1.9502  0.1377
 4074SOL    HW216011   5.654   2.357   3.490  0.2147  2.4777 -0.4491
 4075SOL     OW16012   9.603   1.499   0.042 -0.1915 -0.4695 -0.0921
 4075SOL    HW116013   9.564   1.427   0.093  0.5815 -0.2441  0.8374
 4075SOL    HW216014   9.544   1.509  -0.033  0.5864 -3.2278 -1.2134
 4076SOL     OW16015   8.474  10.108   5.705 -0.1074 -0.4027  0.1846
 4076SOL    HW116016   8.519  10.034   5.666 -1.5210 -1.6909  0.8911
 4076SOL    HW216017   8.480  10.178   5.639  0.1703 -1.5332 -1.0209
 4077SOL     OW16018   7.469   2.882   4.668  0.3007 -0.8478  0.4249
 4077SOL    HW116019   7.542   2.891   4.731  0.6694  1.4980 -0.2442
 4077SOL    HW216020   7.391   2.903   4.719  0.3586 -1.0446  0.5959
 4078SOL     OW16021   6.710   0.709   0.536  0.3659 -0.0476  0.3162
 4078SOL    HW116022   6.639   0.692   0.473  0.1591 -2.4786  1.1050
 4078SOL    HW216023   6.790   0.704   0.484  0.0661  0.9366 -0.2616
 4079SOL     OW16024   4.250   6.786   0.146  0.0316 -0.3041  0.2361
 4079SOL    HW116025   4.245   6.787   0.241 -2.8275 -1.6990  0.2025
 4079SOL    HW216026   4.216   6.872   0.119  1.7944  0.4963  0.4179
 4080SOL     OW16027   8.679   0.168   5.497 -0.3123  0.0816 -0.2162
 4080SOL    HW116028   8.745   0.109   5.535 -0.0365  0.1626 -0.5570
 4080SOL    HW216029   8.711   0.256   5.518  0.0792  0.1352 -1.0162
 4081SOL     OW16030   4.362   9.508   1.272  0.2499  0.2128  0.3171
 4081SOL    HW116031   4.312   9.433   1.238 -0.8990  1.2462 -0.3468
 4081SOL    HW216032   4.360   9.572   1.201  0.3102  1.2891  1.2572
 4082SOL     OW16033   6.603   4.295   1.716 -0.0081 -0.7235 -1.2750
 4082SOL    HW116034   6.614   4.232   1.788 -0.9213  0.2388 -0.2550
 4082SOL    HW216035   6.534   4.354   1.746  0.0133  0.0725 -2.7064
 4083SOL     OW16036   3.437   9.928   0.082  0.3565 -0.7383 -0.3200
 4083SOL    HW116037   3.478   9.891   0.003 -1.2832 -0.5178 -1.3047
 4083SOL    HW216038   3.425   9.853   0.139  1.8330 -0.8594 -0.1109
 4084SOL     OW16039   3.739   0.604   0.581 -0.2825 -0.3175  0.3662
 4084SOL    HW116040   3.766   0.655   0.504 -2.3508  0.0095 -0.2029
 4084SOL    HW216041   3.820   0.564   0.613  1.1200  1.8716 -0.2332
 4085SOL     OW16042   8.890   9.946   4.766 -0.3526 -0.0760  0.3295
 4085SOL    HW116043   8.911   9.854   4.782  0.9293  0.2251  0.4755
 4085SOL    HW216044   8.808   9.961   4.814 -0.8770 -1.2642 -0.1406
 4086SOL     OW16045   4.351   7.394   4.469 -0.1674  0.0427  0.6010
 4086SOL    HW116046   4.437   7.383   4.510 -0.0044 -0.3122  0.1648
 4086SOL    HW216047   4.369   7.399   4.376 -0.6720 -0.6335  0.4570
 4087SOL     OW16048   1.095   7.465   6.674 -0.1957 -0.1810  0.0789
 4087SOL    HW116049   1.108   7.385   6.726 -0.6595  0.9646  2.0466
 4087SOL    HW216050   1.180   7.482   6.634  0.1443 -1.1718  0.3397
 4088SOL     OW16051   3.492   9.275   3.878  0.1873  0.1142  0.1830
 4088SOL    HW116052   3.477   9.180   3.880 -0.8419  0.2617  0.5426
 4088SOL    HW216053   3.421   9.308   3.824 -0.3962  0.8129  1.3273
 4089SOL     OW16054   9.864   1.200   4.722 -0.3610 -0.0435  0.2099
 4089SOL    HW116055   9.778   1.234   4.745 -0.5095  1.7757 -2.6553
 4089SOL    HW216056   9.901   1.264   4.661  3.0895 -0.7114  1.3578
 4090SOL     OW16057   1.260   0.498   4.057 -0.0942  0.2230  0.1017
 4090SOL    HW116058   1.172   0.460   4.048 -0.3287  0.9507 -0.8614
 4090SOL    HW216059   1.317   0.436   4.012 -0.1047 -0.2635  0.7491
 4091SOL     OW16060   8.160  10.323   2.468 -0.6057  0.1409 -0.4410
 4091SOL    HW116061   8.154  10.393   2.403 -2.8623  1.9191  1.4918
 4091SOL    HW216062   8.232  10.350   2.525 -0.5661  0.1656 -0.5023
 4092SOL     OW16063   1.629   1.869   8.033  0.1049 -0.1382  0.3407
 4092SOL    HW116064   1.687   1.821   8.091 -0.2502  1.8045  2.4537
 4092SOL    HW216065   1.569   1.916   8.091 -2.2131 -0.3338 -1.6761
 4093SOL     OW16066   6.759   6.530   0.420  0.3575 -0.1739 -0.3782
 4093SOL    HW116067   6.817   6.515   0.495 -0.4659  0.5907  0.4446
 4093SOL    HW216068   6.814   6.573   0.355  1.0268 -0.6342 -0.1304
 4094SOL     OW16069   8.374   2.535   5.291 -0.0810  0.0557 -0.2521
 4094SOL    HW116070   8.329   2.465   5.337  0.2281  0.5386  0.8317
 4094SOL    HW216071   8.411   2.494   5.213  1.3111 -1.3321  1.0799
 4095SOL     OW16072   4.195   4.554   8.125  0.0086  0.2211 -0.6392
 4095SOL    HW116073   4.207   4.573   8.032  0.2584 -0.7259 -0.8058
 4095SOL    HW216074   4.267   4.601   8.168 -0.8890  1.7768 -0.7717
 4096SOL     OW16075   1.866   8.512   0.072  0.6000 -0.7460 -0.3716
 4096SOL    HW116076   1.893   8.597   0.106 -0.7698 -1.0536  1.7095
 4096SOL    HW216077   1.810   8.532  -0.003  4.2474 -0.0568 -3.1832
 4097SOL     OW16078   1.757   3.347   2.850 -0.3849  0.4278 -0.0509
 4097SOL    HW116079   1.759   3.420   2.912 -2.2504  0.3272  0.1848
 4097SOL    HW216080   1.684   3.293   2.879  0.5574 -1.2331 -0.6004
 4098SOL     OW16081   0.908   7.851   8.703 -0.0056  0.4187  0.0914
 4098SOL    HW116082   0.824   7.872   8.663 -0.9883  0.3689  2.0515
 4098SOL    HW216083   0.907   7.756   8.712 -0.4505  0.5438  1.5565
 4099SOL     OW16084   2.059   4.409   0.579 -0.1562  0.8233  1.0231
 4099SOL    HW116085   1.995   4.343   0.553  0.4519  1.2166 -1.8174
 4099SOL    HW216086   2.123   4.361   0.631 -0.0164 -0.7457 -0.5154
 4100SOL     OW16087  10.334   3.078   9.077  0.0702  0.2587 -0.5948
 4100SOL    HW116088  10.380   2.995   9.066  0.1272  0.4378 -1.9898
 4100SOL    HW216089  10.251   3.065   9.030 -0.0953  0.8480 -0.4682
 4101SOL     OW16090   5.004   8.731   2.001 -0.2261 -0.4352  1.0361
 4101SOL    HW116091   5.064   8.789   1.954 -0.5756 -0.0237  1.0877
 4101SOL    HW216092   5.002   8.766   2.090 -0.9100 -0.1549  0.9132
 4102SOL     OW16093   2.716   1.181   1.168 -0.0037 -0.6380  0.1818
 4102SOL    HW116094   2.635   1.137   1.141 -1.4686  1.3793  1.1184
 4102SOL    HW216095   2.689   1.268   1.195  2.4800  0.0358  0.7539
 4103SOL     OW16096   2.289   8.329   4.570  0.2155  0.1329 -0.0032
 4103SOL    HW116097   2.222   8.392   4.596  0.1458 -0.3937  1.1363
 4103SOL    HW216098   2.264   8.304   4.480 -1.0758 -0.0009  0.3696
 4104SOL     OW16099   2.543   0.722   1.740  0.3852 -0.4237 -0.1798
 4104SOL    HW116100   2.590   0.668   1.804  1.4886  0.0289 -0.5825
 4104SOL    HW216101   2.494   0.784   1.794  2.0023  0.5355  0.2522
 4105SOL     OW16102   3.491   5.114   9.070 -0.2054 -0.7298 -0.2699
 4105SOL    HW116103   3.492   5.195   9.120  1.9651 -1.0277  0.2532
 4105SOL    HW216104   3.565   5.122   9.009 -0.1736 -2.1453 -0.4619
 4106SOL     OW16105   5.268   4.206   1.887  0.4951  0.2394  0.0563
 4106SOL    HW116106   5.271   4.263   1.964  3.9791 -2.1786  2.0153
 4106SOL    HW216107   5.181   4.168   1.889  0.1893  0.8956  2.3304
 4107SOL     OW16108   1.994   3.248   2.733 -0.5000 -0.5539  0.4230
 4107SOL    HW116109   2.049   3.323   2.713  1.1345 -1.4621  1.2788
 4107SOL    HW216110   1.915   3.285   2.772 -1.3027  0.8799 -2.3281
 4108SOL     OW16111   8.803   4.166   7.173  0.6968  0.3570 -0.0991
 4108SOL    HW116112   8.898   4.166   7.187  0.6572  2.1953  0.4877
 4108SOL    HW216113   8.774   4.251   7.207 -1.1378 -0.0790 -0.4641
 4109SOL     OW16114   5.841   5.163   6.236  0.1544 -0.1511 -0.7131
 4109SOL    HW116115   5.823   5.143   6.144  2.4376 -1.1718 -1.0162
 4109SOL    HW216116   5.921   5.114   6.255 -0.3432 -0.0570  1.8758
 4110SOL     OW16117   5.320   6.531   3.368  0.0701 -0.3414 -0.5477
 4110SOL    HW116118   5.270   6.593   3.421  0.9198 -0.4640  0.4197
 4110SOL    HW216119   5.268   6.521   3.288 -1.5742 -0.6702  0.5139
 4111SOL     OW16120   8.174   3.186   9.468  0.1131  0.0256  0.1891
 4111SOL    HW116121   8.241   3.118   9.460  0.4742  0.2549  1.1674
 4111SOL    HW216122   8.099   3.151   9.420  1.1225  0.0288 -1.4570
 4112SOL     OW16123   4.299   2.051   7.121  0.3823 -0.2756  0.5122
 4112SOL    HW116124   4.283   2.128   7.176 -1.2923 -0.3068  0.1337
 4112SOL    HW216125   4.317   1.980   7.183  0.7444  0.1711  0.9181
 4113SOL     OW16126   2.780   3.733   0.852 -0.5201 -0.2509  0.0378
 4113SOL    HW116127   2.825   3.680   0.786  0.5913  0.7411 -0.0321
 4113SOL    HW216128   2.793   3.685   0.934 -2.6183 -1.9327 -0.5044
 4114SOL     OW16129   0.475   3.038   7.713 -0.1550  0.2436  0.4057
 4114SOL    HW116130   0.564   3.064   7.688 -0.1795 -0.4332 -0.4145
 4114SOL    HW216131   0.422   3.117   7.699  0.1692  0.4084  0.0974
 4115SOL     OW16132   7.725   1.821   3.037 -1.2730  0.0034 -0.2661
 4115SOL    HW116133   7.682   1.869   3.107 -0.5707  0.5222 -0.1739
 4115SOL    HW216134   7.679   1.847   2.957 -2.8857 -1.5221  0.0864
 4116SOL     OW16135   0.114   4.296   5.476  0.1238  0.6295 -0.1252
 4116SOL    HW116136   0.132   4.203   5.485 -0.9485  0.4918  0.9113
 4116SOL    HW216137   0.145   4.319   5.389  0.0353 -0.7831 -0.5436
 4117SOL     OW16138   8.313   7.005   3.052  0.5170 -0.0457  0.0460
 4117SOL    HW116139   8.231   6.955   3.044  0.5270 -0.0315 -0.1440
 4117SOL    HW216140   8.345   7.012   2.962  0.3865  0.5235  0.0420
 4118SOL     OW16141   4.196   9.579   9.518 -0.1895 -0.0964  0.3149
 4118SOL    HW116142   4.282   9.536   9.510 -0.5775 -0.8119 -0.1243
 4118SOL    HW216143   4.143   9.539   9.450 -0.7092  0.7709  0.1967
 4119SOL     OW16144   4.477   8.694   0.539  0.3660 -0.1141 -0.1375
 4119SOL    HW116145   4.482   8.782   0.501 -1.2669 -0.1404 -0.4843
 4119SOL    HW216146   4.386   8.685   0.567  0.9857 -0.9552  1.7634
 4120SOL     OW16147   1.977   0.053   2.131  0.3533 -0.3067  0.0348
 4120SOL    HW116148   1.893   0.009   2.132  0.9232 -1.4271  0.1693
 4120SOL    HW216149   1.995   0.073   2.223  0.5125 -0.6158  0.0710
 4121SOL     OW16150   4.702   4.777   6.468 -0.0301 -0.3065  0.0644
 4121SOL    HW116151   4.633   4.736   6.521  0.0604  0.3180  0.6847
 4121SOL    HW216152   4.737   4.706   6.414 -1.1499 -0.6288 -0.2516
 4122SOL     OW16153   3.646   8.040   3.107 -0.0319 -0.1123  0.0417
 4122SOL    HW116154   3.720   8.051   3.047 -0.0848 -1.2102 -0.2442
 4122SOL    HW216155   3.605   8.127   3.111  1.7845  0.7530  0.9119
 4123SOL     OW16156   1.848   4.007   8.720 -0.0015 -0.4023  0.2771
 4123SOL    HW116157   1.781   4.075   8.710  0.3076 -0.0717  0.4569
 4123SOL    HW216158   1.931   4.052   8.705  0.2047 -0.7374  0.4094
 4124SOL     OW16159   1.704   6.569   7.251 -0.6744 -0.0236  0.0396
 4124SOL    HW116160   1.786   6.615   7.231 -0.7490 -0.0395 -0.3023
 4124SOL    HW216161   1.655   6.571   7.169 -0.2317 -1.6341 -0.2874
 4125SOL     OW16162   7.921   3.009   6.614  0.2498  0.3938  0.1144
 4125SOL    HW116163   7.891   2.962   6.692  0.2726 -0.8330 -0.5937
 4125SOL    HW216164   7.995   2.958   6.582  0.8267  1.3989 -0.2140
 4126SOL     OW16165   0.339   5.159   5.000  0.1377 -0.4163  0.3475
 4126SOL    HW116166   0.428   5.189   4.978  0.1675 -0.1423  0.8511
 4126SOL    HW216167   0.302   5.228   5.054  0.3360 -1.4181  1.8301
 4127SOL     OW16168   3.257   2.824   1.848  0.2702  0.0754  0.1068
 4127SOL    HW116169   3.277   2.911   1.884  1.2189 -0.9534  2.2566
 4127SOL    HW216170   3.340   2.793   1.813  0.1829 -0.3686  0.2899
 4128SOL     OW16171   2.401   1.301   9.003  0.1054 -0.9859 -0.2567
 4128SOL    HW116172   2.433   1.391   9.006  0.6297 -1.1668 -0.2920
 4128SOL    HW216173   2.307   1.309   8.990  0.3170 -0.4415 -1.6071
 4129SOL     OW16174   9.756   2.549   3.777  0.0460 -0.8271  0.1556
 4129SOL    HW116175   9.674   2.500   3.765 -0.3258  0.2443 -2.2485
 4129SOL    HW216176   9.825   2.488   3.752 -0.0581 -1.4054  1.2099
 4130SOL     OW16177   8.368   7.680   9.384 -0.1007  0.0067 -0.2538
 4130SOL    HW116178   8.318   7.713   9.309 -1.3699  0.2460  0.6709
 4130SOL    HW216179   8.305   7.677   9.455  1.3275  0.8554  1.1120
 4131SOL     OW16180   5.706   3.373   7.789  0.1392  0.9728  0.0491
 4131SOL    HW116181   5.681   3.313   7.858  0.5781  2.3364  1.4510
 4131SOL    HW216182   5.669   3.457   7.816 -1.3462  1.1945 -2.3552
 4132SOL     OW16183   5.140   7.222   3.342 -0.0724 -0.7227  0.1426
 4132SOL    HW116184   5.056   7.189   3.309  1.0162 -1.3534 -2.2975
 4132SOL    HW216185   5.187   7.143   3.368 -0.3502 -0.3372  1.8835
 4133SOL     OW16186   1.433   3.518   8.807 -0.4258  0.1931 -0.3779
 4133SOL    HW116187   1.484   3.505   8.727 -1.8970 -0.6001 -1.2361
 4133SOL    HW216188   1.417   3.429   8.839  0.8345  0.5164  1.2905
 4134SOL     OW16189   1.408   6.655   7.896  0.2909  0.2162 -0.0786
 4134SOL    HW116190   1.412   6.633   7.989 -0.5491  0.8812  0.1323
 4134SOL    HW216191   1.482   6.714   7.882  0.3169  0.2540  0.2090
 4135SOL     OW16192   6.833   2.716   4.179  0.2850 -0.1665  0.3614
 4135SOL    HW116193   6.839   2.674   4.265 -0.2978 -0.1698  0.3989
 4135SOL    HW216194   6.775   2.791   4.192 -1.4260 -1.2803 -0.4549
 4136SOL     OW16195   7.705   2.725   2.699 -0.2795  0.7366  0.1924
 4136SOL    HW116196   7.793   2.760   2.716 -0.0584  0.7065 -0.8044
 4136SOL    HW216197   7.697   2.729   2.604 -1.0075 -0.1213  0.2150
 4137SOL     OW16198   4.583   7.634   1.235 -0.5309  0.0488  0.4020
 4137SOL    HW116199   4.626   7.567   1.289  0.0279 -0.5417 -0.7364
 4137SOL    HW216200   4.613   7.717   1.273 -1.0490 -0.3326  1.6877
 4138SOL     OW16201   5.849   0.135   2.261 -0.4934  0.2556  0.7125
 4138SOL    HW116202   5.912   0.063   2.266 -0.7373 -0.0634 -0.4775
 4138SOL    HW216203   5.902   0.214   2.269  0.0541 -0.0127 -0.1418
 4139SOL     OW16204   0.461  10.038   9.698  0.1937  0.1320  0.1107
 4139SOL    HW116205   0.452  10.057   9.605 -0.1863  0.7478  0.2699
 4139SOL    HW216206   0.461  10.124   9.741 -0.9000 -0.1892  0.7948
 4140SOL     OW16207  10.038   4.107  10.224  0.1482 -0.0494 -0.3264
 4140SOL    HW116208   9.993   4.118  10.308 -1.3464 -1.9972 -0.7989
 4140SOL    HW216209   9.967   4.096  10.161  1.2512 -1.5509 -1.3792
 4141SOL     OW16210   8.766   4.197   1.773 -0.0942 -0.3566 -0.3862
 4141SOL    HW116211   8.807   4.275   1.736 -0.0953 -0.9646 -1.7191
 4141SOL    HW216212   8.782   4.204   1.868  1.6304  0.2510 -0.6915
 4142SOL     OW16213   1.923   1.999   3.923 -0.1048  0.3966 -0.0372
 4142SOL    HW116214   1.916   2.086   3.962 -1.0135  0.1347  0.4244
 4142SOL    HW216215   1.941   1.941   3.997  0.6569  0.2094 -0.3646
 4143SOL     OW16216   7.193   8.683   7.515  0.1017 -0.0735  0.5355
 4143SOL    HW116217   7.239   8.604   7.487 -0.9970 -0.6467  0.2864
 4143SOL    HW216218   7.149   8.657   7.596  0.9726  0.7483  1.2888
 4144SOL     OW16219   6.150   2.427   3.608 -0.3203  0.3629 -0.2339
 4144SOL    HW116220   6.240   2.424   3.575 -1.2812 -0.3761 -2.9931
 4144SOL    HW216221   6.160   2.450   3.701  2.8182 -1.5937  0.0654
 4145SOL     OW16222   7.326   9.750   4.104  0.2978  0.1618  0.1695
 4145SOL    HW116223   7.417   9.773   4.125  0.5417 -1.0780  0.5660
 4145SOL    HW216224   7.324   9.747   4.009  0.3274  1.4799  0.1117
 4146SOL     OW16225   2.378   1.341   2.801 -0.1716 -0.6206  0.3072
 4146SOL    HW116226   2.296   1.389   2.811 -0.7497 -1.3016 -0.9973
 4146SOL    HW216227   2.351   1.252   2.778  0.9378 -0.9322  0.1524
 4147SOL     OW16228   4.043   8.850   8.727 -0.5977 -0.0449 -1.0489
 4147SOL    HW116229   4.135   8.830   8.742 -1.3245 -1.8839  1.8064
 4147SOL    HW216230   4.036   8.945   8.742  0.9928  0.4063 -2.7966
 4148SOL     OW16231   4.668   9.643   4.360  1.0170 -0.5600 -0.5631
 4148SOL    HW116232   4.628   9.718   4.317  0.0607 -1.4171 -1.2155
 4148SOL    HW216233   4.762   9.656   4.348  0.8851  0.6068 -0.5069
 4149SOL     OW16234   1.174   6.682   9.574  0.1518  0.2471  0.1433
 4149SOL    HW116235   1.170   6.608   9.634 -1.5946 -0.9709 -1.3427
 4149SOL    HW216236   1.255   6.668   9.524  2.2476  1.8919  2.7769
 4150SOL     OW16237   3.685   4.311   0.698 -0.3953  0.2906 -0.1667
 4150SOL    HW116238   3.677   4.342   0.788 -1.3318  1.3027 -0.5747
 4150SOL    HW216239   3.716   4.387   0.649 -0.3859 -0.1000 -0.7889
 4151SOL     OW16240   4.221   7.114   1.222 -0.4788 -0.4915 -0.2841
 4151SOL    HW116241   4.223   7.070   1.138 -0.3047  1.3662 -1.3168
 4151SOL    HW216242   4.309   7.149   1.233 -0.0945 -1.8292  1.3528
 4152SOL     OW16243   1.549   0.786   5.370  0.4776 -0.1529  0.7767
 4152SOL    HW116244   1.576   0.697   5.390 -0.2131 -0.1585  1.7248
 4152SOL    HW216245   1.602   0.841   5.427 -0.6096 -0.0936  1.7572
 4153SOL     OW16246   2.835   4.679   8.813 -0.2965 -0.3433  0.0908
 4153SOL    HW116247   2.866   4.593   8.841 -1.6747 -1.2518 -1.0374
 4153SOL    HW216248   2.748   4.663   8.776 -0.5423  1.5230 -0.2669
 4154SOL     OW16249   6.309   2.312   7.476  0.4270 -0.0480  0.6100
 4154SOL    HW116250   6.342   2.396   7.444  1.0531  0.4933  2.5453
 4154SOL    HW216251   6.254   2.280   7.405  1.1443  1.4157 -0.6738
 4155SOL     OW16252   5.483   2.507   6.602 -0.3709 -0.0418  0.5727
 4155SOL    HW116253   5.416   2.439   6.600 -1.5432  1.0785 -1.4090
 4155SOL    HW216254   5.556   2.472   6.551 -0.7173 -0.0675  0.0919
 4156SOL     OW16255   6.810   0.467   0.732  0.2806  0.1066  0.2489
 4156SOL    HW116256   6.817   0.544   0.788  1.5203 -0.6416  1.1743
 4156SOL    HW216257   6.799   0.502   0.643 -0.7719  1.3100  0.8227
 4157SOL     OW16258   2.852   9.468   0.369  0.3439 -0.0147 -0.1872
 4157SOL    HW116259   2.915   9.504   0.432 -0.2740 -1.3148  1.2487
 4157SOL    HW216260   2.905   9.412   0.312  0.6933 -0.0922  0.2070
 4158SOL     OW16261   2.458   7.150   0.197  0.1327 -0.6567 -0.2212
 4158SOL    HW116262   2.533   7.143   0.138 -0.2220 -1.2006 -0.6155
 4158SOL    HW216263   2.454   7.243   0.220  1.5470 -0.7784  0.6351
 4159SOL     OW16264   8.436   2.591   6.391 -0.1119 -0.2186  0.0957
 4159SOL    HW116265   8.440   2.685   6.370  0.9614 -0.3074 -0.1780
 4159SOL    HW216266   8.391   2.587   6.476  0.7421  0.6359  0.6112
 4160SOL     OW16267   6.994   0.844   5.379 -0.9348 -0.0749  0.1048
 4160SOL    HW116268   7.026   0.827   5.290  0.2188  1.0216  0.2752
 4160SOL    HW216269   6.906   0.879   5.366 -0.5942  0.5494 -0.6623
 4161SOL     OW16270   8.493   5.613  10.026 -0.0710  0.5094  0.2745
 4161SOL    HW116271   8.561   5.622  10.093 -0.1719  0.2859  0.4076
 4161SOL    HW216272   8.531   5.654   9.948  0.3788  0.0205  0.2324
 4162SOL     OW16273   6.473   1.468   7.969 -0.1256 -0.2354 -0.2404
 4162SOL    HW116274   6.393   1.495   8.015 -0.0322  0.1316 -0.2950
 4162SOL    HW216275   6.466   1.506   7.882  0.1504 -0.1335 -0.2188
 4163SOL     OW16276   1.937   3.847   9.399  0.2445  0.0629  0.5803
 4163SOL    HW116277   1.874   3.787   9.438  2.2805 -0.8673  2.6525
 4163SOL    HW216278   1.906   3.934   9.426 -1.6046 -0.1234 -0.7543
 4164SOL     OW16279   3.010   2.461   4.658 -0.5257  0.1040  0.4174
 4164SOL    HW116280   2.938   2.398   4.663 -0.4783  0.0216  0.0678
 4164SOL    HW216281   3.074   2.428   4.721 -0.9002  0.3200  0.9257
 4165SOL     OW16282   4.882  10.322   9.129 -0.3426 -0.0248 -0.5508
 4165SOL    HW116283   4.941  10.394   9.104 -0.9140  0.3458 -0.8462
 4165SOL    HW216284   4.799  10.343   9.087 -1.0124  0.0328  0.7445
 4166SOL     OW16285   0.530   5.961   4.611  0.5977  0.4022  0.1982
 4166SOL    HW116286   0.512   6.050   4.640 -1.2624 -0.3249  1.5050
 4166SOL    HW216287   0.464   5.908   4.655  1.8561 -1.6796 -0.2783
 4167SOL     OW16288   8.525   7.957   3.172  0.2456 -0.2806  0.9811
 4167SOL    HW116289   8.538   7.975   3.079 -1.3316  1.9766  1.1154
 4167SOL    HW216290   8.564   7.871   3.186  0.3541 -0.7498 -1.7884
 4168SOL     OW16291   6.246   9.031   0.729 -0.6817 -0.3945 -0.1066
 4168SOL    HW116292   6.281   9.064   0.646 -1.9591 -1.3390 -1.0502
 4168SOL    HW216293   6.270   9.098   0.793  0.7481  0.1267 -1.1314
 4169SOL     OW16294   7.210   8.385   8.862  0.0442  0.1515  0.4648
 4169SOL    HW116295   7.227   8.383   8.768  2.6456  0.1396  0.8560
 4169SOL    HW216296   7.239   8.299   8.893 -0.6016  0.2305  1.3069
 4170SOL     OW16297   1.651   1.591  10.184 -0.3573 -0.0968 -0.0931
 4170SOL    HW116298   1.717   1.586  10.253 -1.3729 -1.3978  0.8324
 4170SOL    HW216299   1.653   1.683  10.156 -0.3250  0.6250  2.0871
 4171SOL     OW16300   6.672   0.790   9.851 -0.0372  0.1281 -0.6755
 4171SOL    HW116301   6.616   0.796   9.774 -1.4109 -0.1505  0.2549
 4171SOL    HW216302   6.655   0.871   9.899  1.9933  1.0278 -1.3968
 4172SOL     OW16303   7.665   2.173   8.423  0.2496 -0.1060  0.2571
 4172SOL    HW116304   7.707   2.232   8.360  1.8031 -0.9173  0.4877
 4172SOL    HW216305   7.605   2.120   8.371  0.4415  0.2202 -0.3014
 4173SOL     OW16306   3.656   2.003   6.456 -0.0598 -0.0279 -0.4298
 4173SOL    HW116307   3.582   2.055   6.426 -0.0660  0.4254  0.3272
 4173SOL    HW216308   3.725   2.068   6.472  0.0927 -0.3078  0.0499
 4174SOL     OW16309   7.947   0.417   1.744 -0.2334 -0.1067  0.0924
 4174SOL    HW116310   8.034   0.454   1.729  0.5457 -0.9672  1.9954
 4174SOL    HW216311   7.955   0.372   1.829 -2.0301 -1.7369 -0.5206
 4175SOL     OW16312   3.120   1.993   2.153  0.3457  0.5995  0.3940
 4175SOL    HW116313   3.145   1.930   2.085 -0.0162 -0.5133  1.2603
 4175SOL    HW216314   3.194   1.994   2.213 -0.9378 -1.5909  2.1728
 4176SOL     OW16315   8.737   6.044   5.789  0.1598  0.1347  0.3816
 4176SOL    HW116316   8.791   5.996   5.852 -0.1238  0.4903  0.9033
 4176SOL    HW216317   8.729   5.984   5.714  2.0206  0.4354 -0.1078
 4177SOL     OW16318  10.002   5.469   7.798 -0.2379 -0.1280  0.2752
 4177SOL    HW116319   9.959   5.555   7.802  0.0582  0.1235 -1.2554
 4177SOL    HW216320  10.034   5.463   7.708  0.5140 -1.4857  0.6130
 4178SOL     OW16321   9.419   4.622   3.259  0.0976  0.1526  0.0509
 4178SOL    HW116322   9.472   4.626   3.179 -0.6793 -0.1774 -0.4900
 4178SOL    HW216323   9.394   4.530   3.266  1.3915 -0.1315  1.5103
 4179SOL     OW16324   9.567   1.556   1.803 -0.2739 -0.0397  0.1697
 4179SOL    HW116325   9.650   1.583   1.763 -0.6997  0.6124 -0.3117
 4179SOL    HW216326   9.575   1.462   1.815  0.3614 -0.0519 -0.2970
 4180SOL     OW16327   0.285   1.399   4.968  0.3404  0.1869 -0.0862
 4180SOL    HW116328   0.215   1.351   5.013  0.0684 -0.3858 -1.0744
 4180SOL    HW216329   0.275   1.373   4.876  1.0557  1.0949 -0.4285
 4181SOL     OW16330   9.080   4.187   3.905  0.0576  0.6705  0.3286
 4181SOL    HW116331   9.064   4.109   3.851  1.2907  0.5428  0.1252
 4181SOL    HW216332   9.083   4.259   3.841 -2.9100  1.2425  0.6564
 4182SOL     OW16333   2.217   8.735   4.864 -0.6227 -0.7922 -0.6729
 4182SOL    HW116334   2.175   8.665   4.815 -2.0735 -0.9018  0.6497
 4182SOL    HW216335   2.199   8.715   4.955 -0.1707  0.7552 -0.2122
 4183SOL     OW16336   1.639   9.217   5.745 -0.2549  0.1690 -0.3799
 4183SOL    HW116337   1.685   9.257   5.671 -1.2031  0.7566 -0.6685
 4183SOL    HW216338   1.663   9.271   5.820  0.1885 -0.0349 -0.3725
 4184SOL     OW16339   1.503   3.234   8.247 -0.2907 -0.5354  0.0890
 4184SOL    HW116340   1.567   3.275   8.189  0.3019 -0.3269  0.8758
 4184SOL    HW216341   1.534   3.144   8.256 -0.2052 -0.4804  0.3349
 4185SOL     OW16342   6.206   0.186   5.364 -0.2084 -0.1323  0.6989
 4185SOL    HW116343   6.277   0.125   5.347  0.0282  0.3212 -0.0013
 4185SOL    HW216344   6.128   0.131   5.374  0.0395 -0.5597  0.3116
 4186SOL     OW16345   2.522   8.648  10.284 -0.4962  0.3792 -0.1306
 4186SOL    HW116346   2.525   8.624  10.192  0.6353  1.6885 -0.4693
 4186SOL    HW216347   2.611   8.634  10.316 -0.9469 -0.3501  0.8498
 4187SOL     OW16348   2.610   4.967   3.983  0.1252 -0.2572  0.4282
 4187SOL    HW116349   2.675   5.024   4.025  1.7458  0.7293 -2.9781
 4187SOL    HW216350   2.639   4.878   4.004  2.3334  0.1614 -0.4896
 4188SOL     OW16351   5.115   2.680   3.437  0.7628 -0.3754 -0.3471
 4188SOL    HW116352   5.185   2.687   3.502  2.0184 -1.4121 -1.5329
 4188SOL    HW216353   5.131   2.596   3.393  0.0606  0.3772 -2.1196
 4189SOL     OW16354   0.699  10.150   0.151 -0.0472 -0.4561  0.0244
 4189SOL    HW116355   0.662  10.120   0.234  0.3985 -0.1293  0.3429
 4189SOL    HW216356   0.791  10.166   0.170 -0.1454  0.5370 -0.2903
 4190SOL     OW16357   6.962   3.122   3.977  0.4807 -0.0392 -0.1654
 4190SOL    HW116358   6.976   3.027   3.973  0.2915 -0.2022  2.1601
 4190SOL    HW216359   6.869   3.133   3.960 -0.0659 -0.5611  2.1630
 4191SOL     OW16360   6.734   3.384   3.344 -0.5603 -0.7944  0.0755
 4191SOL    HW116361   6.759   3.475   3.360 -0.8083 -0.8765  0.9663
 4191SOL    HW216362   6.801   3.333   3.389 -0.2166 -1.0676 -0.7263
 4192SOL     OW16363   0.701   9.656  10.254  0.7754  0.8061  0.1989
 4192SOL    HW116364   0.740   9.652  10.167  1.3131  0.6134  0.4484
 4192SOL    HW216365   0.736   9.735  10.294  1.0240  0.5638  0.4708
 4193SOL     OW16366   1.436   6.696   0.784  0.8599 -0.0486  0.1759
 4193SOL    HW116367   1.399   6.676   0.870 -0.3275  0.8633 -0.0857
 4193SOL    HW216368   1.527   6.720   0.802  0.8038 -0.4630  1.0902
 4194SOL     OW16369   1.519   4.376   0.770 -0.6805  0.0637 -0.1543
 4194SOL    HW116370   1.588   4.414   0.716 -0.6827  0.1596 -0.0895
 4194SOL    HW216371   1.539   4.406   0.859 -0.9156  0.2461 -0.1640
 4195SOL     OW16372   5.278  10.224   3.039 -0.1209 -0.0256  0.3659
 4195SOL    HW116373   5.242  10.246   3.126 -0.0241  1.7549 -0.0146
 4195SOL    HW216374   5.204  10.236   2.980  0.1920  0.1908  0.0196
 4196SOL     OW16375   8.983   6.579   4.808 -0.0649 -0.1583 -0.2448
 4196SOL    HW116376   8.912   6.572   4.871  0.4787  0.0747  0.4108
 4196SOL    HW216377   8.979   6.670   4.777  0.9876  0.3656  1.0744
 4197SOL     OW16378   1.528   7.146   8.854 -0.1768 -0.7017 -0.2560
 4197SOL    HW116379   1.484   7.074   8.900 -0.0259 -1.7530 -1.6743
 4197SOL    HW216380   1.612   7.155   8.899 -0.4892 -0.9351  0.3855
 4198SOL     OW16381   2.865   6.660   4.944 -0.4020  0.0299 -0.0844
 4198SOL    HW116382   2.770   6.649   4.950 -0.6712  2.1589  0.1708
 4198SOL    HW216383   2.878   6.720   4.870  0.7203  0.0312  0.0971
 4199SOL     OW16384   1.569   3.380   5.445 -0.6106 -0.7061  0.3516
 4199SOL    HW116385   1.568   3.297   5.397 -0.7780  0.7256 -2.3276
 4199SOL    HW216386   1.478   3.410   5.443 -0.6648 -0.7131  1.8322
 4200SOL     OW16387   7.962   6.809   7.725  0.1995  0.1970 -0.3591
 4200SOL    HW116388   7.978   6.814   7.631 -1.6313  1.3724 -0.6543
 4200SOL    HW216389   8.047   6.825   7.765  0.3884  3.6094 -1.8044
 4201SOL     OW16390   8.267   8.592   7.841  0.0622  0.2188 -0.3457
 4201SOL    HW116391   8.286   8.541   7.762 -1.2138  0.3936 -0.7890
 4201SOL    HW216392   8.337   8.570   7.902  0.9151 -0.1268 -1.4335
 4202SOL     OW16393  10.154   0.533   7.323  0.3743  0.1330 -0.6258
 4202SOL    HW116394  10.086   0.506   7.261  0.9845 -1.9837 -0.4626
 4202SOL    HW216395  10.123   0.501   7.408  0.9773  0.2474 -0.3566
 4203SOL     OW16396   0.522   0.851   9.478 -0.3451  0.4504  0.4629
 4203SOL    HW116397   0.437   0.807   9.474 -0.6453  0.7595  2.5453
 4203SOL    HW216398   0.574   0.798   9.538  0.2853  1.3171  0.6947
 4204SOL     OW16399   2.848   7.758   2.083 -0.5992  0.0885  0.0074
 4204SOL    HW116400   2.912   7.706   2.033 -0.2846 -0.0938  0.5947
 4204SOL    HW216401   2.792   7.693   2.125 -0.4557  0.2342  0.4217
 4205SOL     OW16402   4.386   6.155   0.805  0.3742  0.1190  0.0885
 4205SOL    HW116403   4.471   6.185   0.837  0.6403 -0.5930  0.0459
 4205SOL    HW216404   4.396   6.061   0.790 -0.8783 -0.2962  1.6002
 4206SOL     OW16405   4.542   0.772   3.315  0.3868  0.4245  0.4604
 4206SOL    HW116406   4.459   0.730   3.339  0.1882  1.6479  2.0300
 4206SOL    HW216407   4.607   0.701   3.321 -0.2983 -0.1855  0.7938
 4207SOL     OW16408   5.421   8.603   8.214  0.0240  0.0822 -0.0443
 4207SOL    HW116409   5.494   8.627   8.270 -0.3682  3.8163 -0.8650
 4207SOL    HW216410   5.345   8.646   8.253 -0.8761 -0.0356 -1.5579
 4208SOL     OW16411   2.167   5.139   8.773  0.0369  0.5096 -0.1210
 4208SOL    HW116412   2.144   5.229   8.797  0.6418  1.0664 -1.5201
 4208SOL    HW216413   2.262   5.135   8.784  0.2729  0.6389 -1.8126
 4209SOL     OW16414   3.517   9.763   4.031  0.5878 -0.2121 -0.2124
 4209SOL    HW116415   3.540   9.745   3.940 -2.2483  1.2131 -1.3496
 4209SOL    HW216416   3.551   9.851   4.048  0.7807 -0.3238 -0.0113
 4210SOL     OW16417   8.776   6.851   2.974 -0.0395 -0.1185  0.1779
 4210SOL    HW116418   8.717   6.905   2.921 -0.2040  0.8037  1.2453
 4210SOL    HW216419   8.793   6.774   2.921  0.5143  1.1501 -1.6008
 4211SOL     OW16420   9.025   6.610   1.260 -0.6261  0.0509  0.0287
 4211SOL    HW116421   8.966   6.664   1.206 -1.2742 -0.1547  0.5257
 4211SOL    HW216422   9.042   6.532   1.206 -0.2765  0.4046 -0.3849
 4212SOL     OW16423   7.454   4.733   0.779  0.5631  0.1627  0.2709
 4212SOL    HW116424   7.464   4.641   0.755 -0.4061  0.0068  0.4228
 4212SOL    HW216425   7.367   4.738   0.818  1.4828  0.6908  2.3927
 4213SOL     OW16426   3.395   2.357   6.337  0.0770 -0.3887 -1.0354
 4213SOL    HW116427   3.398   2.319   6.425  0.3087  2.6693  0.4154
 4213SOL    HW216428   3.456   2.304   6.286  1.4480 -1.0817  1.1700
 4214SOL     OW16429   7.629   9.597   8.645 -0.4079 -0.4145 -0.4596
 4214SOL    HW116430   7.655   9.550   8.724 -1.7540 -0.6669 -0.1320
 4214SOL    HW216431   7.705   9.649   8.621  0.1403 -0.6090  0.8039
 4215SOL     OW16432   1.158   8.221   9.820  0.5477  0.4041  0.4764
 4215SOL    HW116433   1.239   8.254   9.780 -0.7138  1.5429 -1.2884
 4215SOL    HW216434   1.116   8.299   9.857 -1.7137  0.6911 -2.3551
 4216SOL     OW16435   7.112   2.505   4.498 -0.0736 -0.3365  0.2716
 4216SOL    HW116436   7.143   2.415   4.494  1.4957  0.1591  0.3678
 4216SOL    HW216437   7.043   2.510   4.433 -0.0453 -1.5646  0.1346
 4217SOL     OW16438   7.590   2.447   4.867 -0.5776  0.1496 -0.6935
 4217SOL    HW116439   7.607   2.542   4.867  0.6569 -0.0490  0.3403
 4217SOL    HW216440   7.659   2.410   4.920 -1.1915 -1.3379 -0.8758
 4218SOL     OW16441   2.194   6.573   3.362  0.5419 -0.5701 -0.8224
 4218SOL    HW116442   2.236   6.499   3.405 -1.7867 -2.2474 -1.2153
 4218SOL    HW216443   2.262   6.612   3.308  1.7737 -2.6841 -0.8919
 4219SOL     OW16444   4.917   3.795   5.479  0.3604  0.0984 -0.6552
 4219SOL    HW116445   4.822   3.791   5.465  0.1643  3.1425 -1.0144
 4219SOL    HW216446   4.941   3.884   5.452  3.2292 -0.3348  0.1183
 4220SOL     OW16447   6.957   0.558   7.282 -0.1670 -0.1015  0.6617
 4220SOL    HW116448   7.051   0.572   7.267 -0.3841  1.1268  0.3547
 4220SOL    HW216449   6.916   0.640   7.254 -1.4506 -1.0412 -0.3023
 4221SOL     OW16450   2.226   2.663   2.586  0.1613  0.2481  0.0839
 4221SOL    HW116451   2.242   2.620   2.670 -0.1745 -1.2140 -0.5724
 4221SOL    HW216452   2.199   2.752   2.610  0.9522  0.1481  1.4805
 4222SOL     OW16453   2.946   6.794   1.178  0.7945 -0.0839  0.3098
 4222SOL    HW116454   2.946   6.699   1.167 -0.8919 -0.0854  0.0753
 4222SOL    HW216455   2.866   6.823   1.134  0.6275  1.3096  1.4678
 4223SOL     OW16456   9.324   2.111   0.200  0.0530 -0.6954 -0.1482
 4223SOL    HW116457   9.288   2.129   0.288 -1.2018 -0.3865 -0.6926
 4223SOL    HW216458   9.282   2.029   0.174  0.6974 -0.9716 -0.3323
 4224SOL     OW16459   9.427   5.638   0.007 -0.4819  0.1869  1.2624
 4224SOL    HW116460   9.416   5.717  -0.047 -0.0815 -0.5380  0.0725
 4224SOL    HW216461   9.397   5.664   0.093 -3.7692  0.6080  0.1118
 4225SOL     OW16462   0.563   5.492   3.466  0.4527 -0.5835 -0.2883
 4225SOL    HW116463   0.626   5.503   3.394 -1.4439  0.4034 -1.8913
 4225SOL    HW216464   0.598   5.547   3.536  0.9464  0.6450 -1.4518
 4226SOL     OW16465   3.573   8.982   5.275  0.0251 -0.8518  0.2149
 4226SOL    HW116466   3.548   8.892   5.253  3.0681 -2.1679  1.5555
 4226SOL    HW216467   3.530   8.998   5.360 -0.1322 -1.2172  0.2074
 4227SOL     OW16468   2.189   5.722   9.833  0.1146 -0.0991  0.3538
 4227SOL    HW116469   2.113   5.707   9.777  0.0507  0.1836  0.3635
 4227SOL    HW216470   2.154   5.761   9.913  0.2567 -0.0769  0.4062
 4228SOL     OW16471   9.882   3.776   1.833 -0.4641  0.3038 -0.0304
 4228SOL    HW116472   9.837   3.780   1.917 -2.6738  0.1738 -1.1296
 4228SOL    HW216473   9.919   3.863   1.821 -0.0259  0.2877  1.1136
 4229SOL     OW16474   6.430   1.462   7.132  0.1855 -0.1490  0.3574
 4229SOL    HW116475   6.463   1.546   7.098  0.4900 -0.4574 -0.1211
 4229SOL    HW216476   6.362   1.436   7.069 -0.5544  0.1842  1.0068
 4230SOL     OW16477   2.715   1.069   9.232  0.3784  0.5769 -0.6615
 4230SOL    HW116478   2.761   1.076   9.316 -1.9342  1.3306  0.6282
 4230SOL    HW216479   2.779   1.097   9.167  2.1269  0.3160  0.8653
 4231SOL     OW16480   9.136   1.438   3.855  0.1346  0.3030  0.0463
 4231SOL    HW116481   9.224   1.476   3.854  0.8952 -1.3982 -0.1790
 4231SOL    HW216482   9.113   1.435   3.948 -0.3640  2.1569  0.0313
 4232SOL     OW16483   4.612   4.798   8.377  0.5535  0.2766 -0.4580
 4232SOL    HW116484   4.695   4.785   8.330  1.1441 -0.2411  0.6972
 4232SOL    HW216485   4.637   4.805   8.469 -0.8597 -1.9470  0.1627
 4233SOL     OW16486   3.021   6.402   1.786  0.3878 -0.8546 -0.2416
 4233SOL    HW116487   3.011   6.428   1.877 -1.4203 -0.1720 -0.5880
 4233SOL    HW216488   3.100   6.448   1.757 -0.6503  1.3567  0.2032
 4234SOL     OW16489   6.719   5.026   3.328  0.3125  0.0941  0.2534
 4234SOL    HW116490   6.636   4.990   3.297 -0.5513  1.0739  1.3254
 4234SOL    HW216491   6.738   5.098   3.267  0.1917  0.1068  0.2310
 4235SOL     OW16492   7.416   5.699   7.111 -0.4573  0.5738 -0.1269
 4235SOL    HW116493   7.435   5.671   7.022 -0.3233  1.9862 -0.5682
 4235SOL    HW216494   7.377   5.622   7.153 -2.1527  0.3736 -1.9094
 4236SOL     OW16495   3.503   0.167   2.952  0.1548  0.1937  0.1895
 4236SOL    HW116496   3.415   0.202   2.938 -0.0579 -0.6686 -0.7217
 4236SOL    HW216497   3.491   0.073   2.956  1.0527  0.0616  0.0019
 4237SOL     OW16498   3.579   5.779   9.080  0.0135  0.2980 -0.0091
 4237SOL    HW116499   3.650   5.734   9.035 -0.2254 -0.0729 -0.0222
 4237SOL    HW216500   3.616   5.805   9.165  0.2043  0.2316 -0.0725
 4238SOL     OW16501   4.937   4.371   1.107 -0.0812 -0.1906  0.7244
 4238SOL    HW116502   4.967   4.350   1.019  1.1132 -1.1627  1.3213
 4238SOL    HW216503   4.977   4.303   1.162 -0.3384  0.7247  2.0762
 4239SOL     OW16504   1.863   5.243   6.275  0.4600 -0.3879 -0.3932
 4239SOL    HW116505   1.857   5.229   6.180  0.1320 -1.8207 -0.1782
 4239SOL    HW216506   1.947   5.286   6.287  0.0895  0.6977 -1.4202
 4240SOL     OW16507   3.888   6.493   8.041 -0.1647 -0.4762 -0.4068
 4240SOL    HW116508   3.803   6.522   8.075 -0.1037  0.1198 -0.7476
 4240SOL    HW216509   3.868   6.410   7.997 -0.3253 -1.0113  0.6523
 4241SOL     OW16510   5.894   5.746   4.210  0.2602  0.1336 -0.1024
 4241SOL    HW116511   5.986   5.730   4.191  0.4029  0.5482  0.2129
 4241SOL    HW216512   5.849   5.729   4.127  0.5195 -0.8244 -0.0590
 4242SOL     OW16513   6.619   8.274   3.623  0.4495  0.6820  0.3847
 4242SOL    HW116514   6.623   8.351   3.566  1.3154  1.3272  1.2612
 4242SOL    HW216515   6.664   8.205   3.575 -0.7791  0.5563 -0.6238
 4243SOL     OW16516   3.006   9.563   9.163 -0.2696  0.2791  0.2792
 4243SOL    HW116517   2.998   9.491   9.226 -0.8009 -1.1658 -1.3717
 4243SOL    HW216518   3.083   9.611   9.192 -0.6821 -0.1252  2.2112
 4244SOL     OW16519   6.301   2.504   4.438 -0.2043  0.1369  0.4710
 4244SOL    HW116520   6.300   2.427   4.380 -0.6921 -0.0857  0.7641
 4244SOL    HW216521   6.392   2.511   4.467 -0.4068 -1.1545  1.5056
 4245SOL     OW16522   1.795   7.208   0.151 -0.2798 -0.3185 -0.4227
 4245SOL    HW116523   1.830   7.276   0.208  1.0651  0.3817 -2.0149
 4245SOL    HW216524   1.756   7.255   0.078 -2.1395 -1.1962 -0.0643
 4246SOL     OW16525   5.450   9.386   9.949  0.3578 -0.1436 -0.6018
 4246SOL    HW116526   5.522   9.413  10.006 -0.5445 -0.0947  0.5567
 4246SOL    HW216527   5.493   9.359   9.867  1.5975  0.8290 -0.3061
 4247SOL     OW16528   2.141   9.675   0.010  0.3811  0.1972  0.1978
 4247SOL    HW116529   2.052   9.670   0.045 -0.0493  0.2093 -0.8589
 4247SOL    HW216530   2.191   9.612   0.063 -0.1520  0.4732  1.0614
 4248SOL     OW16531   4.871   0.245   2.501 -0.2389  0.0008 -0.0349
 4248SOL    HW116532   4.950   0.196   2.477 -0.8484 -0.0545 -2.1381
 4248SOL    HW216533   4.833   0.194   2.572  1.3392 -0.2325  0.6915
 4249SOL     OW16534   5.424   8.715   8.581 -0.0983 -0.2301  0.0827
 4249SOL    HW116535   5.412   8.782   8.648 -0.0923 -0.6488  0.5024
 4249SOL    HW216536   5.429   8.632   8.629 -1.8195 -0.7320 -0.5379
 4250SOL     OW16537   3.348   5.522   5.829 -0.0417 -0.0413  0.3163
 4250SOL    HW116538   3.359   5.540   5.923  1.1569 -0.5651  0.2962
 4250SOL    HW216539   3.361   5.427   5.822  1.0674  0.1578 -0.5202
 4251SOL     OW16540   4.649   7.328   0.852  0.0595 -0.2577 -0.2326
 4251SOL    HW116541   4.637   7.415   0.813 -1.1374  0.5446  1.8083
 4251SOL    HW216542   4.694   7.278   0.784  1.5407  2.1783 -1.1713
 4252SOL     OW16543   9.565   1.368   9.571 -0.1018  0.2902 -0.0729
 4252SOL    HW116544   9.616   1.398   9.646 -0.3507 -2.4666  1.3360
 4252SOL    HW216545   9.631   1.342   9.507  0.1559  0.9256 -0.0691
 4253SOL     OW16546   2.822   9.481   3.188 -0.5318 -0.0875  0.0793
 4253SOL    HW116547   2.824   9.464   3.282 -4.0587  0.1925  0.3263
 4253SOL    HW216548   2.819   9.576   3.181 -0.3812 -0.1098 -0.3383
 4254SOL     OW16549   1.930   9.350   0.962 -0.0198 -0.2005 -0.2143
 4254SOL    HW116550   1.928   9.327   1.055  1.2502 -1.5219 -0.4824
 4254SOL    HW216551   1.964   9.440   0.960  0.8860 -0.5216  0.5463
 4255SOL     OW16552   3.115   6.247   8.138 -0.6701  0.8636  0.4346
 4255SOL    HW116553   3.203   6.283   8.144 -0.0158 -0.1182 -1.9493
 4255SOL    HW216554   3.061   6.319   8.105 -0.3683  0.9468  0.1266
 4256SOL     OW16555   6.104   2.639   0.899  0.3301  0.2473 -0.1873
 4256SOL    HW116556   6.134   2.632   0.809  1.5310  0.6637  0.1543
 4256SOL    HW216557   6.070   2.728   0.907  0.4382  0.2868 -0.1686
 4257SOL     OW16558   5.831   4.947   6.042 -0.3097 -0.3682  0.2171
 4257SOL    HW116559   5.899   4.918   6.103  0.6455  1.2534 -0.0402
 4257SOL    HW216560   5.752   4.900   6.071  0.1886  0.0668  2.4726
 4258SOL     OW16561  10.130   5.399   1.744 -0.2025  0.2396  0.0756
 4258SOL    HW116562  10.047   5.425   1.784  1.3274  0.8519  3.1453
 4258SOL    HW216563  10.133   5.304   1.757 -0.0440  0.3374  0.7961
 4259SOL     OW16564   6.617   2.370   4.542  0.1116  0.0902  0.2938
 4259SOL    HW116565   6.585   2.310   4.475  2.1165  0.3768 -1.0071
 4259SOL    HW216566   6.660   2.314   4.607  0.0961 -0.0312  0.1980
 4260SOL     OW16567   8.958   5.830   8.158 -0.4129  0.3106  1.1106
 4260SOL    HW116568   9.038   5.882   8.165 -0.0375  0.0136 -0.5956
 4260SOL    HW216569   8.953   5.784   8.241  1.4321  0.0133  1.1032
 4261SOL     OW16570   3.629   7.828   0.932 -0.1026 -0.4389  0.4531
 4261SOL    HW116571   3.592   7.742   0.951 -2.1105  0.5115  1.0529
 4261SOL    HW216572   3.575   7.863   0.861  1.6020 -0.2180 -0.8095
 4262SOL     OW16573   3.906   9.772   8.704 -0.1171  0.0999 -0.4602
 4262SOL    HW116574   3.903   9.857   8.661 -1.4937  0.8929  1.0687
 4262SOL    HW216575   3.989   9.772   8.752 -1.0236  1.5634  1.2626
 4263SOL     OW16576   4.087   3.440   0.834 -0.6244  0.3589 -0.0674
 4263SOL    HW116577   3.998   3.415   0.808 -2.0544  1.8552  2.8983
 4263SOL    HW216578   4.082   3.449   0.929  1.9570  3.2536 -0.0667
 4264SOL     OW16579   4.654   7.005   2.082 -0.1319 -0.1124 -0.4879
 4264SOL    HW116580   4.671   6.923   2.127  0.8731  0.1439 -0.3817
 4264SOL    HW216581   4.585   7.047   2.133 -0.7024 -0.9199 -0.5867
 4265SOL     OW16582   8.618   2.419   3.561 -0.4225  0.3291  0.1551
 4265SOL    HW116583   8.573   2.349   3.513 -0.9557  1.6402 -1.3439
 4265SOL    HW216584   8.711   2.404   3.543 -0.6075  0.7135 -1.2098
 4266SOL     OW16585   0.382   8.494   2.885 -0.4376  0.0456  0.8434
 4266SOL    HW116586   0.383   8.457   2.973  0.2211 -0.2163  0.7361
 4266SOL    HW216587   0.474   8.513   2.866 -0.2418 -1.9763 -0.6215
 4267SOL     OW16588   6.948   2.081   0.814  0.3000  0.7791  0.8615
 4267SOL    HW116589   6.950   2.073   0.719  0.4727 -0.0104  0.9276
 4267SOL    HW216590   6.855   2.096   0.835  0.1752  0.3501  0.6148
 4268SOL     OW16591   1.430   8.651   8.242 -0.5054 -0.1443 -0.4709
 4268SOL    HW116592   1.355   8.634   8.185  0.4967 -0.2406 -1.7976
 4268SOL    HW216593   1.506   8.648   8.184  0.4763  0.6261  0.7146
 4269SOL     OW16594   2.852   9.593   8.404  0.0922 -0.2801 -0.2482
 4269SOL    HW116595   2.928   9.562   8.453  0.1683 -1.6863 -1.2072
 4269SOL    HW216596   2.854   9.688   8.416  3.8683  0.2093 -2.7327
 4270SOL     OW16597   7.817   6.650   3.325  0.1464  0.4590 -0.2740
 4270SOL    HW116598   7.907   6.682   3.312 -0.1610  1.2682 -0.4653
 4270SOL    HW216599   7.793   6.611   3.242  0.8536 -1.1382  0.2415
 4271SOL     OW16600   9.163   5.574   8.666  0.6548  0.3088 -0.4798
 4271SOL    HW116601   9.173   5.646   8.604 -1.0988  1.4038  0.4163
 4271SOL    HW216602   9.069   5.569   8.682  0.7759 -1.9242 -0.1774
 4272SOL     OW16603   4.688   2.541   8.756 -0.1930  0.3045 -0.4061
 4272SOL    HW116604   4.739   2.524   8.836  0.7946 -2.8566 -1.5495
 4272SOL    HW216605   4.747   2.591   8.700  0.0514  0.3454 -0.1154
 4273SOL     OW16606   9.267  10.159   2.701  0.2675 -0.2564 -0.0735
 4273SOL    HW116607   9.313  10.098   2.643  0.5475  0.2601 -0.4046
 4273SOL    HW216608   9.335  10.191   2.761  0.7623  1.7266 -1.5663
 4274SOL     OW16609   7.922   7.043   5.507  0.2171  0.2352 -0.3820
 4274SOL    HW116610   7.977   7.120   5.493  1.8932 -0.5978  1.1559
 4274SOL    HW216611   7.924   7.029   5.602  0.1246 -1.8086 -0.6344
 4275SOL     OW16612   4.508  10.211   9.895  0.5933 -0.6955  0.3707
 4275SOL    HW116613   4.465  10.145   9.949  0.8175  0.2604  1.7845
 4275SOL    HW216614   4.461  10.209   9.812  1.5820 -3.7023 -0.2414
 4276SOL     OW16615   1.470   2.853   0.445  0.3407 -0.3155  0.1211
 4276SOL    HW116616   1.453   2.787   0.378  2.7468 -0.4739 -0.3960
 4276SOL    HW216617   1.544   2.819   0.494 -0.5795  0.3860  2.1277
 4277SOL     OW16618   5.020   3.597   0.006  0.1840  0.5654 -0.3993
 4277SOL    HW116619   4.951   3.660  -0.015  0.3850  0.2998 -1.9823
 4277SOL    HW216620   4.980   3.537   0.069 -0.8020  0.8302 -0.7575
 4278SOL     OW16621   1.591   8.502   8.848 -0.2504  0.3750  0.4176
 4278SOL    HW116622   1.570   8.586   8.807  1.7280  0.1443 -1.2907
 4278SOL    HW216623   1.632   8.451   8.777 -0.1042 -1.4956  1.7794
 4279SOL     OW16624   8.310   5.062   0.784  0.2703 -0.1294 -0.2365
 4279SOL    HW116625   8.225   5.059   0.829  0.2391 -0.6096 -0.3214
 4279SOL    HW216626   8.301   5.132   0.719  0.2777  0.4913  0.4237
 4280SOL     OW16627   5.241   6.744   0.268  0.4946  1.2119  0.4243
 4280SOL    HW116628   5.299   6.719   0.196 -1.9914  1.0117 -1.6801
 4280SOL    HW216629   5.264   6.835   0.287  1.2424  1.2600 -0.6031
 4281SOL     OW16630   6.457  10.198   3.393 -0.2692 -0.1421  0.0659
 4281SOL    HW116631   6.404  10.252   3.451 -0.0113  0.5950 -0.3717
 4281SOL    HW216632   6.458  10.112   3.434  0.4134  0.5102  1.4881
 4282SOL     OW16633   7.754   9.567   1.028  0.5607  0.3981 -0.2954
 4282SOL    HW116634   7.716   9.480   1.041 -0.4934  1.1738  2.6366
 4282SOL    HW216635   7.680   9.627   1.034  1.6509  1.6732  0.9545
 4283SOL     OW16636   8.820   7.365   8.966 -0.1759  0.2184 -0.5423
 4283SOL    HW116637   8.767   7.369   8.887 -0.0360 -1.4100 -0.7561
 4283SOL    HW216638   8.858   7.277   8.965  0.7562  0.5727  0.7417
 4284SOL     OW16639   5.762   5.597   9.053 -0.1293 -0.6573  0.4391
 4284SOL    HW116640   5.706   5.551   9.116  0.8227 -2.1752  0.2058
 4284SOL    HW216641   5.827   5.642   9.107  0.6015 -1.8427  0.5882
 4285SOL     OW16642   9.354   8.267   6.040 -0.3681  0.3611 -0.0226
 4285SOL    HW116643   9.322   8.333   6.101  0.4153  1.4003 -0.7015
 4285SOL    HW216644   9.317   8.291   5.955  1.1728  0.8741 -0.5786
 4286SOL     OW16645   6.280   4.933   6.787  0.3203 -0.1720 -0.2264
 4286SOL    HW116646   6.210   4.960   6.846  0.0064 -0.3893 -0.4941
 4286SOL    HW216647   6.294   5.009   6.730 -0.4371 -0.4965 -0.8624
 4287SOL     OW16648   4.197   1.108   6.637 -0.0641 -0.0822  0.2326
 4287SOL    HW116649   4.125   1.134   6.695 -0.2463  0.6635 -0.3049
 4287SOL    HW216650   4.263   1.177   6.650  1.1415 -1.4559  1.7181
 4288SOL     OW16651   9.343   8.570   2.279  0.4029 -0.3052 -0.2158
 4288SOL    HW116652   9.269   8.528   2.235  0.6365 -0.0790 -0.8256
 4288SOL    HW216653   9.400   8.497   2.306  0.4442 -0.4233 -0.6198
 4289SOL     OW16654   1.484   6.896   7.589 -0.3577 -0.1974  0.0559
 4289SOL    HW116655   1.408   6.844   7.560  0.4283 -1.6888  0.5427
 4289SOL    HW216656   1.446   6.978   7.620 -1.6395 -0.3486 -0.9814
 4290SOL     OW16657   1.999   8.310   7.730 -0.0114  0.2179  0.7032
 4290SOL    HW116658   1.974   8.298   7.821 -0.6701 -0.6116  0.4266
 4290SOL    HW216659   2.095   8.321   7.732 -0.1823  1.9185  1.6294
 4291SOL     OW16660   2.233   2.085   6.967  0.0129 -0.8155  0.1359
 4291SOL    HW116661   2.308   2.064   7.023  1.0264 -1.2457 -1.3406
 4291SOL    HW216662   2.215   2.177   6.984  1.9187 -0.2561 -0.6434
 4292SOL     OW16663   8.536  10.030   6.374  0.0633  0.2898 -0.1289
 4292SOL    HW116664   8.568   9.951   6.331 -2.2568  0.2507 -2.0291
 4292SOL    HW216665   8.459  10.001   6.423  0.6765  0.9763  1.3040
 4293SOL     OW16666   6.114   7.066   5.027  0.1149 -0.0289 -0.0877
 4293SOL    HW116667   6.115   7.048   4.933 -2.2151  1.2877 -0.4345
 4293SOL    HW216668   6.189   7.017   5.062 -0.4568 -2.6416 -2.2164
 4294SOL     OW16669   3.551  10.150   1.579  0.2375 -0.0973 -0.3544
 4294SOL    HW116670   3.477  10.211   1.583 -0.2648 -0.7601  1.0067
 4294SOL    HW216671   3.615  10.186   1.641  0.7264  0.0493 -0.9397
 4295SOL     OW16672   7.129   8.143   1.469  0.5326  0.6279 -0.1128
 4295SOL    HW116673   7.061   8.204   1.443 -0.7326 -1.1485 -1.2693
 4295SOL    HW216674   7.178   8.127   1.388  2.2725  1.7474  0.6634
 4296SOL     OW16675   1.478   5.533   6.725 -0.3371 -0.4506 -0.0660
 4296SOL    HW116676   1.473   5.624   6.697  0.5179 -0.7558 -1.3048
 4296SOL    HW216677   1.387   5.508   6.741 -0.5591  0.6794  0.5743
 4297SOL     OW16678   1.002   9.797  10.025  0.2857  0.4315  0.2797
 4297SOL    HW116679   1.072   9.752   9.978  0.5296 -0.3020  1.3254
 4297SOL    HW216680   1.014   9.771  10.116 -0.7903  1.0351  0.6007
 4298SOL     OW16681   5.388   6.951  10.288 -0.1759  0.3192  0.3882
 4298SOL    HW116682   5.436   6.907  10.357  1.4304  0.4537 -0.5761
 4298SOL    HW216683   5.352   7.030  10.330  0.8912  0.4761  1.0470
 4299SOL     OW16684   3.278   9.704   7.653 -0.0907  0.3202  0.2200
 4299SOL    HW116685   3.360   9.733   7.614 -0.6474  2.1908  0.3599
 4299SOL    HW216686   3.302   9.626   7.704  1.3264  0.0651 -0.7751
 4300SOL     OW16687   9.542   1.483   6.357 -0.4949 -0.6345  0.1923
 4300SOL    HW116688   9.603   1.535   6.410 -0.8566  0.0819 -0.0876
 4300SOL    HW216689   9.479   1.547   6.323 -0.3913 -1.1189 -0.9415
 4301SOL     OW16690   3.161   3.231   3.238 -0.2807 -0.0894 -1.0050
 4301SOL    HW116691   3.110   3.257   3.162 -1.8957 -2.8479 -0.9853
 4301SOL    HW216692   3.250   3.220   3.204 -0.1051  2.4288 -1.5601
 4302SOL     OW16693  10.037   0.519   4.769 -0.7577 -0.1605 -0.0321
 4302SOL    HW116694  10.051   0.594   4.711 -1.5813  0.4307  0.5030
 4302SOL    HW216695  10.003   0.450   4.712  1.0744 -0.5217 -0.7335
 4303SOL     OW16696   2.076   8.738   5.130  0.0152  0.0159  0.4119
 4303SOL    HW116697   2.023   8.694   5.196  0.3703 -0.0209  0.6738
 4303SOL    HW216698   2.059   8.831   5.142 -0.5410 -0.0286  0.0238
 4304SOL     OW16699   3.751   5.113   7.303 -0.0159  0.1122  0.0193
 4304SOL    HW116700   3.713   5.146   7.221  0.0391 -2.3581 -1.1086
 4304SOL    HW216701   3.697   5.037   7.324  0.5510  0.1681  1.8158
 4305SOL     OW16702   4.451   5.954   0.594 -0.1249 -0.2258  0.3525
 4305SOL    HW116703   4.533   5.925   0.634  0.4871  3.9168  2.5909
 4305SOL    HW216704   4.479   5.996   0.512 -0.1436  0.1171  0.5208
 4306SOL     OW16705   3.892   8.059   2.228  0.3172  0.1889  0.0234
 4306SOL    HW116706   3.807   8.098   2.248  0.2065 -0.2530  0.4283
 4306SOL    HW216707   3.935   8.048   2.312  0.9855  0.8587 -0.2205
 4307SOL     OW16708   1.812   4.101   1.375  0.7060  0.0475  0.0529
 4307SOL    HW116709   1.841   4.027   1.321  2.5881  1.3455 -0.8247
 4307SOL    HW216710   1.893   4.141   1.405 -0.2703  1.8099  0.4432
 4308SOL     OW16711   0.624  10.324   8.863 -0.0986 -0.4946 -0.4815
 4308SOL    HW116712   0.670  10.282   8.790  0.9002  0.8566 -0.6671
 4308SOL    HW216713   0.557  10.378   8.821  2.3461  2.6449 -0.7438
 4309SOL     OW16714   9.296   7.875   7.348  0.7857 -0.3948 -0.5024
 4309SOL    HW116715   9.210   7.864   7.308  1.4883 -1.2315 -1.8552
 4309SOL    HW216716   9.327   7.959   7.313 -0.4816  1.2452  2.0149
 4310SOL     OW16717   8.487   9.454   8.850 -0.0350  0.1873  0.5404
 4310SOL    HW116718   8.579   9.477   8.839 -0.3158  1.9773  1.4932
 4310SOL    HW216719   8.462   9.414   8.767  1.3919  0.4031 -0.0277
 4311SOL     OW16720   4.364   1.110   3.859 -0.2058  0.0644  0.2793
 4311SOL    HW116721   4.350   1.052   3.785  1.8937  0.1155 -0.2129
 4311SOL    HW216722   4.281   1.109   3.907 -1.9033  0.6535 -2.4587
 4312SOL     OW16723   6.733   2.797   8.258 -0.0598 -0.8054  0.2628
 4312SOL    HW116724   6.813   2.760   8.296  0.9928  1.1862  0.1399
 4312SOL    HW216725   6.682   2.824   8.334 -0.3734 -1.5798  0.3330
 4313SOL     OW16726   4.989   7.502   2.151 -0.2696  0.7121  0.0258
 4313SOL    HW116727   4.932   7.446   2.204  0.2613  1.2778  1.2298
 4313SOL    HW216728   5.059   7.443   2.121 -1.7710 -0.1522 -2.0383
 4314SOL     OW16729   3.939   7.996   5.277  0.4551  0.2882 -0.3616
 4314SOL    HW116730   3.928   7.910   5.317  1.2062  0.2936 -0.1292
 4314SOL    HW216731   3.871   8.000   5.210  1.0335 -0.8922 -1.0495
 4315SOL     OW16732  10.244   3.654  10.104  0.1989  0.6363 -0.1647
 4315SOL    HW116733  10.217   3.742  10.129 -4.3415 -0.7264  0.7193
 4315SOL    HW216734  10.250   3.657  10.009 -2.6743  1.4181 -0.4238
 4316SOL     OW16735   8.804   4.532   2.131  0.4783 -0.2198 -0.1093
 4316SOL    HW116736   8.822   4.603   2.070 -1.0291  0.0562 -0.2721
 4316SOL    HW216737   8.731   4.564   2.184 -0.0593 -1.5325 -0.0227
 4317SOL     OW16738   1.614   6.796   5.590 -0.0161  0.1601 -0.2823
 4317SOL    HW116739   1.578   6.874   5.632 -1.1820 -0.5699  0.1204
 4317SOL    HW216740   1.655   6.748   5.662 -0.0097  0.0145 -0.3830
 4318SOL     OW16741   7.969   7.351   6.331 -0.1256  0.3427 -0.3558
 4318SOL    HW116742   8.033   7.343   6.259  1.3616 -3.5896  1.0976
 4318SOL    HW216743   7.991   7.433   6.373  0.5151  1.6058 -2.9303
 4319SOL     OW16744   3.031   9.407   8.167  0.5048 -0.0581 -0.2044
 4319SOL    HW116745   3.046   9.493   8.126 -0.6066  0.0093 -0.5147
 4319SOL    HW216746   2.937   9.392   8.156  0.7543 -1.5184 -0.5338
 4320SOL     OW16747   7.397   4.928   7.224 -0.4594  0.6434 -0.5245
 4320SOL    HW116748   7.355   5.015   7.224 -0.6366  0.5657 -1.1399
 4320SOL    HW216749   7.427   4.917   7.134 -1.0031 -0.1997 -0.6122
 4321SOL     OW16750   5.237   8.295   4.333  0.0525 -0.0784  0.4380
 4321SOL    HW116751   5.162   8.247   4.369 -1.1552  1.6487  0.3207
 4321SOL    HW216752   5.313   8.249   4.368 -1.0092 -2.2713  0.0835
 4322SOL     OW16753   0.804   3.462   2.891 -0.4116 -0.0287  0.2002
 4322SOL    HW116754   0.805   3.368   2.906 -1.1190 -0.6034 -2.6715
 4322SOL    HW216755   0.891   3.483   2.859 -0.4295  0.2050  0.2968
 4323SOL     OW16756   6.343   6.944   9.028  0.5601  0.2933  0.3308
 4323SOL    HW116757   6.383   6.883   8.966  0.5710 -0.4547  1.0642
 4323SOL    HW216758   6.374   7.030   8.999  0.6715 -0.0491 -0.6151
 4324SOL     OW16759   7.982   0.339   0.432  0.1951  0.7483 -0.0173
 4324SOL    HW116760   7.899   0.299   0.404  0.6321  0.8425 -1.5675
 4324SOL    HW216761   7.998   0.303   0.519 -1.0343  0.0485 -0.0533
 4325SOL     OW16762   6.533   3.924   3.883 -0.7653 -0.1493  0.3439
 4325SOL    HW116763   6.542   3.989   3.953  0.8291 -0.8846  0.8685
 4325SOL    HW216764   6.444   3.936   3.850 -1.0169  1.2555  1.4580
 4326SOL     OW16765   9.516   8.768   9.056 -0.1264 -0.3100 -0.7656
 4326SOL    HW116766   9.475   8.809   8.979 -0.5926 -0.9039 -0.8431
 4326SOL    HW216767   9.600   8.812   9.065 -0.0891 -0.2010 -1.5921
 4327SOL     OW16768   2.816   0.314   0.777 -0.3986  0.6066  0.2690
 4327SOL    HW116769   2.879   0.372   0.735  0.2977 -0.4878 -0.2513
 4327SOL    HW216770   2.822   0.335   0.870 -0.0273  1.2292  0.1084
 4328SOL     OW16771   9.544   9.915   2.670 -0.5332  0.2533  0.2611
 4328SOL    HW116772   9.625   9.877   2.636 -1.2836 -1.2838  0.0796
 4328SOL    HW216773   9.571   9.996   2.713  1.2258 -0.6660  0.9845
 4329SOL     OW16774   5.734   2.684   4.567 -0.7073  0.5909  0.2701
 4329SOL    HW116775   5.727   2.616   4.499  0.4983 -0.7129  1.3938
 4329SOL    HW216776   5.644   2.715   4.579 -1.0452  0.3436 -1.3979
 4330SOL     OW16777   2.537   5.535   1.971 -0.2458  0.1568 -0.8288
 4330SOL    HW116778   2.449   5.551   2.005  0.2423  0.9481  0.0803
 4330SOL    HW216779   2.566   5.620   1.938  0.0619 -0.1705 -1.4227
 4331SOL     OW16780   0.836   0.342   7.912 -0.1527  0.2548  0.2229
 4331SOL    HW116781   0.810   0.427   7.876 -2.6892 -0.6200 -0.2122
 4331SOL    HW216782   0.868   0.363   8.000  3.4245  2.0803 -1.3078
 4332SOL     OW16783   2.702   6.048   2.607 -0.3535 -0.0566  0.1228
 4332SOL    HW116784   2.736   5.961   2.586 -1.1568 -0.7882  1.6274
 4332SOL    HW216785   2.637   6.066   2.539  0.4660 -0.2294 -0.7144
 4333SOL     OW16786   4.639   9.809   9.572  0.1167 -0.0264 -0.0706
 4333SOL    HW116787   4.663   9.741   9.636  0.0692  0.3588  0.3640
 4333SOL    HW216788   4.549   9.787   9.547 -0.2032  0.3459  0.7046
 4334SOL     OW16789   9.068   8.115   1.796 -0.3516  0.4925  0.2743
 4334SOL    HW116790   9.018   8.055   1.740 -0.2795 -0.4307  1.1610
 4334SOL    HW216791   9.007   8.186   1.815 -0.7428  0.2550 -0.0686
 4335SOL     OW16792   9.699   1.444   1.454  0.4954 -0.2326 -0.4939
 4335SOL    HW116793   9.738   1.400   1.530  0.7076 -0.7073 -0.8732
 4335SOL    HW216794   9.771   1.495   1.416  0.6435 -0.7706 -0.9444
 4336SOL     OW16795   2.927   2.425   2.955  0.1224 -0.5200  0.1545
 4336SOL    HW116796   2.959   2.348   3.002 -1.2799 -1.3054 -0.1460
 4336SOL    HW216797   2.898   2.484   3.025 -0.2388 -0.9084  0.3366
 4337SOL     OW16798   7.217   3.897   7.564  0.2444  0.3027  0.5223
 4337SOL    HW116799   7.275   3.838   7.613  0.3167  0.4412  0.6024
 4337SOL    HW216800   7.136   3.898   7.614  0.1695  0.1063  0.4087
 4338SOL     OW16801   9.399   6.173   0.412 -0.4339  0.1487 -0.0638
 4338SOL    HW116802   9.350   6.151   0.491  0.7202  0.4651  0.7657
 4338SOL    HW216803   9.357   6.253   0.380 -2.4874 -1.3017 -1.2029
 4339SOL     OW16804   4.985   8.549   3.666 -0.1328  0.3919 -0.0686
 4339SOL    HW116805   5.037   8.471   3.684  3.3321  2.5705  0.2989
 4339SOL    HW216806   5.033   8.621   3.708 -3.4748  2.6887  0.2124
 4340SOL     OW16807   4.453   2.969   2.487 -0.6532 -0.5052 -0.1011
 4340SOL    HW116808   4.440   2.892   2.431 -0.7445 -0.7136  0.2032
 4340SOL    HW216809   4.403   3.038   2.444  0.6834 -0.1837 -1.2312
 4341SOL     OW16810   6.861   2.240   1.391  0.7309  0.1592 -0.4536
 4341SOL    HW116811   6.774   2.263   1.359  0.3143 -0.4149  0.2498
 4341SOL    HW216812   6.917   2.314   1.363  0.3940 -0.2661 -2.4146
 4342SOL     OW16813   0.993   9.109   3.747  0.4592  0.1400 -0.1963
 4342SOL    HW116814   1.027   9.161   3.820  0.9917 -0.7561  0.2148
 4342SOL    HW216815   0.906   9.146   3.729  0.8059  1.1266  0.1088
 4343SOL     OW16816   8.702   1.264   1.387 -0.4583  0.1103 -0.1768
 4343SOL    HW116817   8.786   1.225   1.412 -0.5339 -0.1435 -0.3212
 4343SOL    HW216818   8.707   1.274   1.292 -0.3029  0.7750 -0.1043
 4344SOL     OW16819   6.712   3.568   7.181 -0.7052 -0.0968  0.0730
 4344SOL    HW116820   6.775   3.517   7.231  0.7217  1.3382 -0.2194
 4344SOL    HW216821   6.630   3.558   7.229 -0.1414 -1.4424  0.8239
 4345SOL     OW16822   7.416   3.112   3.058 -0.0495 -0.2871  0.3883
 4345SOL    HW116823   7.371   3.117   3.142  2.7235 -1.3102  2.0601
 4345SOL    HW216824   7.466   3.030   3.062  0.3987 -0.2141 -2.1483
 4346SOL     OW16825   8.187   8.948   5.069 -0.2704  0.4244 -0.1488
 4346SOL    HW116826   8.116   8.900   5.111 -1.4491  2.7259  0.6341
 4346SOL    HW216827   8.266   8.922   5.116 -1.0100  0.0077  0.8755
 4347SOL     OW16828   3.161   4.618   6.733  0.0278 -0.2962  0.3196
 4347SOL    HW116829   3.081   4.634   6.782  0.4443 -0.5425  1.0868
 4347SOL    HW216830   3.219   4.572   6.794  0.3573 -1.0974 -0.5595
 4348SOL     OW16831   5.859  10.329   8.167 -0.2271  0.6917 -0.3058
 4348SOL    HW116832   5.872  10.372   8.082  0.8158  0.5489 -0.2263
 4348SOL    HW216833   5.764  10.325   8.177 -0.3924 -0.0625 -1.8694
 4349SOL     OW16834   3.168   5.789   3.359 -0.0975  0.5712 -0.8755
 4349SOL    HW116835   3.103   5.841   3.311  0.8560 -0.2512 -3.2011
 4349SOL    HW216836   3.156   5.814   3.450 -1.9774  2.2942 -1.5226
 4350SOL     OW16837   4.011   0.211   3.973  0.4123 -0.5940  0.1529
 4350SOL    HW116838   4.085   0.193   3.915  1.6588  1.8177  0.8554
 4350SOL    HW216839   3.962   0.281   3.929 -0.0849 -0.5074  0.8184
 4351SOL     OW16840   2.738   8.709   3.990 -0.0176 -0.8146  0.1665
 4351SOL    HW116841   2.774   8.750   3.911  1.7107 -1.0872  0.7732
 4351SOL    HW216842   2.779   8.623   3.993 -2.4403 -2.0542 -0.2649
 4352SOL     OW16843   1.710   9.556   5.507 -0.3620  0.6763  0.2644
 4352SOL    HW116844   1.764   9.480   5.529 -2.5878 -0.8506  0.7369
 4352SOL    HW216845   1.712   9.559   5.411 -0.5601 -0.2229  0.2235
 4353SOL     OW16846   6.281   2.131   3.901 -0.6430  0.1558 -0.1277
 4353SOL    HW116847   6.345   2.200   3.883  1.2805 -1.7590 -0.9672
 4353SOL    HW216848   6.235   2.162   3.979 -0.3413  2.6890 -0.8485
 4354SOL     OW16849   4.345   9.025   8.856 -0.0734 -0.3398  0.0622
 4354SOL    HW116850   4.389   9.004   8.773  0.8503  0.0337  0.4434
 4354SOL    HW216851   4.357   9.119   8.867  2.3197 -0.7731  1.9850
 4355SOL     OW16852   8.292   1.491   0.460 -0.0065 -1.0667  0.2449
 4355SOL    HW116853   8.250   1.410   0.432  0.8493 -1.3796 -0.1689
 4355SOL    HW216854   8.377   1.464   0.494  0.7633 -0.2641 -0.9462
 4356SOL     OW16855   5.340   9.949   4.854 -0.4454 -0.1607 -0.4609
 4356SOL    HW116856   5.262   9.892   4.849 -0.5643  0.0720 -3.0371
 4356SOL    HW216857   5.319  10.022   4.796  0.0850  2.1295  2.0422
 4357SOL     OW16858   8.519   3.390   8.836 -0.0867  0.0105  0.0420
 4357SOL    HW116859   8.460   3.401   8.761 -0.1799  0.4719  0.1759
 4357SOL    HW216860   8.478   3.322   8.889 -0.3979  0.1809  0.0267
 4358SOL     OW16861   5.570   0.203   0.755 -0.1154 -0.0576  0.1012
 4358SOL    HW116862   5.635   0.273   0.762  1.5941 -1.6187  0.6478
 4358SOL    HW216863   5.575   0.157   0.839 -0.2247 -1.6342 -0.7207
 4359SOL     OW16864   2.367   8.332   3.075 -0.2682 -0.1280 -0.8243
 4359SOL    HW116865   2.434   8.340   3.143 -0.8249  0.0797 -0.2932
 4359SOL    HW216866   2.382   8.406   3.017  0.5636 -0.6157 -1.2528
 4360SOL     OW16867   6.192   4.629   6.440 -0.1284  0.1552  0.2891
 4360SOL    HW116868   6.226   4.701   6.386  1.6779  0.0268  1.1779
 4360SOL    HW216869   6.201   4.551   6.386 -1.1089  0.4315 -0.2911
 4361SOL     OW16870   0.830   9.610   6.061 -0.4794 -0.0685 -0.0362
 4361SOL    HW116871   0.858   9.533   6.011 -1.1724 -0.9682  0.8909
 4361SOL    HW216872   0.744   9.585   6.096 -0.3203  0.7919  1.0154
 4362SOL     OW16873   4.699   0.521   1.040 -0.4437  0.4105  0.6413
 4362SOL    HW116874   4.757   0.584   1.084 -1.2167  0.7712  1.1723
 4362SOL    HW216875   4.669   0.463   1.110  0.2719 -0.5776  0.1494
 4363SOL     OW16876   3.101   9.078   4.871  0.2101 -0.2143  0.6847
 4363SOL    HW116877   3.078   9.160   4.827 -0.4922 -1.9285 -2.5103
 4363SOL    HW216878   3.017   9.043   4.902  0.2277 -0.5630  0.3545
 4364SOL     OW16879  10.255   5.853   7.903  0.3810  0.1591 -0.4804
 4364SOL    HW116880  10.311   5.931   7.897  1.4935 -0.6014 -0.3083
 4364SOL    HW216881  10.166   5.887   7.900  0.8490  1.4319 -0.4965
 4365SOL     OW16882   4.434   6.234   6.350  0.0552  0.1756  0.0066
 4365SOL    HW116883   4.373   6.164   6.328 -0.8426  0.9036  0.0832
 4365SOL    HW216884   4.456   6.219   6.442 -0.3653  0.1509  0.1060
 4366SOL     OW16885   2.006  10.233   6.297 -0.4643 -0.3343 -0.2400
 4366SOL    HW116886   1.916  10.208   6.314 -0.4491 -0.3292 -0.1531
 4366SOL    HW216887   2.017  10.222   6.202 -0.1902 -1.5291 -0.0890
 4367SOL     OW16888   4.734   4.707   2.643  0.0476 -0.2848 -0.4928
 4367SOL    HW116889   4.738   4.717   2.548  2.5052  0.8265 -0.3527
 4367SOL    HW216890   4.666   4.768   2.671 -0.1484 -0.0306 -1.4785
 4368SOL     OW16891   0.824   1.670   3.682  0.1972 -0.2060 -0.3053
 4368SOL    HW116892   0.770   1.681   3.604 -0.7517  0.5200  0.4287
 4368SOL    HW216893   0.779   1.603   3.733  1.1703 -1.1499 -0.6790
 4369SOL     OW16894   1.094   9.235   0.722  0.7430 -0.1089 -0.0972
 4369SOL    HW116895   1.021   9.289   0.692  0.0226 -2.0934 -2.2442
 4369SOL    HW216896   1.056   9.176   0.787  1.4051  1.4639  1.8196
 4370SOL     OW16897   6.582   0.090   6.058 -0.3893  0.4863 -0.0127
 4370SOL    HW116898   6.557   0.109   6.148 -0.6304 -1.0758  0.2737
 4370SOL    HW216899   6.641   0.162   6.034 -3.1141  2.9383  0.1268
 4371SOL     OW16900  10.285   2.659   0.175  0.6294 -0.4824 -0.0215
 4371SOL    HW116901  10.256   2.606   0.249  0.7008  0.7468  0.9017
 4371SOL    HW216902  10.379   2.670   0.188  0.5233  0.3344  0.1003
 4372SOL     OW16903   0.159   4.350   5.223 -0.3539 -0.0223  0.2905
 4372SOL    HW116904   0.164   4.282   5.157  1.7120 -0.9538  1.3225
 4372SOL    HW216905   0.077   4.397   5.203 -2.3960 -3.3470  0.1379
 4373SOL     OW16906   8.642   5.994   6.406 -0.3576  0.6683  0.1618
 4373SOL    HW116907   8.628   6.050   6.330 -0.6492  0.8701  0.3619
 4373SOL    HW216908   8.727   5.952   6.389 -1.3990 -0.9761 -1.2989
 4374SOL     OW16909   9.983   1.862   5.270 -0.1220  0.0588  0.1699
 4374SOL    HW116910   9.950   1.833   5.355  0.3108 -4.3034 -0.8979
 4374SOL    HW216911  10.077   1.873   5.283 -0.1827  0.2057  0.4719
 4375SOL     OW16912   2.465   2.839   2.576  0.1672 -0.2826  0.1223
 4375SOL    HW116913   2.524   2.913   2.593  0.8773 -0.6667 -0.6191
 4375SOL    HW216914   2.379   2.880   2.561  0.2032  0.2699  1.3276
 4376SOL     OW16915   6.943   5.091   5.258  0.2933 -0.7516 -0.2143
 4376SOL    HW116916   7.009   5.134   5.313 -0.2113 -0.3563  0.0863
 4376SOL    HW216917   6.963   4.998   5.267 -0.2362 -0.7572  1.2709
 4377SOL     OW16918   7.530   6.534   5.133 -0.4345 -0.1153 -0.3388
 4377SOL    HW116919   7.612   6.521   5.085  0.2082  2.2751 -0.0153
 4377SOL    HW216920   7.464   6.489   5.080  1.1274 -2.6242 -0.2839
 4378SOL     OW16921   7.407   3.430   5.844 -0.1539  0.2327  0.0835
 4378SOL    HW116922   7.351   3.358   5.874 -1.2464  0.6470 -0.8590
 4378SOL    HW216923   7.422   3.412   5.752  0.6728  0.5196  0.1554
 4379SOL     OW16924   3.492   4.020   6.725 -0.3665 -0.0180  0.2480
 4379SOL    HW116925   3.493   4.078   6.801 -1.6330  0.3202  0.0251
 4379SOL    HW216926   3.407   3.976   6.728 -1.7272  2.1009 -2.4945
 4380SOL     OW16927   0.972   4.601   1.636 -0.0968 -0.0743 -0.2149
 4380SOL    HW116928   0.923   4.527   1.601 -0.8393  0.6307 -0.7227
 4380SOL    HW216929   1.009   4.569   1.718 -0.8483 -0.8421 -0.1607
 4381SOL     OW16930   8.379   0.654   9.119 -0.3041 -0.3872 -0.6320
 4381SOL    HW116931   8.469   0.624   9.111 -0.0024  0.4448 -0.4148
 4381SOL    HW216932   8.367   0.669   9.213 -0.8817 -1.1165 -0.5738
 4382SOL     OW16933   6.399   8.895   0.479 -0.6238 -0.4178 -0.2976
 4382SOL    HW116934   6.484   8.912   0.438  0.3974 -1.3966  1.3382
 4382SOL    HW216935   6.379   8.975   0.527  0.9498 -1.2720  1.9109
 4383SOL     OW16936   0.701   3.835  10.171  0.0205  0.5196 -0.3145
 4383SOL    HW116937   0.634   3.813  10.236 -0.6135 -0.1886 -1.1915
 4383SOL    HW216938   0.755   3.756  10.166 -1.5311 -0.4969 -2.5755
 4384SOL     OW16939   4.660   3.156   0.867  0.1300  0.5294  0.3425
 4384SOL    HW116940   4.622   3.213   0.934  1.5443  2.3850 -0.3474
 4384SOL    HW216941   4.588   3.138   0.807 -0.6318  0.6147  1.2087
 4385SOL     OW16942   1.702   4.373   5.508  0.1285  0.0487 -0.2364
 4385SOL    HW116943   1.748   4.316   5.569 -0.4365  0.5438  0.6622
 4385SOL    HW216944   1.765   4.442   5.487  0.2473  0.0014 -0.0414
 4386SOL     OW16945   8.068   7.654   2.271 -0.3506  0.4771 -0.2600
 4386SOL    HW116946   8.002   7.617   2.330  1.3129  0.7474  1.8833
 4386SOL    HW216947   8.063   7.599   2.193 -1.9907 -0.5076  0.4795
 4387SOL     OW16948   5.683   6.968   8.337 -0.2373 -0.5799  0.2076
 4387SOL    HW116949   5.656   6.989   8.248 -2.0429 -2.1180  0.3305
 4387SOL    HW216950   5.706   6.875   8.335  3.1090  0.0916  0.6548
 4388SOL     OW16951   5.626   4.181   7.870 -0.2733  0.5485  0.0745
 4388SOL    HW116952   5.584   4.098   7.847  1.4174 -1.7534  4.1280
 4388SOL    HW216953   5.558   4.231   7.914 -0.3995 -0.4394  1.0513
 4389SOL     OW16954   8.786   0.281   1.273  0.0059  0.0439 -0.0843
 4389SOL    HW116955   8.867   0.298   1.225 -0.0258 -0.0202 -0.1611
 4389SOL    HW216956   8.804   0.310   1.362  0.4359 -0.8445  0.1298
 4390SOL     OW16957   0.237   6.751   1.850  0.0048  0.4258  0.0282
 4390SOL    HW116958   0.170   6.797   1.798 -0.1958  0.2464  0.1256
 4390SOL    HW216959   0.320   6.790   1.823 -0.3602  3.2817  2.4968
 4391SOL     OW16960   8.516   2.569   4.561  0.2652 -0.2861 -0.6702
 4391SOL    HW116961   8.508   2.607   4.474  0.2351 -0.1863 -0.6238
 4391SOL    HW216962   8.532   2.476   4.545 -0.8405 -0.4659 -0.7688
 4392SOL     OW16963  10.033   0.343   5.609 -0.0776  0.3512 -0.1299
 4392SOL    HW116964   9.947   0.332   5.569 -0.1659  0.7904 -0.0709
 4392SOL    HW216965  10.057   0.256   5.641 -1.0607  0.4858  0.9983
 4393SOL     OW16966   9.455   5.232   3.590 -0.2922 -0.2134 -0.0561
 4393SOL    HW116967   9.417   5.320   3.593 -2.5227 -1.0486 -1.3939
 4393SOL    HW216968   9.495   5.221   3.677 -0.3201  1.9296  0.2971
 4394SOL     OW16969   2.232   7.632   8.793 -0.4954  0.5160  0.1610
 4394SOL    HW116970   2.141   7.660   8.795 -0.6804 -0.1152  1.1093
 4394SOL    HW216971   2.274   7.680   8.865 -0.0568  0.8423 -0.2987
 4395SOL     OW16972   8.416   1.405   0.840 -0.0941  0.1181 -0.0219
 4395SOL    HW116973   8.369   1.388   0.921  2.8008 -1.3367  1.4861
 4395SOL    HW216974   8.418   1.501   0.833 -2.1218  0.2349  0.4632
 4396SOL     OW16975   3.845   2.000  10.184  0.1985 -0.2232  0.1873
 4396SOL    HW116976   3.905   2.070  10.159 -0.4377 -0.7968 -3.4819
 4396SOL    HW216977   3.846   2.001  10.280  3.9647  1.5059  0.3156
 4397SOL     OW16978   3.004   3.267   0.824 -0.2807  0.0138  0.6444
 4397SOL    HW116979   3.039   3.276   0.913 -2.1125  2.3057  1.2537
 4397SOL    HW216980   3.076   3.295   0.767  0.4007  0.0607  1.5113
 4398SOL     OW16981   6.939   7.451   2.956 -0.1357  0.3930 -0.1264
 4398SOL    HW116982   6.851   7.433   2.922 -0.5902 -1.3524  1.7586
 4398SOL    HW216983   6.995   7.448   2.879 -1.4373 -0.8973 -1.0948
 4399SOL     OW16984   6.341   0.217   6.513 -0.0057  0.2090 -0.4205
 4399SOL    HW116985   6.288   0.202   6.434 -0.3407  0.7235 -0.2977
 4399SOL    HW216986   6.326   0.309   6.534  1.1273  0.4233 -0.5136
 4400SOL     OW16987   4.346  10.002   7.806  0.0054 -0.2002  0.3902
 4400SOL    HW116988   4.251  10.000   7.812  0.0073  0.6090  0.8413
 4400SOL    HW216989   4.364  10.036   7.719 -0.1460  1.2186  0.8862
 4401SOL     OW16990   3.925   3.053   8.720  0.2710 -0.2854  0.2247
 4401SOL    HW116991   3.901   3.138   8.757  0.0776 -0.1308 -0.2479
 4401SOL    HW216992   3.965   3.006   8.793 -1.2111 -0.4456  0.9761
 4402SOL     OW16993   3.973   0.982   1.483  0.2955  0.0781 -0.2515
 4402SOL    HW116994   3.980   1.076   1.497 -3.3310  0.5409 -0.4360
 4402SOL    HW216995   3.963   0.972   1.389 -0.2737 -0.3407 -0.1574
 4403SOL     OW16996   9.265   0.326   9.946  0.0064  0.2971  0.0232
 4403SOL    HW116997   9.185   0.376   9.965 -0.2355  0.6054 -1.6593
 4403SOL    HW216998   9.235   0.253   9.892  1.0576  1.5522 -2.4268
 4404SOL     OW16999   2.411   8.315   8.734 -0.4511 -0.4924  0.0476
 4404SOL    HW117000   2.390   8.328   8.642 -1.7088  1.2039  0.5225
 4404SOL    HW217001   2.371   8.231   8.757 -0.5989 -0.6588 -0.8167
 4405SOL     OW17002   5.755   7.547   0.344  0.0341 -0.3391  0.0734
 4405SOL    HW117003   5.734   7.462   0.305 -1.3028 -0.6290  1.3310
 4405SOL    HW217004   5.706   7.610   0.291  1.9462 -0.1574 -1.5986
 4406SOL     OW17005   3.419  10.023   2.095 -0.0487  0.1907  0.4650
 4406SOL    HW117006   3.370  10.105   2.095  0.0763  0.3012 -1.0636
 4406SOL    HW217007   3.504  10.046   2.058 -0.3232 -0.7812 -0.8322
 4407SOL     OW17008   8.529   5.478   0.724  0.3134  0.1262  0.2413
 4407SOL    HW117009   8.456   5.424   0.693 -0.1150  0.6121  0.3805
 4407SOL    HW217010   8.568   5.514   0.645 -0.4806  0.9848  0.2182
 4408SOL     OW17011   8.848   2.512   4.923  0.4387 -0.2791 -0.6121
 4408SOL    HW117012   8.904   2.573   4.875 -0.0577  1.6833  1.1707
 4408SOL    HW217013   8.888   2.505   5.010 -1.3575  0.1961  0.3029
 4409SOL     OW17014   0.369   1.390   2.247 -0.3178 -0.3052  0.0362
 4409SOL    HW117015   0.448   1.443   2.251 -0.9676  0.7257 -0.5282
 4409SOL    HW217016   0.393   1.309   2.293  1.2881 -0.3363 -0.7812
 4410SOL     OW17017   6.295   9.424   0.370 -0.1952  0.2713 -0.0771
 4410SOL    HW117018   6.375   9.403   0.321 -0.2050 -2.1307  0.7897
 4410SOL    HW217019   6.230   9.441   0.302  0.3808 -0.5982 -0.8843
 4411SOL     OW17020   3.820   2.722   1.612  0.3836 -0.1668 -0.3398
 4411SOL    HW117021   3.794   2.687   1.697  0.5507  1.1083  0.2604
 4411SOL    HW217022   3.885   2.789   1.633  1.3832 -0.7110 -1.5647
 4412SOL     OW17023   2.443   2.976   6.566  0.2878 -0.3820  0.0406
 4412SOL    HW117024   2.523   2.983   6.618 -1.0099  0.7377  1.9958
 4412SOL    HW217025   2.454   2.895   6.517  3.3218  0.5153 -1.0490
 4413SOL     OW17026   9.584   0.579   6.162  0.1255  0.0627 -0.4225
 4413SOL    HW117027   9.677   0.564   6.143 -0.3390 -0.7826 -2.3549
 4413SOL    HW217028   9.580   0.669   6.193  1.8101 -0.5052  1.7312
 4414SOL     OW17029   8.185   1.950   3.818 -0.2764  0.6983 -0.0371
 4414SOL    HW117030   8.105   1.958   3.766 -0.2517  3.5098  0.2268
 4414SOL    HW217031   8.164   1.883   3.883 -1.7180  0.0374 -1.1178
 4415SOL     OW17032  10.246   8.562  10.111 -0.6391 -0.0082  0.6028
 4415SOL    HW117033  10.180   8.572  10.179  0.4967 -0.4080  1.7976
 4415SOL    HW217034  10.219   8.486  10.061 -1.0505 -0.2074  1.1248
 4416SOL     OW17035   2.865   0.403   3.768  0.1447  0.3193  0.3140
 4416SOL    HW117036   2.804   0.330   3.759 -1.0283  1.4231 -1.3058
 4416SOL    HW217037   2.943   0.365   3.807 -0.7871 -1.5903  0.4143
 4417SOL     OW17038   3.859   4.912   2.776  0.2072 -0.4850  0.2836
 4417SOL    HW117039   3.823   4.836   2.730 -0.2375 -0.0353 -0.1283
 4417SOL    HW217040   3.782   4.966   2.796  0.5609  0.0400  0.2304
 4418SOL     OW17041   0.571   1.459   9.820  0.3478  0.0686 -0.5585
 4418SOL    HW117042   0.500   1.432   9.762 -0.1434 -0.7395  0.3924
 4418SOL    HW217043   0.630   1.383   9.823  1.0635  0.5884 -1.0291
 4419SOL     OW17044   9.878   2.005   7.723 -0.4606 -0.2001 -0.2934
 4419SOL    HW117045   9.840   2.072   7.780  1.4163  1.5273 -0.9346
 4419SOL    HW217046   9.805   1.975   7.669 -1.4822  0.9686  0.3944
 4420SOL     OW17047   1.632   1.351   6.184  0.3490  0.4396 -0.3528
 4420SOL    HW117048   1.592   1.380   6.102  1.3425  3.1578  0.0274
 4420SOL    HW217049   1.583   1.398   6.252  1.9451  1.1810  0.3266
 4421SOL     OW17050   5.567   8.989   9.465  0.1899 -0.3186  0.0951
 4421SOL    HW117051   5.501   8.922   9.483  0.2050 -0.6753 -1.0975
 4421SOL    HW217052   5.586   9.028   9.551 -0.5063 -1.1951  0.6640
 4422SOL     OW17053   1.250   4.841   3.158 -0.5145  0.1396  0.4969
 4422SOL    HW117054   1.251   4.919   3.213  2.2119  0.0289  0.7346
 4422SOL    HW217055   1.324   4.788   3.190 -0.2122 -0.9600 -1.8072
 4423SOL     OW17056  10.117  10.123   6.814  0.2083 -0.2368  0.0545
 4423SOL    HW117057  10.035  10.157   6.778 -1.2556 -0.6577  2.7054
 4423SOL    HW217058  10.101  10.030   6.826  0.7251 -0.1743  1.3962
 4424SOL     OW17059   8.035   8.599   4.253  0.0829 -0.0241  0.3147
 4424SOL    HW117060   7.950   8.598   4.209 -0.1119 -0.2447  0.6831
 4424SOL    HW217061   8.016   8.566   4.341  0.0179  2.6681  1.3834
 4425SOL     OW17062   6.391   6.776   1.177 -0.0058 -0.0430  0.4329
 4425SOL    HW117063   6.424   6.717   1.109 -1.1124  0.2063 -0.3522
 4425SOL    HW217064   6.428   6.743   1.258 -0.2220 -1.5311 -0.0477
 4426SOL     OW17065   5.142   3.894   1.932 -0.3464 -0.1088 -0.7966
 4426SOL    HW117066   5.059   3.916   1.973 -0.2407 -0.8406 -0.1674
 4426SOL    HW217067   5.205   3.891   2.004  0.0767 -0.2522 -1.1674
 4427SOL     OW17068   2.277   9.860   0.641  0.1909 -0.1476 -0.0656
 4427SOL    HW117069   2.304   9.950   0.624  0.6600  0.0245  1.4096
 4427SOL    HW217070   2.196   9.869   0.691  0.2085 -0.5455  0.0381
 4428SOL     OW17071   7.127   9.727   8.091 -0.2271 -0.0212  0.2566
 4428SOL    HW117072   7.064   9.702   8.158  0.2700  0.3308  0.8687
 4428SOL    HW217073   7.212   9.698   8.127  0.1194  0.7679  0.0792
 4429SOL     OW17074   3.567   5.312   0.464 -0.2356 -0.0229  0.0496
 4429SOL    HW117075   3.617   5.339   0.387  0.0874 -1.9002 -0.4488
 4429SOL    HW217076   3.599   5.368   0.535 -0.1983  1.4090 -1.0545
 4430SOL     OW17077   4.238   7.967   5.041  0.1416  0.3732 -0.1374
 4430SOL    HW117078   4.227   7.903   4.971 -0.7748  1.8818 -1.4475
 4430SOL    HW217079   4.220   7.919   5.122  0.7952 -1.3099 -0.9402
 4431SOL     OW17080   6.210   8.496   0.286 -0.1028 -0.3941  0.2692
 4431SOL    HW117081   6.298   8.487   0.322  0.0388 -2.3007 -0.4395
 4431SOL    HW217082   6.216   8.572   0.229  0.7522  0.2098  1.1159
 4432SOL     OW17083   0.373   1.295   7.260 -0.1625 -0.0032 -0.2460
 4432SOL    HW117084   0.466   1.286   7.239 -0.3089 -3.1464 -0.0268
 4432SOL    HW217085   0.372   1.309   7.355  0.0942 -1.3013 -0.0316
 4433SOL     OW17086   4.624   1.588   2.723  0.1595  0.7445 -0.2544
 4433SOL    HW117087   4.588   1.569   2.637 -0.3194 -0.1696  0.1371
 4433SOL    HW217088   4.681   1.513   2.743 -0.1746  0.6687  0.4558
 4434SOL     OW17089   5.600   0.693   9.996  0.0519 -0.3540 -0.1165
 4434SOL    HW117090   5.578   0.780  10.028  0.9344  0.3104 -1.2347
 4434SOL    HW217091   5.645   0.709   9.913 -1.9091 -1.9598 -1.5919
 4435SOL     OW17092   3.270  10.147   1.778  0.1861  0.5007 -0.1424
 4435SOL    HW117093   3.190  10.181   1.820 -0.3651 -1.4308  0.4919
 4435SOL    HW217094   3.301  10.219   1.724 -2.4528  1.0646 -1.0625
 4436SOL     OW17095   9.318   3.020   8.025 -0.4264  0.1949  0.1545
 4436SOL    HW117096   9.389   3.080   8.003 -0.6974  0.2801 -0.5033
 4436SOL    HW217097   9.243   3.053   7.976 -1.1115  0.5185  1.3688
 4437SOL     OW17098   8.024   5.058   4.183 -0.6905  0.4715 -0.4096
 4437SOL    HW117099   8.019   5.032   4.275  1.0168 -0.1646 -0.4511
 4437SOL    HW217100   8.018   4.975   4.134  1.3898  0.4386 -0.6982
 4438SOL     OW17101   3.088   1.189   9.772  0.5159  0.0130 -0.4796
 4438SOL    HW117102   3.175   1.225   9.753 -0.2515  2.0804 -0.3469
 4438SOL    HW217103   3.092   1.163   9.864  0.9669  0.1728 -0.4492
 4439SOL     OW17104   1.576   1.621   2.898 -0.3223 -0.0001 -0.0632
 4439SOL    HW117105   1.587   1.638   2.804 -1.3051 -0.4976 -0.2782
 4439SOL    HW217106   1.651   1.567   2.922  0.7948  1.4336 -0.2038
 4440SOL     OW17107   3.977   4.247   7.542  0.0520 -0.3399 -0.2083
 4440SOL    HW117108   4.039   4.177   7.520  1.7993  1.2089 -0.4490
 4440SOL    HW217109   4.028   4.327   7.534 -1.1825  0.8224  2.5612
 4441SOL     OW17110  10.072   1.323   3.815  0.2466 -0.8369  0.5311
 4441SOL    HW117111  10.144   1.327   3.752 -0.1390  0.6932  0.1550
 4441SOL    HW217112  10.026   1.407   3.805 -1.9325 -1.9719  0.3591
 4442SOL     OW17113   0.114   9.995   1.697 -0.5970 -0.8699 -0.2621
 4442SOL    HW117114   0.067  10.064   1.651  1.3455  0.1981 -0.7283
 4442SOL    HW217115   0.076   9.995   1.785 -0.2224  1.2390 -0.0510
 4443SOL     OW17116   9.182   1.256   8.444  0.4817 -0.1261  0.0123
 4443SOL    HW117117   9.187   1.251   8.539 -1.1432  0.2988  0.1588
 4443SOL    HW217118   9.094   1.223   8.423  0.6620  0.1667 -1.2971
 4444SOL     OW17119   5.339   0.377   6.584  0.2902  0.0246  0.3635
 4444SOL    HW117120   5.426   0.390   6.546  1.2868 -0.6930  2.2803
 4444SOL    HW217121   5.328   0.282   6.583 -0.9541  0.1497 -0.7953
 4445SOL     OW17122   3.445   6.442   7.118 -0.0405  0.3583 -0.3496
 4445SOL    HW117123   3.538   6.454   7.099 -0.0098  1.2528  0.2946
 4445SOL    HW217124   3.403   6.439   7.032  0.5552  0.2490 -0.6380
 4446SOL     OW17125   1.813   4.219   7.367 -0.8361 -0.4493 -0.2818
 4446SOL    HW117126   1.718   4.216   7.352 -1.0686  0.6351  0.8426
 4446SOL    HW217127   1.822   4.210   7.462  0.2923 -1.9599 -0.4883
 4447SOL     OW17128   8.309   0.390   9.641 -0.3918  0.1728  0.5835
 4447SOL    HW117129   8.371   0.357   9.707 -0.5270 -0.3288  0.4600
 4447SOL    HW217130   8.363   0.408   9.564 -0.3666 -0.0582  0.5478
 4448SOL     OW17131   6.757   4.183   8.897  0.0769 -0.7904  0.6517
 4448SOL    HW117132   6.663   4.176   8.879  0.0784  0.7107 -0.0779
 4448SOL    HW217133   6.765   4.163   8.991 -0.7176 -2.6636  0.3666
 4449SOL     OW17134   7.949   6.182   0.767  0.2680 -0.1492  0.2255
 4449SOL    HW117135   7.913   6.186   0.856 -0.2252 -0.1566  0.0250
 4449SOL    HW217136   7.949   6.273   0.737  0.0226 -0.2018  0.0676
 4450SOL     OW17137   9.560   0.797   2.754 -0.3415 -0.2842 -0.0726
 4450SOL    HW117138   9.490   0.733   2.766 -0.5573 -0.5743 -2.4108
 4450SOL    HW217139   9.596   0.777   2.668  0.8848  1.5291 -0.0336
 4451SOL     OW17140   7.516   8.357   4.318  0.5531 -0.0162  0.3986
 4451SOL    HW117141   7.421   8.347   4.316  0.6956 -1.7366  0.1787
 4451SOL    HW217142   7.534   8.394   4.404 -0.3470  0.8439  0.2288
 4452SOL     OW17143   7.665   7.648   2.810 -0.3060  0.3016  0.4754
 4452SOL    HW117144   7.670   7.559   2.773 -1.1905  0.2882  0.3646
 4452SOL    HW217145   7.666   7.634   2.905 -1.3461  0.0929  0.4718
 4453SOL     OW17146   3.787   3.598   8.720 -0.0289  0.0935  0.0643
 4453SOL    HW117147   3.875   3.634   8.735 -0.3145  0.5446  0.6660
 4453SOL    HW217148   3.796   3.505   8.739  0.1257  0.2864  0.9709
 4454SOL     OW17149   2.855   4.035  10.067  0.4232 -0.4754 -0.0532
 4454SOL    HW117150   2.909   3.956  10.069  1.6494  0.2013  3.6956
 4454SOL    HW217151   2.777   4.012  10.117 -1.4891 -0.5410 -2.8707
 4455SOL     OW17152   3.653   5.624   0.369  0.0153 -0.2747  0.2239
 4455SOL    HW117153   3.722   5.569   0.332  0.2443  0.5395 -0.5866
 4455SOL    HW217154   3.700   5.697   0.409 -0.3486 -0.0411  0.2248
 4456SOL     OW17155   4.469   8.952   3.649 -0.3913 -0.3713  0.1229
 4456SOL    HW117156   4.534   8.916   3.709 -0.2192  1.3450  1.0401
 4456SOL    HW217157   4.504   8.935   3.562  2.5296  2.4183  0.5727
 4457SOL     OW17158   0.667   3.095   4.013  0.4586  0.5114 -0.2843
 4457SOL    HW117159   0.597   3.151   3.980 -0.5697 -0.6320 -0.1371
 4457SOL    HW217160   0.690   3.039   3.939  0.1817 -0.0953  0.0756
 4458SOL     OW17161   0.701   0.454   3.725 -0.4481 -0.2150 -0.0656
 4458SOL    HW117162   0.647   0.402   3.784  0.3757 -1.4129 -0.3458
 4458SOL    HW217163   0.663   0.542   3.729 -2.2447 -0.9490 -0.0298
 4459SOL     OW17164   0.301   6.219   6.824  0.1368  0.2852  0.1694
 4459SOL    HW117165   0.334   6.274   6.753 -0.6052 -0.1100 -0.4929
 4459SOL    HW217166   0.372   6.158   6.842  0.9885  1.4650  0.9429
 4460SOL     OW17167   2.710   4.715   7.735 -0.3711 -0.3343 -0.6083
 4460SOL    HW117168   2.761   4.751   7.662 -2.9644  1.3090 -1.7220
 4460SOL    HW217169   2.731   4.772   7.809 -0.6376  0.3543 -1.0619
 4461SOL     OW17170   6.197   0.136   7.897  0.1972  0.1445 -0.1641
 4461SOL    HW117171   6.188   0.040   7.892 -2.0854  0.3642 -1.4987
 4461SOL    HW217172   6.127   0.163   7.956 -1.1660  1.1753 -2.1545
 4462SOL     OW17173   5.153   2.790   0.576  0.2385  0.0960 -0.0365
 4462SOL    HW117174   5.091   2.860   0.557 -0.1889  0.3207  1.9371
 4462SOL    HW217175   5.176   2.754   0.490  0.0486  2.2632 -1.0539
 4463SOL     OW17176   8.240   2.915   7.236  0.5515  0.3096  0.1173
 4463SOL    HW117177   8.164   2.865   7.266  0.5618  1.3619  2.0102
 4463SOL    HW217178   8.265   2.873   7.153  0.2016 -2.4515  1.2943
 4464SOL     OW17179   1.691   4.254   9.249 -0.1558  0.2740  0.0914
 4464SOL    HW117180   1.781   4.242   9.218 -0.5624  1.5102 -1.7527
 4464SOL    HW217181   1.641   4.184   9.206 -0.6188  1.6432 -1.7403
 4465SOL     OW17182   6.980   9.650   1.307  0.3801  0.3764  0.7534
 4465SOL    HW117183   6.996   9.744   1.293  2.7880  0.2795  2.3224
 4465SOL    HW217184   7.028   9.607   1.237  1.5587  0.2723  1.6013
 4466SOL     OW17185   8.110   2.747   1.467 -0.3501  0.5450 -0.0231
 4466SOL    HW117186   8.165   2.734   1.543 -1.1362  1.2147  0.6870
 4466SOL    HW217187   8.171   2.757   1.394  0.3940 -0.5542  0.4381
 4467SOL     OW17188   5.737   6.306   6.042 -0.6492 -0.2199 -0.2899
 4467SOL    HW117189   5.646   6.277   6.046 -0.6555 -0.6267 -2.3673
 4467SOL    HW217190   5.764   6.290   5.952  1.0016  1.3587 -0.1480
 4468SOL     OW17191   6.150   5.022   5.934 -0.1869  0.0046 -0.4659
 4468SOL    HW117192   6.087   4.980   5.993  0.4714  0.5188  0.6527
 4468SOL    HW217193   6.155   4.965   5.858 -2.0521 -0.0029 -0.6149
 4469SOL     OW17194   0.121   3.363   2.962 -0.1663  0.2503 -0.0515
 4469SOL    HW117195   0.168   3.340   2.882 -0.0501 -0.9874  0.3516
 4469SOL    HW217196   0.188   3.363   3.030 -0.4195  0.4226  0.1981
 4470SOL     OW17197   3.358   7.844   2.195 -0.1931 -0.1705  0.0625
 4470SOL    HW117198   3.355   7.859   2.100 -0.6054 -2.0496 -0.2590
 4470SOL    HW217199   3.285   7.784   2.212  2.7977 -4.0688  0.6729
 4471SOL     OW17200   3.881   1.519   3.038  0.2694 -0.1716  0.1237
 4471SOL    HW117201   3.951   1.570   2.998 -1.8255  1.1084 -2.2516
 4471SOL    HW217202   3.862   1.451   2.973 -0.8951 -0.2673  0.5459
 4472SOL     OW17203   7.417   6.286   5.366  0.0461  0.1761  0.3163
 4472SOL    HW117204   7.432   6.272   5.459  2.7410  0.6482  0.0200
 4472SOL    HW217205   7.383   6.376   5.360 -1.9126 -0.4708  0.9206
 4473SOL     OW17206   7.480   4.039   6.643  0.5586 -0.0644  0.3234
 4473SOL    HW117207   7.437   4.023   6.559  0.2156  0.4848  0.3863
 4473SOL    HW217208   7.437   4.118   6.677 -0.0137 -0.8429  1.4927
 4474SOL     OW17209   6.622   4.236   7.596  0.3818  0.1394 -0.0844
 4474SOL    HW117210   6.543   4.187   7.620  0.8984  0.2651  2.0440
 4474SOL    HW217211   6.680   4.170   7.558  0.4122 -0.5657  1.1572
 4475SOL     OW17212   5.327   4.287   8.924 -0.0941  0.0267  0.0763
 4475SOL    HW117213   5.288   4.331   8.849  2.2114  0.0688 -1.1650
 4475SOL    HW217214   5.301   4.340   8.999 -2.7114 -0.1844 -0.5915
 4476SOL     OW17215   4.083   2.216   2.512 -0.1124  0.0143  0.1236
 4476SOL    HW117216   4.012   2.187   2.569  0.4484 -1.8392 -0.0726
 4476SOL    HW217217   4.038   2.247   2.433 -1.0167  4.0652  1.9349
 4477SOL     OW17218   6.494   8.198   8.308 -0.5833 -0.0097 -0.3648
 4477SOL    HW117219   6.494   8.260   8.235  0.8130  0.9398  0.3853
 4477SOL    HW217220   6.548   8.240   8.375 -2.2199 -0.6173  1.4318
 4478SOL     OW17221   9.145   1.655   8.061 -0.3230 -0.6367 -0.0465
 4478SOL    HW117222   9.181   1.605   8.134 -1.8953  0.7271  1.7897
 4478SOL    HW217223   9.176   1.610   7.983 -0.2776 -3.4526  1.4528
 4479SOL     OW17224   8.243   6.507   1.155 -0.9589 -0.3459 -0.0724
 4479SOL    HW117225   8.277   6.425   1.192 -0.2939 -0.4110 -0.8064
 4479SOL    HW217226   8.280   6.575   1.211  1.3084 -0.3420 -1.4547
 4480SOL     OW17227   6.682   0.923   9.482  0.2309  0.4588  0.2688
 4480SOL    HW117228   6.710   0.834   9.503 -1.9569 -0.2316  0.5327
 4480SOL    HW217229   6.760   0.977   9.495  1.3563 -1.2842  1.0462
 4481SOL     OW17230   7.349   2.517   4.260  0.1061 -0.0495 -0.2215
 4481SOL    HW117231   7.367   2.546   4.349  0.5793 -3.0136  0.7789
 4481SOL    HW217232   7.255   2.525   4.251 -0.4949 -2.7905  1.9319
 4482SOL     OW17233   3.165  10.339   3.939  0.2563  0.5445 -0.3661
 4482SOL    HW117234   3.235  10.274   3.929 -0.0239  0.2938 -0.7534
 4482SOL    HW217235   3.122  10.340   3.854  0.5558  1.5951 -0.5163
 4483SOL     OW17236   5.060   6.875   2.454 -0.0844  0.0381  0.1773
 4483SOL    HW117237   5.024   6.963   2.443 -1.3712 -0.6166 -1.1469
 4483SOL    HW217238   5.150   6.889   2.483  0.3341  1.8435 -1.7587
 4484SOL     OW17239   5.040   0.540   8.247 -0.3487  0.5902  0.2892
 4484SOL    HW117240   4.966   0.600   8.251 -0.9857 -0.1584 -0.0945
 4484SOL    HW217241   5.102   0.575   8.312 -1.5090  0.5901  1.4378
 4485SOL     OW17242   4.221   3.086   4.444 -0.4734  0.0115  0.3461
 4485SOL    HW117243   4.307   3.045   4.448 -0.5534 -0.2497 -0.4985
 4485SOL    HW217244   4.194   3.095   4.536  0.6842  0.6052  0.6382
 4486SOL     OW17245   3.541   5.768   4.462 -0.2893  0.5828 -0.3392
 4486SOL    HW117246   3.582   5.767   4.376  1.4707  1.2729  0.4414
 4486SOL    HW217247   3.609   5.736   4.522 -0.0525  3.7717  1.3241
 4487SOL     OW17248   0.655   8.419   9.495 -0.3178  0.3555  0.1425
 4487SOL    HW117249   0.638   8.328   9.519  0.8179 -0.3965 -1.6917
 4487SOL    HW217250   0.695   8.458   9.572 -1.9743 -0.3113  1.3943
 4488SOL     OW17251   0.838   8.580   5.959 -0.1366  0.0523  0.5213
 4488SOL    HW117252   0.879   8.609   6.040 -2.8607  2.1029  1.2933
 4488SOL    HW217253   0.875   8.636   5.892  1.4789 -1.0742  0.3958
 4489SOL     OW17254   9.332   8.289   8.352 -0.1143  0.3059 -0.1070
 4489SOL    HW117255   9.273   8.307   8.279  0.5023  1.0055 -0.4429
 4489SOL    HW217256   9.295   8.210   8.393 -0.0056 -0.6212 -1.6842
 4490SOL     OW17257   7.357   9.117   8.889 -0.3306  0.3856  0.2402
 4490SOL    HW117258   7.286   9.152   8.943 -0.1552  0.5266  0.3805
 4490SOL    HW217259   7.388   9.040   8.936 -0.3684  0.3438  0.1963
 4491SOL     OW17260   3.204   0.996   3.221 -0.4601 -0.7575  0.2212
 4491SOL    HW117261   3.218   0.982   3.315  4.6382 -2.6797 -0.5181
 4491SOL    HW217262   3.173   0.911   3.189 -1.0903 -0.4435 -0.0076
 4492SOL     OW17263   3.010   9.597   0.575 -0.4330 -0.4004 -0.1143
 4492SOL    HW117264   3.041   9.600   0.665  0.7327 -0.9285 -0.4782
 4492SOL    HW217265   3.090   9.597   0.522 -1.0748  2.5705 -1.2745
 4493SOL     OW17266   3.030   2.423   9.230 -0.4324  0.0024  0.2347
 4493SOL    HW117267   3.037   2.334   9.265 -1.3766  0.4927  1.7481
 4493SOL    HW217268   2.977   2.414   9.151 -1.5709 -0.6401  1.0386
 4494SOL     OW17269   5.614   5.822   1.998  0.3863 -0.5209  0.5312
 4494SOL    HW117270   5.578   5.743   2.037 -0.0102 -0.4878  0.2351
 4494SOL    HW217271   5.673   5.790   1.930  0.9291 -0.5746  1.0187
 4495SOL     OW17272   7.506   1.978   7.366 -0.3258  0.0847 -0.0146
 4495SOL    HW117273   7.529   2.039   7.437  1.4640 -1.8481  1.1941
 4495SOL    HW217274   7.472   1.901   7.412  1.3407 -1.4104 -1.1553
 4496SOL     OW17275   7.040   5.853   5.280  0.1039 -0.0407  0.8647
 4496SOL    HW117276   7.081   5.775   5.319  1.1113  1.0532  2.0962
 4496SOL    HW217277   7.033   5.914   5.353  0.8645  1.6380 -0.4152
 4497SOL     OW17278   1.369   0.044   6.922 -0.0110 -0.4408 -0.3984
 4497SOL    HW117279   1.433   0.044   6.851  0.8707 -0.7913  0.3806
 4497SOL    HW217280   1.296   0.097   6.889  0.5331 -0.3216 -1.4258
 4498SOL     OW17281   8.533   6.717   8.708  0.0722 -0.0255  0.3766
 4498SOL    HW117282   8.589   6.751   8.637  1.5120  0.9596  1.9234
 4498SOL    HW217283   8.444   6.741   8.681  0.6167  0.7279 -0.8841
 4499SOL     OW17284   8.304  10.247   6.957  0.0857  0.1217 -0.1567
 4499SOL    HW117285   8.332  10.247   7.049 -1.2037 -1.3016  0.2760
 4499SOL    HW217286   8.274  10.336   6.941 -1.5288 -0.0820  1.4269
 4500SOL     OW17287   5.827   5.012   9.322 -0.4737 -0.8574  0.6325
 4500SOL    HW117288   5.876   4.983   9.246 -0.8128 -2.5805  1.0437
 4500SOL    HW217289   5.753   5.061   9.286  0.5535  0.2464 -0.0384
 4501SOL     OW17290   2.247   9.549   7.268  0.6540 -0.3127 -0.1745
 4501SOL    HW117291   2.279   9.504   7.190  1.1162 -1.8392  0.8381
 4501SOL    HW217292   2.160   9.513   7.283  1.3145 -1.5376  1.0639
 4502SOL     OW17293   7.658   2.019   6.319 -0.2598 -0.0153 -0.4534
 4502SOL    HW117294   7.571   2.017   6.358 -0.7087  0.1823 -1.4090
 4502SOL    HW217295   7.673   1.929   6.288  0.1553 -0.2079  0.2883
 4503SOL     OW17296   8.624   8.450   7.046  0.7343 -0.5678 -0.3875
 4503SOL    HW117297   8.663   8.536   7.031 -1.0300  0.4214  0.4546
 4503SOL    HW217298   8.645   8.400   6.967  1.4829  0.7348 -1.0459
 4504SOL     OW17299  10.240   9.363   5.145 -0.1513  0.0773  0.0338
 4504SOL    HW117300  10.217   9.296   5.081 -0.7968 -0.2023  0.5417
 4504SOL    HW217301  10.246   9.316   5.228  0.4820  0.4669  0.2154
 4505SOL     OW17302   5.840   4.985   7.697 -0.1787 -0.3291 -0.0009
 4505SOL    HW117303   5.778   4.954   7.631 -1.3149  1.0586  0.3527
 4505SOL    HW217304   5.792   4.979   7.779 -0.2102  1.6319  0.1642
 4506SOL     OW17305   7.233   5.096   1.283 -0.5227 -0.3417  0.4535
 4506SOL    HW117306   7.306   5.155   1.298 -0.2131 -1.1505  2.3461
 4506SOL    HW217307   7.268   5.028   1.225 -0.4022  0.3581 -0.3213
 4507SOL     OW17308   2.928   3.140   1.615  0.6768  0.0770  0.1058
 4507SOL    HW117309   2.924   3.109   1.706  0.2228 -0.1833  0.0016
 4507SOL    HW217310   2.964   3.228   1.621  0.7026  0.0395  0.5366
 4508SOL     OW17311   0.004   4.987   4.459  0.1800  0.7494 -0.0082
 4508SOL    HW117312  -0.045   5.030   4.388  0.8642  0.5054 -0.6416
 4508SOL    HW217313   0.010   4.896   4.432 -0.7583  0.3520  1.0488
 4509SOL     OW17314   7.660   4.876   0.934  0.3069  0.1064  0.3504
 4509SOL    HW117315   7.720   4.811   0.971 -1.4310 -1.4670  0.5874
 4509SOL    HW217316   7.601   4.824   0.879 -1.2897  1.4747  0.7078
 4510SOL     OW17317   3.469   5.345   8.830  0.3433  0.5511 -0.0876
 4510SOL    HW117318   3.448   5.410   8.764 -0.5869 -0.0179 -0.3688
 4510SOL    HW217319   3.452   5.388   8.914  0.2697  0.8500 -0.2558
 4511SOL     OW17320   1.034   5.825   0.278  0.4757 -0.2448 -0.0817
 4511SOL    HW117321   1.056   5.866   0.361 -0.0655 -0.9213  0.4037
 4511SOL    HW217322   1.025   5.732   0.298  0.2526 -0.4047 -0.8730
 4512SOL     OW17323   7.314   1.533   6.064  0.0600 -0.6716 -0.0556
 4512SOL    HW117324   7.402   1.498   6.082  0.2325  0.1508  0.7794
 4512SOL    HW217325   7.262   1.506   6.140  0.8472  3.0206  2.0278
 4513SOL     OW17326   9.986   8.118   5.985  0.5876  0.2684 -0.2849
 4513SOL    HW117327  10.026   8.134   5.900  2.4051  2.2150  0.8372
 4513SOL    HW217328  10.053   8.142   6.048 -1.0110 -0.2466  1.7166
 4514SOL     OW17329   1.268   8.738   8.816  0.0921  0.2815  0.1003
 4514SOL    HW117330   1.258   8.664   8.757  0.4996  0.5844 -0.3618
 4514SOL    HW217331   1.249   8.703   8.903 -0.0925 -0.2687 -0.1596
 4515SOL     OW17332   6.650   4.636   8.263 -0.3985 -0.2635  0.3289
 4515SOL    HW117333   6.611   4.565   8.314  0.5947 -1.0410  0.0255
 4515SOL    HW217334   6.608   4.630   8.177 -0.6671 -0.1613  0.4499
 4516SOL     OW17335   1.663   7.315   0.374  0.1555  0.2556 -0.0685
 4516SOL    HW117336   1.631   7.235   0.333 -1.5611  0.6604  0.3830
 4516SOL    HW217337   1.696   7.287   0.460 -0.4813  0.0305  0.1074
 4517SOL     OW17338   4.853   2.651   3.679 -0.5452 -0.0989 -0.1671
 4517SOL    HW117339   4.778   2.696   3.640 -1.9112 -3.2325 -1.4702
 4517SOL    HW217340   4.916   2.644   3.607 -0.7433 -1.0305 -0.2623
 4518SOL     OW17341   1.715   0.332   3.918  0.0582  0.1172 -0.0140
 4518SOL    HW117342   1.735   0.294   4.003  1.8685  1.2084  0.1094
 4518SOL    HW217343   1.692   0.423   3.937 -0.5569  0.0942 -0.6014
 4519SOL     OW17344   5.743   7.223   8.581  0.3352  0.3268 -0.2475
 4519SOL    HW117345   5.817   7.173   8.545  0.9521  0.6427  0.5424
 4519SOL    HW217346   5.673   7.160   8.590  0.9763 -0.3155  0.3592
 4520SOL     OW17347   8.570   0.048   2.828 -1.0169  0.0440 -0.1888
 4520SOL    HW117348   8.533   0.133   2.854 -1.5533  0.4384 -2.0954
 4520SOL    HW217349   8.614   0.066   2.745 -1.9310 -1.7242 -1.1110
 4521SOL     OW17350   4.239  10.078   5.806  0.4999  0.4273  0.1736
 4521SOL    HW117351   4.308  10.104   5.745 -2.1025  0.1664 -3.1676
 4521SOL    HW217352   4.201   9.999   5.767 -3.5979  2.2389  0.0909
 4522SOL     OW17353   7.705   9.393   0.508  0.3322  0.2622 -0.5362
 4522SOL    HW117354   7.677   9.435   0.590 -0.6375  0.7756 -1.1140
 4522SOL    HW217355   7.798   9.412   0.501  0.7083 -0.7834  1.0372
 4523SOL     OW17356   5.593   2.976   6.612  0.5563 -0.5086 -0.1477
 4523SOL    HW117357   5.498   2.981   6.598  0.1291 -0.6971  2.2314
 4523SOL    HW217358   5.607   2.893   6.657  1.9071 -0.5908 -0.6627
 4524SOL     OW17359   1.318   6.751   1.010 -0.1816 -0.6215 -0.4741
 4524SOL    HW117360   1.351   6.841   1.005 -0.6694 -0.5000 -1.9007
 4524SOL    HW217361   1.229   6.760   1.044  0.4042 -0.7537  1.1822
 4525SOL     OW17362   1.980   3.857   8.517  0.0672  0.5782  0.1594
 4525SOL    HW117363   1.926   3.863   8.438 -1.5236  0.6099  1.1826
 4525SOL    HW217364   1.919   3.879   8.588  1.1493 -0.5390  1.4806
 4526SOL     OW17365   4.637   4.351   4.176 -0.5705  0.2269  0.1657
 4526SOL    HW117366   4.616   4.436   4.215  1.4269  0.5965  0.5543
 4526SOL    HW217367   4.689   4.306   4.243 -0.8984 -0.9857 -0.3544
 4527SOL     OW17368   2.799   7.559   2.858 -0.5667 -0.2704 -0.3405
 4527SOL    HW117369   2.847   7.521   2.785 -0.0757 -0.3184 -0.0004
 4527SOL    HW217370   2.769   7.483   2.909 -0.8726 -0.2367 -0.4715
 4528SOL     OW17371   4.476   8.625   9.866  0.0028 -0.4333  0.0607
 4528SOL    HW117372   4.419   8.688   9.822  0.0169 -0.3189  0.2092
 4528SOL    HW217373   4.514   8.673   9.939 -0.6271 -0.8446  0.6706
 4529SOL     OW17374   4.211   2.464   4.469  0.2111  0.3896  0.1810
 4529SOL    HW117375   4.233   2.405   4.397 -0.1638  0.0748  0.3165
 4529SOL    HW217376   4.186   2.546   4.426 -0.1199  0.1691 -0.0564
 4530SOL     OW17377   4.540   2.572   0.785  0.0746 -0.3498 -0.1383
 4530SOL    HW117378   4.573   2.527   0.706 -2.0446 -0.5099 -0.9918
 4530SOL    HW217379   4.506   2.501   0.840 -1.8091  0.0199 -0.7669
 4531SOL     OW17380   3.115   0.808   8.282  0.0933 -0.4969  0.5554
 4531SOL    HW117381   3.210   0.800   8.288  0.1015 -0.2552  0.7413
 4531SOL    HW217382   3.092   0.758   8.204  0.2792 -1.2759  0.9967
 4532SOL     OW17383   6.858  10.103   5.160  0.0312 -0.4560 -0.7163
 4532SOL    HW117384   6.892  10.021   5.196  1.3276  1.0473  1.7628
 4532SOL    HW217385   6.792  10.132   5.223  1.6728  1.7987  0.1005
 4533SOL     OW17386   1.663   4.977   6.454 -0.1000 -0.2988 -0.7046
 4533SOL    HW117387   1.668   4.889   6.493  2.5982 -0.0896 -0.3885
 4533SOL    HW217388   1.687   5.036   6.525  0.7126  0.4538 -1.5823
 4534SOL     OW17389   9.332   5.271   6.323 -0.0609  0.0625  0.0242
 4534SOL    HW117390   9.382   5.191   6.344  2.7842  1.6464 -0.1614
 4534SOL    HW217391   9.313   5.309   6.409 -0.7491 -0.4232  0.0911
 4535SOL     OW17392   4.812   2.233   2.704 -0.3167  0.3801  0.0664
 4535SOL    HW117393   4.821   2.150   2.750 -0.3802  0.2202 -0.2091
 4535SOL    HW217394   4.867   2.225   2.627  0.4558  0.9659  0.5355
 4536SOL     OW17395   4.708   4.527   0.396  0.1490 -0.2849  0.0083
 4536SOL    HW117396   4.720   4.447   0.346 -1.0019  0.3263 -1.3324
 4536SOL    HW217397   4.796   4.562   0.408  0.4390  0.2239 -2.8228
 4537SOL     OW17398   0.212   5.660   5.870  0.0582  0.6411 -0.3600
 4537SOL    HW117399   0.273   5.688   5.939 -0.1411  0.7263 -0.2161
 4537SOL    HW217400   0.126   5.660   5.913 -0.1834  1.4668 -0.8134
 4538SOL     OW17401   7.022   2.224   0.530 -0.1639 -0.2142  0.3048
 4538SOL    HW117402   6.985   2.311   0.541  0.6940  0.4911 -2.0132
 4538SOL    HW217403   7.006   2.201   0.439  3.4061 -0.6009 -0.3816
 4539SOL     OW17404   4.061   5.686   9.003 -0.2712 -0.5267 -0.0471
 4539SOL    HW117405   4.126   5.633   9.049  1.0473 -0.0656 -1.2895
 4539SOL    HW217406   4.060   5.769   9.050  0.3743 -0.3832 -0.2786
 4540SOL     OW17407   8.486   1.245   5.090 -0.4393  1.0141 -0.2777
 4540SOL    HW117408   8.531   1.318   5.134  1.8154  0.0910 -0.9136
 4540SOL    HW217409   8.523   1.244   5.002 -0.3695 -0.9075 -0.2649
 4541SOL     OW17410   1.599   0.474   6.795  0.3772 -0.0790  0.1739
 4541SOL    HW117411   1.692   0.482   6.774  0.5785 -1.4116  0.5168
 4541SOL    HW217412   1.571   0.564   6.813  1.6979  0.2798  0.5163
 4542SOL     OW17413   1.333   9.129  10.342  0.1746 -0.0752 -0.1505
 4542SOL    HW117414   1.258   9.074  10.363  1.2438 -0.5879  2.8876
 4542SOL    HW217415   1.406   9.089  10.389  1.6272  2.2928 -0.2135
 4543SOL     OW17416   7.037   6.776   0.490 -0.2624 -0.1503 -0.4528
 4543SOL    HW117417   7.073   6.853   0.444 -0.6877 -1.0614 -2.4308
 4543SOL    HW217418   6.961   6.810   0.537  0.8064  1.0290  0.4921
 4544SOL     OW17419   3.611   2.924   8.065  0.0823 -0.7599 -0.1780
 4544SOL    HW117420   3.683   2.861   8.064  0.8805  0.1338 -0.8236
 4544SOL    HW217421   3.633   2.985   8.136  0.1973 -0.2435 -0.6454
 4545SOL     OW17422   3.452   8.994   3.579 -0.0934  0.3632 -0.6397
 4545SOL    HW117423   3.482   9.083   3.560 -0.3526  0.9629  1.5588
 4545SOL    HW217424   3.529   8.950   3.615 -0.2835  0.0478 -0.6145
 4546SOL     OW17425   8.989   1.152   2.398 -0.1263 -0.4279  0.8048
 4546SOL    HW117426   9.083   1.159   2.384 -0.1687  0.1263  0.7972
 4546SOL    HW217427   8.978   1.156   2.493 -0.0229 -2.0295  0.9110
 4547SOL     OW17428   5.208   1.256   5.442  0.3333 -0.2900  0.0603
 4547SOL    HW117429   5.281   1.194   5.445  0.5937  0.0174  0.0309
 4547SOL    HW217430   5.176   1.259   5.533 -0.4166 -1.3377 -0.1431
 4548SOL     OW17431   2.148   9.081   6.064 -0.1511  0.1379 -0.4295
 4548SOL    HW117432   2.131   9.027   5.987 -0.7975 -0.4243  0.0858
 4548SOL    HW217433   2.235   9.056   6.093 -0.8118 -1.3530  0.3574
 4549SOL     OW17434   1.179   3.297   6.166 -0.6167 -0.4846 -0.3061
 4549SOL    HW117435   1.179   3.209   6.205  0.1419  0.3604  1.7025
 4549SOL    HW217436   1.271   3.317   6.151 -0.7316  0.2585 -0.0573
 4550SOL     OW17437   1.968   9.101  10.187  0.3320 -0.8057  0.7590
 4550SOL    HW117438   1.907   9.051  10.134  0.9198 -1.5197  0.7433
 4550SOL    HW217439   2.042   9.042  10.201  0.3664 -0.4910  2.0344
 4551SOL     OW17440   4.121   8.467   4.231  0.3694  0.5208  0.0282
 4551SOL    HW117441   4.127   8.375   4.206  0.8619  0.8148 -1.0329
 4551SOL    HW217442   4.205   8.486   4.273  0.2333  0.4674  0.3260
 4552SOL     OW17443   2.927   1.547   3.408 -0.0899 -0.0638  0.1882
 4552SOL    HW117444   2.992   1.479   3.393 -0.8460 -1.2039  1.8804
 4552SOL    HW217445   2.976   1.629   3.397  0.9338 -0.8394 -1.4304
 4553SOL     OW17446   9.903   4.551   3.081 -0.3022 -0.2426 -0.3643
 4553SOL    HW117447   9.973   4.598   3.125  0.5276 -1.0127 -0.8362
 4553SOL    HW217448   9.904   4.585   2.991 -0.3163 -0.4966 -0.4596
 4554SOL     OW17449   1.732   4.938   9.592  0.0564  0.0146  0.2386
 4554SOL    HW117450   1.667   4.907   9.656 -1.6309 -1.5707 -2.0440
 4554SOL    HW217451   1.812   4.892   9.615 -1.0755 -2.2046  0.0245
 4555SOL     OW17452   8.072   0.657   6.897  0.5588 -0.1225 -0.2169
 4555SOL    HW117453   8.027   0.575   6.915  2.4253 -0.8707  1.4478
 4555SOL    HW217454   8.015   0.703   6.836 -1.5196 -1.7590  0.3833
 4556SOL     OW17455   5.491   9.309   9.038 -0.2138  0.0617 -0.3940
 4556SOL    HW117456   5.424   9.278   9.099 -1.0219 -2.0776 -2.2372
 4556SOL    HW217457   5.491   9.404   9.050 -2.8197  0.0450  0.4634
 4557SOL     OW17458   7.262   0.557   7.136  0.0737 -1.0571  0.3431
 4557SOL    HW117459   7.345   0.514   7.117 -0.0576 -1.1890  0.0686
 4557SOL    HW217460   7.195   0.496   7.106 -0.1118 -0.6674 -0.0498
 4558SOL     OW17461   7.528   9.845   7.494  0.8398 -0.3308  0.1951
 4558SOL    HW117462   7.533   9.754   7.523 -2.7347 -0.3462  1.2979
 4558SOL    HW217463   7.511   9.839   7.400  0.5868 -0.8163  0.2686
 4559SOL     OW17464   3.461   9.371   9.507  0.6119  0.5454 -0.2584
 4559SOL    HW117465   3.496   9.332   9.427  1.7560  1.3202 -0.1540
 4559SOL    HW217466   3.449   9.297   9.567  0.9727  0.1289 -0.6987
 4560SOL     OW17467   6.938   9.066   7.604  0.4593 -0.1010 -0.2244
 4560SOL    HW117468   6.976   9.152   7.623 -1.1481  0.7292 -0.4797
 4560SOL    HW217469   6.909   9.032   7.688  0.7069 -0.1837 -0.1744
 4561SOL     OW17470   7.711   7.320   7.714 -0.2097  0.2801  0.3356
 4561SOL    HW117471   7.794   7.273   7.705  1.3027  2.3931  2.1704
 4561SOL    HW217472   7.682   7.336   7.624  0.6178 -1.6728 -0.3373
 4562SOL     OW17473   9.578   7.077   0.232  0.4014  0.4106  0.2608
 4562SOL    HW117474   9.495   7.106   0.269 -0.0859  0.3319 -0.7302
 4562SOL    HW217475   9.642   7.090   0.302  0.0031  2.7989  0.2723
 4563SOL     OW17476   4.014   2.955   2.836  0.0480  0.6376  0.0892
 4563SOL    HW117477   3.949   2.955   2.906 -0.7010 -1.7169 -0.5163
 4563SOL    HW217478   3.964   2.975   2.757  0.3591  0.4043 -0.1693
 4564SOL     OW17479   2.667   2.460   6.681 -0.1155  0.2084 -0.3575
 4564SOL    HW117480   2.596   2.454   6.618  0.5260 -1.4954 -0.9830
 4564SOL    HW217481   2.737   2.405   6.645  0.6229 -0.0776  1.3777
 4565SOL     OW17482   3.096   3.701   9.323 -0.0921  0.1388  0.0352
 4565SOL    HW117483   3.150   3.729   9.397 -1.4142 -1.1651  1.5643
 4565SOL    HW217484   3.018   3.663   9.363 -0.5637 -1.2248 -2.0247
 4566SOL     OW17485   5.092   6.379   9.411 -0.7079  0.1396 -0.2490
 4566SOL    HW117486   5.016   6.373   9.468 -0.7618 -1.0650 -0.4201
 4566SOL    HW217487   5.165   6.399   9.470 -0.7683 -1.0531  0.2760
 4567SOL     OW17488   1.430   4.723  10.351 -0.0972  0.1442 -0.1898
 4567SOL    HW117489   1.418   4.809  10.311 -1.0036 -0.2374 -0.7718
 4567SOL    HW217490   1.349   4.707  10.399  0.1872 -0.2544  0.1648
 4568SOL     OW17491   8.538   7.971   1.137  0.6564  0.2125  0.1113
 4568SOL    HW117492   8.621   7.990   1.180 -0.1758  1.0170  1.4108
 4568SOL    HW217493   8.499   8.057   1.121  0.6137 -0.0902 -1.6468
 4569SOL     OW17494   5.911   2.898   5.271 -0.3766  0.0628  0.4649
 4569SOL    HW117495   5.823   2.901   5.233 -1.3090 -1.6443  2.3124
 4569SOL    HW217496   5.896   2.900   5.366  1.6137 -0.0272  0.8214
 4570SOL     OW17497   6.989   5.127   0.415  0.1860  0.5014  0.0540
 4570SOL    HW117498   7.025   5.092   0.333  0.9677 -0.2943  0.7204
 4570SOL    HW217499   7.066   5.145   0.469 -0.2721  1.9729  0.2617
 4571SOL     OW17500   3.447   2.393   7.632 -0.1899  0.5490  0.8729
 4571SOL    HW117501   3.497   2.385   7.551 -0.6747  2.0596  0.3879
 4571SOL    HW217502   3.403   2.309   7.641 -1.3403  0.8234 -1.3033
 4572SOL     OW17503   1.766   5.539  10.015  0.1937  0.6983  0.0688
 4572SOL    HW117504   1.790   5.550  10.107 -0.8717 -0.7460  0.5486
 4572SOL    HW217505   1.828   5.474   9.982  0.1550  0.7315 -0.0708
 4573SOL     OW17506   2.918   5.434   5.477  0.5050 -0.2265  0.0732
 4573SOL    HW117507   3.000   5.430   5.527  0.2795  1.2606  0.6305
 4573SOL    HW217508   2.940   5.398   5.391  1.1121 -2.0972  0.9696
 4574SOL     OW17509   2.475   3.832  10.341 -0.5548  0.2690 -0.4531
 4574SOL    HW117510   2.505   3.854  10.253  1.0742  1.5611  0.3582
 4574SOL    HW217511   2.484   3.913  10.391 -0.3500 -0.6964  1.1668
 4575SOL     OW17512   1.001   9.705   3.230 -0.4640 -0.4251 -0.1651
 4575SOL    HW117513   0.956   9.663   3.303 -0.4585  0.6632  0.4811
 4575SOL    HW217514   1.093   9.682   3.243 -0.2952  0.7237  0.8700
 4576SOL     OW17515   6.757   3.204   5.205  0.0019  0.1963 -0.3398
 4576SOL    HW117516   6.769   3.278   5.266  3.6954  0.4920 -1.1765
 4576SOL    HW217517   6.824   3.140   5.232 -0.0484 -0.8214 -2.4355
 4577SOL     OW17518   3.834   8.279   8.630 -0.9269  0.0725 -0.1177
 4577SOL    HW117519   3.890   8.337   8.681 -0.5096  0.3980 -0.9291
 4577SOL    HW217520   3.831   8.198   8.681 -0.8680  0.5312  0.6312
 4578SOL     OW17521   5.114   9.227   1.513 -0.1101 -0.0189  0.1016
 4578SOL    HW117522   5.035   9.275   1.487  1.0474  0.5104 -2.7322
 4578SOL    HW217523   5.114   9.149   1.458  0.4050 -1.0133  1.4469
 4579SOL     OW17524   0.746  10.210   1.513 -0.5972  0.6227 -0.2288
 4579SOL    HW117525   0.839  10.203   1.494 -0.5509 -1.4705  0.5662
 4579SOL    HW217526   0.728  10.304   1.509  1.1669  0.9449 -2.0168
 4580SOL     OW17527   3.719   6.742   8.036  0.2460  0.2139 -0.3418
 4580SOL    HW117528   3.662   6.794   8.093  0.4705  0.9405 -0.7726
 4580SOL    HW217529   3.804   6.744   8.080 -0.1937 -1.5034  0.7038
 4581SOL     OW17530   4.668   3.468   1.554  0.5604  0.0045 -0.1754
 4581SOL    HW117531   4.758   3.500   1.551  1.6160 -2.4879  1.8391
 4581SOL    HW217532   4.666   3.396   1.491  0.7266 -1.4828  1.4411
 4582SOL     OW17533   4.430   4.769   5.086 -0.0225  0.2127  0.0069
 4582SOL    HW117534   4.434   4.676   5.109 -1.0043  0.0193 -0.5667
 4582SOL    HW217535   4.346   4.780   5.042 -0.4460  1.6016  1.0645
 4583SOL     OW17536   1.970   0.006   5.431  0.4299 -0.2690 -0.1310
 4583SOL    HW117537   2.041   0.060   5.465 -0.0766 -0.6235  1.5731
 4583SOL    HW217538   1.977  -0.077   5.478  0.8672 -1.5750 -2.3102
 4584SOL     OW17539   2.642   0.015   8.117  0.2944  0.3786 -0.5156
 4584SOL    HW117540   2.599   0.079   8.174 -0.4929  0.2527 -0.9520
 4584SOL    HW217541   2.594  -0.066   8.131  0.5606  0.1666 -0.8157
 4585SOL     OW17542   4.299   3.541   5.294  0.3652 -0.0819 -1.0332
 4585SOL    HW117543   4.226   3.597   5.320  0.7873  0.8883 -1.8664
 4585SOL    HW217544   4.346   3.591   5.227  2.5698 -0.0994  0.3819
 4586SOL     OW17545   9.696   3.822   8.645  0.1118 -0.2329  0.6097
 4586SOL    HW117546   9.650   3.886   8.699 -1.0965 -0.5664  0.0208
 4586SOL    HW217547   9.720   3.870   8.565 -1.2934 -0.6176 -0.0754
 4587SOL     OW17548   5.358   1.115   9.951  0.0532 -0.5713 -0.4486
 4587SOL    HW117549   5.273   1.083   9.921 -0.9329  0.9412  0.6176
 4587SOL    HW217550   5.390   1.171   9.881 -1.7243  2.0524  0.6990
 4588SOL     OW17551   0.592   5.243   0.430  0.4338  0.2773 -0.4335
 4588SOL    HW117552   0.666   5.254   0.489 -0.2824 -1.5471  0.8739
 4588SOL    HW217553   0.537   5.176   0.471 -2.1995  1.8524 -1.0931
 4589SOL     OW17554   9.265   0.512   4.885  0.1345 -0.0484 -0.2440
 4589SOL    HW117555   9.307   0.428   4.868  0.4286 -0.2030  1.1784
 4589SOL    HW217556   9.269   0.558   4.801  1.7240 -0.6859 -0.5438
 4590SOL     OW17557   6.474   0.994   7.428  0.0108 -0.3022 -0.0024
 4590SOL    HW117558   6.484   0.947   7.511 -2.1686  1.8333  1.5654
 4590SOL    HW217559   6.478   0.925   7.361 -0.8378 -2.4341  2.0318
 4591SOL     OW17560   7.628   4.252   9.816 -0.4189 -0.3475 -0.2584
 4591SOL    HW117561   7.622   4.159   9.791  1.5203 -0.0178 -2.4089
 4591SOL    HW217562   7.578   4.298   9.749 -1.1227  0.2148  0.6297
 4592SOL     OW17563   3.644   1.825   7.910 -0.1792 -0.3069  0.3474
 4592SOL    HW117564   3.648   1.760   7.839 -0.7770  1.2698 -1.1897
 4592SOL    HW217565   3.553   1.825   7.938 -0.0527 -0.5521  0.7626
 4593SOL     OW17566   1.964   3.347   8.759 -0.1958  0.1706 -0.3998
 4593SOL    HW117567   2.044   3.314   8.799  0.5800 -0.2111 -2.1422
 4593SOL    HW217568   1.993   3.417   8.700 -0.8133 -1.2553 -2.5440
 4594SOL     OW17569   7.217   5.318   9.474  0.1462  0.4442  0.8592
 4594SOL    HW117570   7.215   5.320   9.570  2.6914  0.1775  0.9871
 4594SOL    HW217571   7.196   5.407   9.447 -0.4850  0.5461  1.6531
 4595SOL     OW17572   1.643   3.092   5.266  0.0508 -0.3277  0.3520
 4595SOL    HW117573   1.649   3.091   5.361 -0.8083 -1.2553  0.4086
 4595SOL    HW217574   1.733   3.110   5.236  0.5234 -1.0492  1.3073
 4596SOL     OW17575   1.744   4.075   2.273 -0.7220  0.1531 -0.2349
 4596SOL    HW117576   1.772   3.998   2.223 -0.2303 -0.5070  1.0059
 4596SOL    HW217577   1.795   4.147   2.237  1.6809 -0.7914  1.0725
 4597SOL     OW17578   6.439   2.045   9.204 -0.3471  0.5527 -0.4660
 4597SOL    HW117579   6.395   2.004   9.278 -1.7123  1.0175 -0.9834
 4597SOL    HW217580   6.484   2.121   9.242  1.6909 -0.9911  0.3916
 4598SOL     OW17581   6.821   2.331   8.427 -0.1964 -0.0068  0.1189
 4598SOL    HW117582   6.771   2.252   8.449 -2.8235  0.8615 -2.2308
 4598SOL    HW217583   6.758   2.403   8.439  1.8612  1.7178  1.3359
 4599SOL     OW17584   6.893   8.465  10.080  0.0777 -0.0375 -0.1782
 4599SOL    HW117585   6.938   8.487   9.999 -0.6306 -2.0129 -1.1939
 4599SOL    HW217586   6.811   8.425  10.051 -0.9316  0.6671  1.5645
 4600SOL     OW17587   2.095   8.475   1.259  0.5338  0.1537 -0.4985
 4600SOL    HW117588   2.132   8.554   1.298 -1.6050  1.1285 -0.3013
 4600SOL    HW217589   2.064   8.423   1.334 -0.9670  0.6809 -0.7137
 4601SOL     OW17590   8.067   3.563   4.859 -0.0535  0.0435  0.2344
 4601SOL    HW117591   8.042   3.637   4.914  0.9499  1.3886 -1.0528
 4601SOL    HW217592   8.076   3.490   4.920  1.9440  1.6843  2.0496
 4602SOL     OW17593   3.184   8.305   9.919 -0.0300  0.1406  0.4416
 4602SOL    HW117594   3.256   8.259   9.962  1.1451  1.1505 -0.3626
 4602SOL    HW217595   3.104   8.266   9.955  0.9188 -1.3453  0.9947
 4603SOL     OW17596   0.569   9.187  10.030  0.0017  0.4250 -0.0696
 4603SOL    HW117597   0.590   9.186  10.123  0.7176  1.7294 -0.2026
 4603SOL    HW217598   0.614   9.109   9.995  2.2830  1.5351  0.1763
 4604SOL     OW17599   1.179   7.134  10.028 -0.6395  0.2212 -0.5067
 4604SOL    HW117600   1.193   7.189  10.105 -2.0961 -0.1531  0.0603
 4604SOL    HW217601   1.089   7.104  10.035 -0.0532 -1.8856 -1.0302
 4605SOL     OW17602   8.300   6.123   1.497 -0.0016 -0.3896 -0.5252
 4605SOL    HW117603   8.378   6.093   1.545 -1.8522 -1.8963  1.8350
 4605SOL    HW217604   8.236   6.052   1.509 -1.6524  0.6089 -2.6739
 4606SOL     OW17605   5.295   1.460   6.103  0.9270 -0.5784 -0.1007
 4606SOL    HW117606   5.347   1.382   6.084 -0.7272 -2.1544  1.4155
 4606SOL    HW217607   5.210   1.443   6.063  0.9156  1.0635 -0.8530
 4607SOL     OW17608   8.508   8.352   4.716 -0.3585 -0.0188  0.0837
 4607SOL    HW117609   8.497   8.382   4.807 -0.4892  1.2009 -0.3184
 4607SOL    HW217610   8.465   8.420   4.663 -1.9979 -1.6453 -0.8053
 4608SOL     OW17611   0.588   6.329   3.196 -0.0348  0.2559  0.2173
 4608SOL    HW117612   0.612   6.314   3.104  1.4846 -1.8229  0.8555
 4608SOL    HW217613   0.638   6.406   3.222  0.6651  0.0019 -0.3418
 4609SOL     OW17614   2.359  10.306   9.087 -0.3070 -0.0332 -0.3339
 4609SOL    HW117615   2.296  10.234   9.095 -1.9383  1.4768  1.4112
 4609SOL    HW217616   2.328  10.357   9.012  0.0729 -0.4072 -0.7508
 4610SOL     OW17617   4.560   4.254   4.470 -0.2357  0.3406 -0.7299
 4610SOL    HW117618   4.487   4.298   4.427 -0.5814 -0.0443 -0.5365
 4610SOL    HW217619   4.544   4.264   4.563 -0.2915 -0.1568 -0.6855
 4611SOL     OW17620   4.097   0.358   9.948  0.2941  0.1221  0.3059
 4611SOL    HW117621   4.014   0.402   9.966  0.2695  0.8702 -1.4036
 4611SOL    HW217622   4.163   0.428   9.953  0.5259 -0.0373 -0.3891
 4612SOL     OW17623   1.092   4.816   1.487 -0.0142  0.4369  0.2050
 4612SOL    HW117624   1.019   4.847   1.433  0.9356  2.2696 -0.1084
 4612SOL    HW217625   1.059   4.738   1.530 -2.0693  1.0566 -0.1478
 4613SOL     OW17626   1.415   0.566   2.117  0.0086  0.1836  0.1761
 4613SOL    HW117627   1.360   0.640   2.142 -0.7149 -0.6323  1.0590
 4613SOL    HW217628   1.374   0.532   2.037 -0.2594  0.1117  0.3427
 4614SOL     OW17629   7.665   8.625  10.048 -0.4096  0.4258  0.1702
 4614SOL    HW117630   7.607   8.691  10.086 -1.5079 -1.2945  1.6696
 4614SOL    HW217631   7.719   8.596  10.122  1.1641  0.7372 -0.8183
 4615SOL     OW17632   6.710   4.516   6.515 -0.1032  0.2156 -0.4712
 4615SOL    HW117633   6.706   4.612   6.516 -1.5145  0.2041 -1.5022
 4615SOL    HW217634   6.679   4.492   6.428 -0.3378 -1.2037 -0.0187
 4616SOL     OW17635   0.011   6.330   9.244 -0.2343 -0.2034 -0.2979
 4616SOL    HW117636  -0.053   6.387   9.287  1.8008  2.2268 -0.2927
 4616SOL    HW217637   0.042   6.380   9.169  2.7052 -0.6144  0.5218
 4617SOL     OW17638  10.048   6.669   9.156  0.5716  0.0096 -0.4682
 4617SOL    HW117639   9.965   6.621   9.155 -0.7320  2.0644  0.3122
 4617SOL    HW217640  10.022   6.760   9.174  3.0096  0.7389 -0.2864
 4618SOL     OW17641   5.019   2.439   1.957 -0.2901  0.0476  0.0489
 4618SOL    HW117642   5.021   2.438   2.053 -1.2562  0.9261  0.0938
 4618SOL    HW217643   5.106   2.472   1.932  1.7044 -4.1741  0.4306
 4619SOL     OW17644  10.012   3.439   9.177 -0.4448  0.4865 -0.3162
 4619SOL    HW117645   9.976   3.525   9.152  0.8135  1.5850  1.4026
 4619SOL    HW217646   9.965   3.417   9.258 -1.8218 -1.2231 -1.4984
 4620SOL     OW17647  10.255   1.607   0.634  0.3523  0.1472 -0.0348
 4620SOL    HW117648  10.165   1.583   0.610 -0.3812  0.9048  1.7644
 4620SOL    HW217649  10.280   1.540   0.699 -0.1243  1.6605  1.8004
 4621SOL     OW17650   2.107  10.286  10.360 -0.1912  0.4406 -0.0495
 4621SOL    HW117651   2.168  10.330  10.418 -0.4609  0.7037  0.0382
 4621SOL    HW217652   2.158  10.263  10.282  0.2959 -0.3523  0.4935
 4622SOL     OW17653   1.174   8.320   5.109  0.2025  0.2591 -0.4230
 4622SOL    HW117654   1.151   8.333   5.017  1.8952  1.6145 -0.6951
 4622SOL    HW217655   1.270   8.318   5.110  0.2110 -1.2441  1.1436
 4623SOL     OW17656   0.872   6.230   5.603  0.5520  0.1662 -0.1939
 4623SOL    HW117657   0.784   6.228   5.565  0.4663  0.0837  0.0118
 4623SOL    HW217658   0.918   6.295   5.549  0.6150 -0.3974 -0.8322
 4624SOL     OW17659   6.726   8.648   9.838 -0.2758  0.5455  0.1538
 4624SOL    HW117660   6.742   8.555   9.854 -0.0246  0.9971  3.0832
 4624SOL    HW217661   6.654   8.670   9.898  0.3819  2.4532  0.2993
 4625SOL     OW17662   1.255   1.186   1.403 -0.0330  0.2845 -0.1111
 4625SOL    HW117663   1.174   1.172   1.452  0.9046  1.9970  2.1033
 4625SOL    HW217664   1.309   1.109   1.422  0.4627  1.0946  1.9848
 4626SOL     OW17665   5.722   8.684   2.881 -0.4273 -0.0128  0.2386
 4626SOL    HW117666   5.776   8.736   2.822 -0.6627  1.6502  1.3991
 4626SOL    HW217667   5.665   8.634   2.823  0.5185  0.2230 -0.9544
 4627SOL     OW17668   8.491   2.945   3.668  0.0873 -0.0571 -0.2383
 4627SOL    HW117669   8.581   2.975   3.660  0.4966 -1.3710 -0.7870
 4627SOL    HW217670   8.494   2.853   3.645 -1.3107 -0.2669  0.3008
 4628SOL     OW17671   7.947   2.322  10.269  0.2218 -0.3450 -0.5169
 4628SOL    HW117672   7.859   2.326  10.231  0.3824 -0.3179 -0.8932
 4628SOL    HW217673   7.941   2.376  10.348 -0.2882 -0.9362 -0.1426
 4629SOL     OW17674   0.880   2.195   7.464  0.3125  0.6484  0.1417
 4629SOL    HW117675   0.832   2.127   7.417  0.1306  2.3472 -2.3100
 4629SOL    HW217676   0.902   2.154   7.548 -2.2580 -1.4222 -0.0399
 4630SOL     OW17677   5.454   5.391   9.880  0.2036  0.4662  0.3769
 4630SOL    HW117678   5.541   5.379   9.917  1.0465  0.6710 -1.4355
 4630SOL    HW217679   5.440   5.313   9.826 -1.0833  0.0611  1.2342
 4631SOL     OW17680   4.194   2.940   1.299  0.6991 -0.9172 -0.2631
 4631SOL    HW117681   4.153   2.857   1.322  0.8956 -0.4744  1.9174
 4631SOL    HW217682   4.276   2.915   1.255  0.0869 -1.8443 -0.8987
 4632SOL     OW17683   0.439   8.605   9.483  0.1185 -0.4036 -0.3391
 4632SOL    HW117684   0.374   8.581   9.550  0.9311  1.2591  1.1350
 4632SOL    HW217685   0.508   8.540   9.493  0.6881  0.3901  1.1732
 4633SOL     OW17686   8.506   0.929   2.546 -0.1870  0.3360 -0.6861
 4633SOL    HW117687   8.420   0.899   2.518  0.4413 -0.4324 -1.9003
 4633SOL    HW217688   8.567   0.867   2.506  0.8242 -1.0541  2.6715
 4634SOL     OW17689   5.404   2.851   8.901  0.5451  0.2091  0.1402
 4634SOL    HW117690   5.351   2.925   8.873 -0.3221  0.0641  1.2887
 4634SOL    HW217691   5.470   2.890   8.960  2.5000  0.5474 -2.1292
 4635SOL     OW17692   9.308   0.800   1.846  0.1871 -0.4035 -0.0083
 4635SOL    HW117693   9.376   0.749   1.890  0.3632  0.9101  1.2880
 4635SOL    HW217694   9.339   0.891   1.850  0.3241 -0.1940 -3.0461
 4636SOL     OW17695   9.769   5.616   9.236  0.1959 -0.2138  0.0895
 4636SOL    HW117696   9.769   5.649   9.326 -0.7899  2.4601 -0.7830
 4636SOL    HW217697   9.703   5.546   9.236  0.0205 -0.0714  1.3902
 4637SOL     OW17698   5.009   0.675   2.802  0.1883  0.9111 -0.2085
 4637SOL    HW117699   4.977   0.752   2.755 -2.4463 -0.3001 -0.6304
 4637SOL    HW217700   4.978   0.688   2.892  2.2494  1.6151  0.4636
 4638SOL     OW17701   9.228   5.046   8.961 -0.3133  0.1628  0.4336
 4638SOL    HW117702   9.167   4.986   8.918 -1.5029  2.9488 -2.1446
 4638SOL    HW217703   9.301   5.054   8.899  1.5136 -1.0619  2.2829
 4639SOL     OW17704   0.333   2.405   6.156 -0.3200 -0.1784  0.1662
 4639SOL    HW117705   0.405   2.348   6.183  0.6570  0.4650 -0.9717
 4639SOL    HW217706   0.312   2.456   6.234  1.7379  0.9366  0.0590
 4640SOL     OW17707   4.962   2.252   0.486 -0.0186  0.0811 -0.0928
 4640SOL    HW117708   4.960   2.325   0.547 -1.7672 -0.0968  0.1087
 4640SOL    HW217709   5.037   2.270   0.429  0.4497  1.2557  0.8595
 4641SOL     OW17710   6.550   0.779   7.649  0.1838  0.0083 -0.1042
 4641SOL    HW117711   6.604   0.766   7.571  0.0481  2.0158 -0.5816
 4641SOL    HW217712   6.584   0.715   7.712  2.9374  0.9573 -0.4880
 4642SOL     OW17713   0.333   4.504   0.143  0.2672  0.5683  0.7643
 4642SOL    HW117714   0.398   4.540   0.082 -0.8275 -0.5040 -1.1092
 4642SOL    HW217715   0.252   4.498   0.092 -0.4417 -1.3505  1.9941
 4643SOL     OW17716   6.656   0.312   3.091 -0.2398 -0.2232  0.2242
 4643SOL    HW117717   6.615   0.285   3.008  1.5132  0.4598 -0.9264
 4643SOL    HW217718   6.587   0.301   3.156 -1.6305 -0.9723 -1.2871
 4644SOL     OW17719   9.811   0.287   4.265  0.4002 -0.6815 -0.2001
 4644SOL    HW117720   9.875   0.352   4.234 -0.9527  0.5802 -0.4462
 4644SOL    HW217721   9.856   0.243   4.337  1.7969 -0.3003 -0.7966
 4645SOL     OW17722   6.253   3.072   2.718  0.5551  0.1304 -0.0227
 4645SOL    HW117723   6.169   3.100   2.681  0.2344 -0.0009  0.5860
 4645SOL    HW217724   6.275   2.992   2.670 -0.0914 -0.3002  0.3744
 4646SOL     OW17725   0.310   7.566   8.028  0.3070  0.0729 -0.2090
 4646SOL    HW117726   0.339   7.556   7.937 -1.8344  0.8997 -1.0682
 4646SOL    HW217727   0.313   7.478   8.065 -0.6036 -0.6352 -1.7259
 4647SOL     OW17728   1.590   3.125   3.236  0.3204  0.3550 -0.1803
 4647SOL    HW117729   1.539   3.205   3.250  0.2686  0.3153 -0.1411
 4647SOL    HW217730   1.645   3.118   3.313 -2.4818 -1.7805  1.8487
 4648SOL     OW17731   7.838   0.562   2.374  0.0493  0.0612  0.4148
 4648SOL    HW117732   7.843   0.571   2.469  0.0518 -0.0726  0.4279
 4648SOL    HW217733   7.767   0.620   2.348  1.5823  1.9704  0.2476
 4649SOL     OW17734   4.235   6.710   3.103 -0.0936 -0.0229 -0.3453
 4649SOL    HW117735   4.190   6.626   3.093 -1.3417  0.3314  1.6864
 4649SOL    HW217736   4.171   6.775   3.073  0.0878  0.3180 -0.0048
 4650SOL     OW17737   9.607   5.656   0.610 -0.3758 -0.3811  0.3132
 4650SOL    HW117738   9.546   5.726   0.588  0.3037 -0.3856 -1.7394
 4650SOL    HW217739   9.565   5.576   0.578 -0.5677 -0.7716  1.4930
 4651SOL     OW17740   7.960   7.585   2.777 -0.2305 -0.0363  0.3023
 4651SOL    HW117741   7.989   7.658   2.721 -0.0714  0.2911  0.8099
 4651SOL    HW217742   7.878   7.616   2.815 -0.5619 -0.4299 -0.0784
 4652SOL     OW17743   4.222   8.843   3.927  0.5464  0.0266 -0.5029
 4652SOL    HW117744   4.188   8.888   3.850  0.3648 -0.6072 -0.7968
 4652SOL    HW217745   4.299   8.796   3.895  0.5622 -0.1121 -0.2631
 4653SOL     OW17746   3.317   6.560   2.106 -0.7053 -0.0468  0.1151
 4653SOL    HW117747   3.302   6.637   2.052 -2.6763 -0.0503  0.5684
 4653SOL    HW217748   3.288   6.585   2.193 -0.0999 -0.8837  0.5795
 4654SOL     OW17749   2.567   4.522   3.443  0.6020 -0.1705  0.4972
 4654SOL    HW117750   2.538   4.612   3.453 -0.1270 -0.3723  0.2013
 4654SOL    HW217751   2.642   4.527   3.384  1.1440  0.3403  1.2085
 4655SOL     OW17752   6.592   7.212   6.127  0.4966 -0.4737 -0.5945
 4655SOL    HW117753   6.666   7.253   6.083  0.4955 -0.1170 -0.2614
 4655SOL    HW217754   6.545   7.166   6.057  0.9244 -0.5437 -0.8368
 4656SOL     OW17755   0.866   4.282   0.051 -0.5023 -0.2760 -0.1763
 4656SOL    HW117756   0.786   4.323   0.084 -1.0933 -1.4619 -0.0821
 4656SOL    HW217757   0.838   4.198   0.017  0.6823 -0.6257 -0.3497
 4657SOL     OW17758   7.059   9.641   6.006  0.1259 -0.2360 -0.3258
 4657SOL    HW117759   7.105   9.567   6.046  0.3538  1.2398  2.4285
 4657SOL    HW217760   6.978   9.649   6.057  0.4492  1.8008 -0.0605
 4658SOL     OW17761   9.206   7.898   3.513  0.2962 -0.1653 -0.3003
 4658SOL    HW117762   9.176   7.983   3.544  1.3751 -0.2157  0.9260
 4658SOL    HW217763   9.135   7.838   3.537 -1.0564  0.5267 -2.3005
 4659SOL     OW17764   2.637   7.943   2.222  0.0246 -0.0653  0.1234
 4659SOL    HW117765   2.599   7.860   2.194 -0.7160  0.0086  0.8648
 4659SOL    HW217766   2.709   7.919   2.280 -0.7724 -0.1992  1.0805
 4660SOL     OW17767   2.017   6.888   3.058  0.2700 -0.2051 -0.1019
 4660SOL    HW117768   2.013   6.808   3.005 -2.4370  0.3687 -0.9167
 4660SOL    HW217769   2.030   6.856   3.148  0.2152 -1.5127 -0.5359
 4661SOL     OW17770   3.350   4.686   7.708 -0.2823 -0.2900 -0.0336
 4661SOL    HW117771   3.436   4.660   7.741 -0.7555  0.2850  1.8034
 4661SOL    HW217772   3.336   4.773   7.744 -2.1864 -0.9070  0.8592
 4662SOL     OW17773   7.551   6.943   0.454 -0.6946  0.2542 -0.4573
 4662SOL    HW117774   7.597   6.892   0.387  0.5905 -2.3598  2.1688
 4662SOL    HW217775   7.462   6.907   0.455  0.0546 -1.7068  1.0058
 4663SOL     OW17776   6.851   7.626   9.384 -0.3337 -0.3982  0.1860
 4663SOL    HW117777   6.801   7.652   9.462 -1.4083 -0.0661 -0.5929
 4663SOL    HW217778   6.872   7.708   9.341  0.2094 -0.5858  0.0944
 4664SOL     OW17779   1.337   5.029   9.264  0.3117  0.2192  0.1819
 4664SOL    HW117780   1.386   5.056   9.342 -1.6764 -0.7869  1.8656
 4664SOL    HW217781   1.250   5.068   9.274 -0.5143 -1.3076 -0.6636
 4665SOL     OW17782   1.541  10.292   9.598 -0.6069  0.3498 -0.0439
 4665SOL    HW117783   1.598  10.357   9.639 -0.5051  1.1033 -1.3122
 4665SOL    HW217784   1.549  10.215   9.653  0.7947  0.7905  0.4243
 4666SOL     OW17785   6.054   3.744   8.759  0.2058 -0.5390  0.2121
 4666SOL    HW117786   5.981   3.801   8.783 -1.1544 -1.9675 -0.4035
 4666SOL    HW217787   6.132   3.799   8.770 -1.0786  1.6362 -0.9345
 4667SOL     OW17788   4.604   8.582   4.085 -0.3493  0.3956 -0.2005
 4667SOL    HW117789   4.597   8.637   4.163  0.5759  0.0953  0.1169
 4667SOL    HW217790   4.695   8.552   4.086 -0.1926  0.7607 -1.6503
 4668SOL     OW17791   9.357   8.837   7.614  0.2085  0.2924  0.4531
 4668SOL    HW117792   9.351   8.902   7.544  0.7351  2.2908  2.1734
 4668SOL    HW217793   9.421   8.873   7.675 -0.2993 -1.3244  2.0174
 4669SOL     OW17794   5.763   2.624   9.444  0.0618 -0.1489 -0.3234
 4669SOL    HW117795   5.707   2.571   9.387  0.5846 -0.6171 -0.4188
 4669SOL    HW217796   5.779   2.704   9.394 -0.0073 -0.2846 -0.5651
 4670SOL     OW17797   2.948   3.579   6.968 -0.1937 -0.0572 -0.0270
 4670SOL    HW117798   3.009   3.636   7.015 -2.0825  1.2638  0.9751
 4670SOL    HW217799   2.924   3.629   6.890  0.2456 -0.7174 -0.5949
 4671SOL     OW17800   2.651   0.807   1.015  0.4925  0.6877 -0.2269
 4671SOL    HW117801   2.739   0.788   1.048 -0.1515 -0.1262  1.1303
 4671SOL    HW217802   2.598   0.817   1.094 -0.8339  0.1228 -1.0173
 4672SOL     OW17803   3.358   1.426   9.675 -0.0727 -0.0501  0.2744
 4672SOL    HW117804   3.340   1.505   9.726 -0.7155  0.4329 -0.6439
 4672SOL    HW217805   3.382   1.459   9.588  4.4879 -0.6839  1.0508
 4673SOL     OW17806   9.195   7.269   6.829  0.1992 -1.0156  0.3203
 4673SOL    HW117807   9.269   7.273   6.768 -0.0243  0.5903  0.0962
 4673SOL    HW217808   9.208   7.187   6.877  2.5154 -0.4786  0.7561
 4674SOL     OW17809   4.645   3.859   4.812 -1.1242 -0.2225  0.3088
 4674SOL    HW117810   4.635   3.907   4.729  1.3623  0.5870  0.4108
 4674SOL    HW217811   4.669   3.770   4.785  1.5231  0.4856  0.0713
 4675SOL     OW17812   2.458   8.178   2.272 -0.0553  0.0554 -0.1619
 4675SOL    HW117813   2.443   8.225   2.189  2.1121 -0.8578 -1.1423
 4675SOL    HW217814   2.500   8.097   2.246  1.6504  0.1901  1.9104
 4676SOL     OW17815   7.683   5.200   1.729  0.0311 -0.6516 -0.2030
 4676SOL    HW117816   7.599   5.182   1.685  0.3693 -1.2821 -0.6136
 4676SOL    HW217817   7.722   5.270   1.677 -1.5209  1.7982  1.6971
 4677SOL     OW17818   2.184   9.213   5.054 -0.6437  0.3702  0.7823
 4677SOL    HW117819   2.250   9.150   5.080 -0.5410  0.9668  2.0496
 4677SOL    HW217820   2.214   9.247   4.969  0.1847 -0.0249  0.9122
 4678SOL     OW17821   9.792   8.831   6.591  0.3386 -0.1347  0.7473
 4678SOL    HW117822   9.804   8.768   6.520 -2.8520 -1.8978  1.5717
 4678SOL    HW217823   9.797   8.779   6.671  0.9257  1.2978  1.6944
 4679SOL     OW17824   8.900   6.850   3.954 -0.5051 -0.5702  0.2585
 4679SOL    HW117825   8.947   6.868   4.035 -1.3056 -0.7752  0.7814
 4679SOL    HW217826   8.808   6.871   3.973 -0.5185  0.7009 -1.0203
 4680SOL     OW17827   3.325   8.834   7.685 -0.0314  0.4326 -0.5175
 4680SOL    HW117828   3.318   8.789   7.769  1.7731 -0.1440 -0.6209
 4680SOL    HW217829   3.419   8.835   7.667 -0.0879  3.1777 -1.1278
 4681SOL     OW17830   9.729   9.049   3.530 -0.0775 -0.1184  0.3980
 4681SOL    HW117831   9.680   9.097   3.463 -0.2294  1.8074  1.8239
 4681SOL    HW217832   9.663   9.002   3.580 -0.0450 -0.8111 -0.1857
 4682SOL     OW17833   2.134   6.494   2.545 -0.3609 -0.1123  0.0250
 4682SOL    HW117834   2.215   6.446   2.528 -0.7002 -0.8132  0.3415
 4682SOL    HW217835   2.065   6.427   2.540 -1.0534  0.6464 -1.3035
 4683SOL     OW17836   9.976   0.007   8.469 -0.2205 -0.0249 -0.3566
 4683SOL    HW117837   9.995  -0.082   8.439 -1.3273 -0.7448  0.9652
 4683SOL    HW217838  10.058   0.055   8.455  0.0927 -0.9607 -2.0385
 4684SOL     OW17839   5.045   6.000   2.717  0.0639 -0.0069  0.2314
 4684SOL    HW117840   4.954   6.001   2.747  0.4293 -1.6919  1.5912
 4684SOL    HW217841   5.061   5.909   2.691  1.3048  0.2861 -0.1127
 4685SOL     OW17842   6.016   5.956   0.927 -0.1162  0.2709 -0.0098
 4685SOL    HW117843   5.946   5.894   0.948 -1.5381  1.5001 -0.9465
 4685SOL    HW217844   5.982   6.007   0.853  1.6856  1.0650 -0.3468
 4686SOL     OW17845   5.403   0.498   9.464 -0.6886  0.2223 -0.5288
 4686SOL    HW117846   5.356   0.581   9.455 -1.3179 -0.1649 -0.9162
 4686SOL    HW217847   5.374   0.463   9.548  0.3117  0.8361  0.0902
 4687SOL     OW17848   9.754   6.869   4.643 -0.2323  0.5451 -0.3553
 4687SOL    HW117849   9.746   6.956   4.606  0.6725  1.1751  0.8456
 4687SOL    HW217850   9.839   6.837   4.613  1.4265  1.8305  2.5065
 4688SOL     OW17851   5.970   2.120   0.453  0.2058 -0.0775  0.3547
 4688SOL    HW117852   5.892   2.159   0.412 -0.7538 -0.5694  1.6438
 4688SOL    HW217853   5.980   2.168   0.535  0.8106 -0.5358  0.5497
 4689SOL     OW17854   9.010   5.123   9.201  0.3899 -0.4124 -0.0191
 4689SOL    HW117855   8.924   5.121   9.160  0.7448 -2.8718 -0.8319
 4689SOL    HW217856   9.013   5.044   9.255  2.0933 -0.3452  0.0542
 4690SOL     OW17857   6.484   5.047   4.803  0.5941  0.4285  0.0844
 4690SOL    HW117858   6.434   5.087   4.874 -0.4802  0.8502 -0.8728
 4690SOL    HW217859   6.471   5.106   4.729  1.8021  0.0666 -0.4324
 4691SOL     OW17860   0.479   0.138   8.458 -0.3885  0.0498  0.7263
 4691SOL    HW117861   0.523   0.218   8.429  0.2221 -1.2852 -2.4667
 4691SOL    HW217862   0.387   0.153   8.438 -0.3450  0.1150  0.5746
 4692SOL     OW17863   5.277   2.390   0.507 -0.2313 -0.6705  0.5224
 4692SOL    HW117864   5.319   2.449   0.445 -0.7159 -0.8255  0.0375
 4692SOL    HW217865   5.338   2.317   0.516  0.2841 -0.1943  0.9797
 4693SOL     OW17866   9.520   1.381   2.217 -0.7710 -0.1039 -0.0086
 4693SOL    HW117867   9.582   1.453   2.216  2.5748 -2.6977 -1.6131
 4693SOL    HW217868   9.499   1.368   2.310 -0.2545  1.8705  0.4203
 4694SOL     OW17869   0.833   9.609   8.508  0.1832  0.7566 -0.0560
 4694SOL    HW117870   0.886   9.543   8.552 -1.2388 -0.5278 -0.1730
 4694SOL    HW217871   0.780   9.647   8.579 -0.3762  0.3889 -0.2661
 4695SOL     OW17872   8.901   7.705   2.288  0.0752  0.2301 -0.2150
 4695SOL    HW117873   8.823   7.743   2.327 -0.7204 -0.6363 -0.9176
 4695SOL    HW217874   8.871   7.623   2.248  0.8873  0.9105 -2.3709
 4696SOL     OW17875   7.214   6.323   2.609  0.1744 -0.5225 -0.1999
 4696SOL    HW117876   7.186   6.257   2.546  0.7998 -0.1954 -0.8309
 4696SOL    HW217877   7.166   6.302   2.689 -0.3000 -1.2008 -0.6583
 4697SOL     OW17878   1.411   3.767   8.979  0.3706 -0.2776 -0.2800
 4697SOL    HW117879   1.497   3.802   9.001  1.5225 -2.5352 -0.9541
 4697SOL    HW217880   1.420   3.672   8.986 -1.4741 -0.6955 -2.3552
 4698SOL     OW17881   7.853   4.845   3.618 -0.2917  0.2687 -0.4426
 4698SOL    HW117882   7.788   4.878   3.679  1.1137  1.4566  0.4568
 4698SOL    HW217883   7.908   4.920   3.597  0.7988 -0.6961 -1.1939
 4699SOL     OW17884   6.003   1.434   5.976 -0.3550 -0.0526  0.1906
 4699SOL    HW117885   5.964   1.346   5.978 -0.7586  0.1333  1.4398
 4699SOL    HW217886   6.082   1.424   5.924  0.1923 -1.4185  1.2374
 4700SOL     OW17887  10.085   3.401   5.874 -0.2833  0.4946 -0.5311
 4700SOL    HW117888  10.029   3.332   5.839 -0.5664  0.5789 -0.2515
 4700SOL    HW217889  10.071   3.398   5.969  1.3576 -0.5208 -0.2643
 4701SOL     OW17890   3.548   1.429   3.447 -0.0268 -0.0324 -0.0542
 4701SOL    HW117891   3.626   1.382   3.419  0.5392  1.0386 -0.3010
 4701SOL    HW217892   3.475   1.373   3.419  0.6018 -0.3099 -1.1838
 4702SOL     OW17893   6.914   9.685   0.286 -0.4064  0.4483  0.1798
 4702SOL    HW117894   6.976   9.629   0.240 -1.5657 -1.5190  0.8851
 4702SOL    HW217895   6.966   9.730   0.352  0.7113  0.9746 -1.0219
 4703SOL     OW17896   9.660   3.767   4.624  0.9827 -0.0234  0.1941
 4703SOL    HW117897   9.600   3.760   4.550 -0.0986  0.9993  0.9519
 4703SOL    HW217898   9.723   3.696   4.610  1.0375  0.3676 -1.8957
 4704SOL     OW17899   3.090   4.128   5.036 -0.0677  0.0299 -0.3924
 4704SOL    HW117900   3.165   4.177   5.004  0.8396 -1.7756 -1.1687
 4704SOL    HW217901   3.128   4.060   5.092 -1.3106  0.3877  0.9674
 4705SOL     OW17902   0.828   0.828   8.467  0.2297 -0.2727 -0.0792
 4705SOL    HW117903   0.817   0.904   8.410  0.0908 -0.1011  0.1702
 4705SOL    HW217904   0.861   0.759   8.410  0.3186 -0.0355 -0.3172
 4706SOL     OW17905   1.250   2.780   4.842  0.4602 -0.3682  0.0211
 4706SOL    HW117906   1.200   2.774   4.923 -0.1273  0.4923 -0.2627
 4706SOL    HW217907   1.200   2.841   4.788 -0.2096 -2.3973 -1.7656
 4707SOL     OW17908   3.183   8.946   5.700  0.1978 -0.0887 -0.1385
 4707SOL    HW117909   3.107   8.916   5.749 -1.2159 -0.4976 -2.4175
 4707SOL    HW217910   3.147   9.011   5.638  1.8406  0.3035 -0.7336
 4708SOL     OW17911   1.507   6.534   6.570 -0.2881 -0.2930 -0.4791
 4708SOL    HW117912   1.495   6.556   6.663 -0.6599  0.2510 -0.6480
 4708SOL    HW217913   1.441   6.587   6.525  0.5854  0.2397 -1.1467
 4709SOL     OW17914   9.852   9.196   7.120 -0.0395  0.1135 -0.2750
 4709SOL    HW117915   9.778   9.242   7.080 -0.6838 -1.3400 -0.8454
 4709SOL    HW217916   9.927   9.222   7.067 -0.1909  1.3384  0.0894
 4710SOL     OW17917   4.403   7.689   2.725 -0.2213  0.2901 -0.5340
 4710SOL    HW117918   4.366   7.616   2.775 -1.1000  1.8258  1.1712
 4710SOL    HW217919   4.459   7.647   2.660 -1.5550 -1.9469 -0.3518
 4711SOL     OW17920   3.233   2.593   9.265 -0.0775 -0.2091 -0.3072
 4711SOL    HW117921   3.161   2.531   9.259 -0.9993  0.7937  0.0658
 4711SOL    HW217922   3.202   2.671   9.218  1.1449 -0.1013 -0.9783
 4712SOL     OW17923   9.822   5.589   7.485 -0.1576 -0.1486  0.5854
 4712SOL    HW117924   9.832   5.669   7.538  0.6199  0.1659 -0.0087
 4712SOL    HW217925   9.882   5.526   7.525 -0.0082 -0.0998  0.4412
 4713SOL     OW17926   3.457   4.922  10.268 -0.1668  0.5370  0.4647
 4713SOL    HW117927   3.504   4.924  10.185 -1.5763  1.5192 -0.3513
 4713SOL    HW217928   3.369   4.892  10.245 -0.2774 -0.2636  1.7930
 4714SOL     OW17929   4.398   9.158   1.572 -0.2170 -0.5112 -0.6341
 4714SOL    HW117930   4.344   9.155   1.651  1.0150 -1.1143  0.2379
 4714SOL    HW217931   4.343   9.197   1.506 -1.4328 -0.3624  0.4305
 4715SOL     OW17932   5.719   0.288   5.349 -0.4401 -0.4238  0.5746
 4715SOL    HW117933   5.759   0.324   5.270 -1.0541  1.2032  0.9713
 4715SOL    HW217934   5.757   0.339   5.421 -0.3065 -1.5078  1.2976
 4716SOL     OW17935   3.728   1.998   6.805 -0.3644 -0.3508 -0.7739
 4716SOL    HW117936   3.808   2.028   6.761  0.9803 -0.8931  1.1174
 4716SOL    HW217937   3.706   1.916   6.762  1.0641 -0.9996 -0.3466
 4717SOL     OW17938   2.867   3.610   4.001 -0.1995  0.1437  0.0065
 4717SOL    HW117939   2.859   3.703   3.980 -2.4541  0.1524  0.6195
 4717SOL    HW217940   2.956   3.601   4.036  0.2712  1.9232 -0.6024
 4718SOL     OW17941  10.133   3.145   0.859 -0.2796  0.1120 -0.0892
 4718SOL    HW117942  10.063   3.156   0.923  0.8106 -0.3829  1.2331
 4718SOL    HW217943  10.174   3.062   0.883  0.6758  0.3218 -0.9339
 4719SOL     OW17944  10.152   0.097   2.756 -0.5831  0.3737  0.0222
 4719SOL    HW117945  10.173   0.150   2.679 -2.1537  0.6298 -0.2730
 4719SOL    HW217946  10.171   0.154   2.830  1.1559  0.0461 -0.1357
 4720SOL     OW17947   5.109   6.028   9.445 -0.0874 -0.3349  0.4053
 4720SOL    HW117948   5.083   5.946   9.403 -0.2628 -0.0180 -0.1167
 4720SOL    HW217949   5.133   6.003   9.534 -2.7759 -0.5659  1.1316
 4721SOL     OW17950   7.225   0.029  10.168  0.1717 -0.0760 -0.5839
 4721SOL    HW117951   7.187  -0.043  10.118 -0.9391  0.6747 -0.8496
 4721SOL    HW217952   7.223  -0.001  10.259  2.0541 -1.3808 -0.9154
 4722SOL     OW17953   7.609   8.485   8.194  0.1717  0.1154  0.1110
 4722SOL    HW117954   7.644   8.545   8.259  1.8510 -3.0418  2.3706
 4722SOL    HW217955   7.592   8.540   8.117  0.8633  3.5080  2.1831
 4723SOL     OW17956   5.024   3.365   4.594  0.0111 -0.3382 -0.0094
 4723SOL    HW117957   5.009   3.425   4.521 -1.0336 -0.2963  0.2287
 4723SOL    HW217958   5.113   3.333   4.581  0.6286  1.3304 -0.0958
 4724SOL     OW17959   1.747   0.159   2.923 -0.0609 -0.3454 -0.1323
 4724SOL    HW117960   1.692   0.232   2.896  1.1372  0.6274 -0.0357
 4724SOL    HW217961   1.687   0.086   2.935 -1.2653  0.5852 -0.3854
 4725SOL     OW17962   0.210   2.101   4.038 -0.2888  0.2546 -0.0970
 4725SOL    HW117963   0.287   2.045   4.040  0.7327  1.3611 -2.8024
 4725SOL    HW217964   0.155   2.064   3.969 -0.1439  1.8375 -1.1119
 4726SOL     OW17965  10.228   1.150   4.060  0.4076  0.4312 -0.2012
 4726SOL    HW117966  10.320   1.146   4.034 -0.0563 -0.2507 -1.8521
 4726SOL    HW217967  10.205   1.243   4.051  0.7332  0.4804 -0.5420
 4727SOL     OW17968   8.667   0.939   7.556  0.1569  0.2176 -0.3727
 4727SOL    HW117969   8.725   0.922   7.482  1.0003 -0.7707  0.4792
 4727SOL    HW217970   8.602   1.002   7.522 -1.7580 -2.8646 -3.0880
 4728SOL     OW17971   2.503   3.533   7.632 -0.4222  0.6951  0.1156
 4728SOL    HW117972   2.579   3.574   7.672  1.7165 -2.5958 -0.1771
 4728SOL    HW217973   2.446   3.510   7.705  1.5348 -1.6193  1.0646
 4729SOL     OW17974   3.229   4.537   1.245  0.1898 -0.3323 -0.0646
 4729SOL    HW117975   3.214   4.443   1.237 -0.7000 -0.2244  0.2103
 4729SOL    HW217976   3.151   4.570   1.288 -0.6565  0.8986 -2.3518
 4730SOL     OW17977   4.377   1.397   7.625  0.1415  0.1625 -0.0957
 4730SOL    HW117978   4.379   1.477   7.677  0.1542 -0.0338  0.2116
 4730SOL    HW217979   4.467   1.364   7.627 -0.1084 -0.5393  0.8711
 4731SOL     OW17980   5.595   6.640   3.658 -0.2552  0.0017  0.4400
 4731SOL    HW117981   5.560   6.577   3.595  1.2917  0.3626 -0.8482
 4731SOL    HW217982   5.560   6.611   3.743 -1.0866 -1.4581 -0.3566
 4732SOL     OW17983   3.609   1.310   4.161  0.2426 -0.1551 -0.1135
 4732SOL    HW117984   3.578   1.220   4.150  1.1773 -0.2990 -2.0048
 4732SOL    HW217985   3.596   1.350   4.075  0.4993  1.3205  0.5025
 4733SOL     OW17986   4.859   5.700   7.782  0.0214  0.0970  0.1064
 4733SOL    HW117987   4.835   5.654   7.702 -1.4390  0.9057  0.0450
 4733SOL    HW217988   4.881   5.789   7.753  0.0829  0.2236  0.5350
 4734SOL     OW17989   3.166   6.051   8.335 -0.0263 -0.1969 -0.5114
 4734SOL    HW117990   3.260   6.039   8.340 -0.1498 -1.0433  0.0447
 4734SOL    HW217991   3.154   6.126   8.276  0.9877  0.0434 -0.4296
 4735SOL     OW17992   1.999   6.517   9.286  0.0924  0.1077  0.4127
 4735SOL    HW117993   2.025   6.608   9.294 -0.3804  0.2740  0.1033
 4735SOL    HW217994   1.951   6.512   9.204 -2.0278  0.1227  1.5717
 4736SOL     OW17995   1.095   8.091   5.224 -0.2048  0.2019  0.2201
 4736SOL    HW117996   1.098   8.171   5.172 -0.3899 -0.0799 -0.2297
 4736SOL    HW217997   1.099   8.121   5.315  2.1580  0.6039  0.0417
 4737SOL     OW17998   8.931   0.550   4.380 -0.5876  0.4301 -0.1879
 4737SOL    HW117999   8.897   0.536   4.292 -1.3226  2.2844 -0.2337
 4737SOL    HW218000   8.869   0.505   4.438  0.2232 -1.3093 -0.6066
 4738SOL     OW18001   2.073   5.856   6.956 -0.2443  0.4412  0.0633
 4738SOL    HW118002   2.038   5.944   6.963 -0.2924  0.4022  0.3405
 4738SOL    HW218003   2.160   5.867   6.916 -1.1333  0.4077 -1.9824
 4739SOL     OW18004   8.755   4.348   0.493 -0.1601  0.2660 -0.4842
 4739SOL    HW118005   8.694   4.414   0.529 -0.1058  0.5048 -0.8302
 4739SOL    HW218006   8.804   4.395   0.426  1.8604  0.6603  1.1568
 4740SOL     OW18007   4.038   7.999   3.829  0.0103  0.2807  0.5391
 4740SOL    HW118008   3.950   8.016   3.797  0.6233  1.5231 -0.5799
 4740SOL    HW218009   4.094   8.003   3.751  1.2076  0.7925  1.3856
 4741SOL     OW18010   2.807   7.397   5.195  0.0987 -0.2747  0.0305
 4741SOL    HW118011   2.831   7.479   5.152  0.9913 -0.6983 -0.2963
 4741SOL    HW218012   2.724   7.372   5.154 -1.5774  1.7307  1.8974
 4742SOL     OW18013   1.203   6.696   7.024  0.1714 -0.4166  0.0135
 4742SOL    HW118014   1.255   6.659   7.095  0.7043  1.4238  0.6615
 4742SOL    HW218015   1.113   6.693   7.056  0.4579  0.8728  1.0635
 4743SOL     OW18016   3.516   2.659   6.868  0.1036  0.2269  0.1661
 4743SOL    HW118017   3.482   2.649   6.779 -2.5613 -0.0594  1.1466
 4743SOL    HW218018   3.604   2.695   6.856 -0.8404  1.8858 -2.5189
 4744SOL     OW18019   5.700  10.020   3.931  0.2247 -0.3794  0.2512
 4744SOL    HW118020   5.772  10.073   3.967 -0.5095  0.5916  0.3191
 4744SOL    HW218021   5.722  10.011   3.838  0.5823 -0.3371  0.3284
 4745SOL     OW18022   8.439   2.828   0.391 -0.6376 -0.2029  0.8227
 4745SOL    HW118023   8.482   2.839   0.306 -1.7569  1.9866  0.4656
 4745SOL    HW218024   8.410   2.737   0.392 -0.5868 -0.2809 -1.1670
 4746SOL     OW18025   7.468   1.086   4.501 -0.1066 -0.0172 -0.0640
 4746SOL    HW118026   7.502   1.108   4.415  0.0306 -3.0486 -0.9120
 4746SOL    HW218027   7.374   1.071   4.487 -0.2115  0.1280  0.4564
 4747SOL     OW18028   5.883   8.914   2.292 -0.1980  0.0704 -0.3301
 4747SOL    HW118029   5.865   8.820   2.297 -0.9132  0.1856 -0.7054
 4747SOL    HW218030   5.894   8.941   2.383 -0.7668 -0.2238 -0.1716
 4748SOL     OW18031   0.370   5.151   5.328 -0.1006 -0.2299  0.3110
 4748SOL    HW118032   0.342   5.096   5.255 -0.2982 -0.6544  0.7026
 4748SOL    HW218033   0.311   5.127   5.400  1.0570 -0.9257  1.0644
 4749SOL     OW18034   3.139   4.971   8.511 -0.3233  0.1014 -0.0273
 4749SOL    HW118035   3.108   4.911   8.579 -0.1968 -0.1538 -0.1946
 4749SOL    HW218036   3.164   5.050   8.558 -1.2743  0.3272  0.1087
 4750SOL     OW18037   9.508   2.262   2.661 -0.4236 -0.4793  0.4268
 4750SOL    HW118038   9.463   2.209   2.727  0.7817 -1.4813  0.4783
 4750SOL    HW218039   9.560   2.324   2.712 -0.5103 -0.3907  0.4054
 4751SOL     OW18040   8.589   9.715   7.750  0.7072  0.0193  0.1740
 4751SOL    HW118041   8.620   9.797   7.786  0.7819  0.4378 -0.8099
 4751SOL    HW218042   8.630   9.709   7.663  0.8677 -1.1503  0.3058
 4752SOL     OW18043   3.916   2.781   1.091  0.1623  0.0915  0.1441
 4752SOL    HW118044   3.908   2.876   1.089  0.1571  0.0862 -0.0492
 4752SOL    HW218045   3.948   2.762   1.179 -0.6317  0.2186  0.4776
 4753SOL     OW18046   0.535   7.181   1.450 -0.2789  0.3423 -0.5515
 4753SOL    HW118047   0.531   7.275   1.433  2.1307  0.6417  0.0558
 4753SOL    HW218048   0.560   7.143   1.366  0.1211  0.4341 -0.4783
 4754SOL     OW18049   4.125   8.984   1.566 -0.3377  0.3268  0.1651
 4754SOL    HW118050   4.149   9.027   1.484  1.2559  1.6836  1.2823
 4754SOL    HW218051   4.042   9.026   1.591 -0.1526  0.8492 -0.0854
 4755SOL     OW18052   8.091   4.430   8.148  0.5547 -0.0672 -0.3244
 4755SOL    HW118053   8.154   4.431   8.221  0.5014 -2.0028 -0.1813
 4755SOL    HW218054   8.108   4.511   8.101  0.4843  1.3283  1.9155
 4756SOL     OW18055   3.658   5.386   4.606  0.1383 -0.1839 -0.1175
 4756SOL    HW118056   3.565   5.381   4.627  0.1229  1.0785  0.1903
 4756SOL    HW218057   3.666   5.344   4.520 -0.8081  0.1886 -0.4003
 4757SOL     OW18058   9.268   6.790   7.621  0.1146  0.1221  0.0452
 4757SOL    HW118059   9.292   6.871   7.578 -1.4822  0.6472  0.0596
 4757SOL    HW218060   9.177   6.804   7.649 -0.2878 -1.7551 -0.1793
 4758SOL     OW18061   0.101   0.582   5.966  0.7165  0.5765 -0.2947
 4758SOL    HW118062   0.165   0.600   6.035  1.0286  1.6903 -0.8570
 4758SOL    HW218063   0.138   0.621   5.887 -0.2084  0.3945 -0.8385
 4759SOL     OW18064   5.433   0.982   4.037  0.0887  0.5764 -0.4417
 4759SOL    HW118065   5.392   0.936   4.111  0.6548 -0.5891 -0.8169
 4759SOL    HW218066   5.434   0.917   3.967 -1.6702  2.0715 -1.9584
 4760SOL     OW18067  10.217   7.343   4.400  0.0932  0.1746  0.1958
 4760SOL    HW118068  10.216   7.248   4.384 -1.2422  0.4324 -1.6076
 4760SOL    HW218069  10.299   7.359   4.447  0.3138 -1.8707  0.6074
 4761SOL     OW18070   8.647   7.087   9.386  0.6665 -0.3206  0.2128
 4761SOL    HW118071   8.652   7.183   9.387 -1.8019 -0.1181  0.2061
 4761SOL    HW218072   8.643   7.064   9.293 -1.3059 -0.1499  0.1981
 4762SOL     OW18073   6.552   4.028   3.239  0.6550  0.4533 -0.4851
 4762SOL    HW118074   6.518   4.033   3.328  0.2791  0.8988 -0.6508
 4762SOL    HW218075   6.571   4.119   3.215 -0.3877  0.4827 -1.2969
 4763SOL     OW18076   6.726   2.623   7.034 -0.0858  0.3893 -0.6420
 4763SOL    HW118077   6.767   2.648   6.951  0.6749  1.8964  0.1421
 4763SOL    HW218078   6.664   2.694   7.052  0.9707  0.9633  0.8840
 4764SOL     OW18079   2.632   9.505   4.209 -0.4347 -0.3215 -0.3101
 4764SOL    HW118080   2.557   9.498   4.268  0.9811 -0.9514  1.5134
 4764SOL    HW218081   2.704   9.462   4.256  1.1520  0.5187 -1.8455
 4765SOL     OW18082   9.289   2.559   8.868 -0.3078  0.0569  0.0080
 4765SOL    HW118083   9.275   2.649   8.841 -2.3229 -0.5257 -1.0723
 4765SOL    HW218084   9.347   2.522   8.801  0.5620  0.5368  0.4817
 4766SOL     OW18085   4.819   3.807   0.067 -0.8035 -0.1193 -0.6090
 4766SOL    HW118086   4.779   3.857  -0.005  1.2152  0.4189 -1.4319
 4766SOL    HW218087   4.888   3.864   0.100 -2.2573  0.0329  2.4534
 4767SOL     OW18088   9.232   8.354   2.106 -0.0059 -0.0201 -0.3358
 4767SOL    HW118089   9.208   8.263   2.085 -0.7924 -0.2290  1.3596
 4767SOL    HW218090   9.149   8.399   2.116  0.3854  0.7766 -0.5919
 4768SOL     OW18091   7.165   5.804   9.986  0.3736  0.3338  0.4057
 4768SOL    HW118092   7.082   5.757   9.977  0.5898  0.0760 -0.3444
 4768SOL    HW218093   7.191   5.824   9.896  0.1362  2.1881  0.7016
 4769SOL     OW18094   6.177   5.646   6.602  0.0815 -0.2642 -0.1275
 4769SOL    HW118095   6.217   5.652   6.689 -1.0953 -1.6592  0.5427
 4769SOL    HW218096   6.111   5.715   6.601 -0.7949 -1.0658  0.6023
 4770SOL     OW18097   9.563   2.514   1.453  0.0523  0.3126  0.0000
 4770SOL    HW118098   9.643   2.460   1.452  0.5185  0.9963 -0.4614
 4770SOL    HW218099   9.588   2.595   1.408 -1.0909  0.2844 -0.7163
 4771SOL     OW18100   4.768   0.544   7.314 -0.4507  0.2599  0.1255
 4771SOL    HW118101   4.836   0.556   7.248 -0.1469  1.7584  0.6530
 4771SOL    HW218102   4.809   0.492   7.383  0.0252  0.7417  0.2156
 4772SOL     OW18103   4.803   3.866   4.315 -0.2085  0.2476  0.8117
 4772SOL    HW118104   4.847   3.831   4.237 -0.2805  0.9810  0.4318
 4772SOL    HW218105   4.715   3.886   4.285  0.1733  1.8654  0.6815
 4773SOL     OW18106   6.082   2.113   5.190 -0.1810  0.7327  0.0156
 4773SOL    HW118107   6.078   2.034   5.137 -1.0816 -0.9429  2.3755
 4773SOL    HW218108   6.100   2.184   5.128  1.1245 -1.3504 -2.1396
 4774SOL     OW18109   5.531   7.315   0.318  0.9228 -0.5727 -0.4511
 4774SOL    HW118110   5.495   7.373   0.385  1.2203 -0.2930 -0.5287
 4774SOL    HW218111   5.567   7.374   0.252 -0.4121 -0.8402 -1.4451
 4775SOL     OW18112   2.949   1.354   3.020  0.0926  0.1501  0.4975
 4775SOL    HW118113   2.934   1.379   2.929  1.6278  0.9463  0.4389
 4775SOL    HW218114   2.862   1.333   3.053 -0.4646 -0.4068 -1.2137
 4776SOL     OW18115   6.045   3.583   9.548  0.2119  0.2239  0.5403
 4776SOL    HW118116   6.025   3.574   9.455  0.6814 -0.5713  0.5060
 4776SOL    HW218117   6.064   3.676   9.560  3.0729 -0.0727 -0.7954
 4777SOL     OW18118   2.232   1.017   2.573  0.3779 -0.4987  0.4199
 4777SOL    HW118119   2.316   1.059   2.554 -0.6197  0.5381 -2.0339
 4777SOL    HW218120   2.232   0.938   2.519 -0.8070  0.3225 -0.8611
 4778SOL     OW18121   6.624   2.385   1.389 -0.1236  0.2632  0.0842
 4778SOL    HW118122   6.615   2.480   1.381  1.2723  0.4130 -0.0203
 4778SOL    HW218123   6.566   2.362   1.461 -1.0743  1.0803 -0.3976
 4779SOL     OW18124   6.468   5.897   6.106 -0.2211 -0.4763 -0.0900
 4779SOL    HW118125   6.383   5.922   6.070  0.3605  2.0263  0.0590
 4779SOL    HW218126   6.530   5.960   6.067  1.6134 -2.3334 -0.3493
 4780SOL     OW18127   4.621   0.144   3.333 -0.0895  0.6904 -0.4555
 4780SOL    HW118128   4.701   0.192   3.313  0.3540  0.2142  0.1362
 4780SOL    HW218129   4.563   0.162   3.258  0.2838  1.6399 -0.5335
 4781SOL     OW18130   4.638   1.306   1.571  0.2940 -0.5840 -0.1117
 4781SOL    HW118131   4.652   1.280   1.480 -0.5068  0.3174 -0.5180
 4781SOL    HW218132   4.544   1.295   1.585  0.1376  0.7751  0.0890
 4782SOL     OW18133   5.015   0.182   9.392 -0.8878  0.5398  0.2123
 4782SOL    HW118134   5.000   0.096   9.430 -1.2147  0.7177  0.4990
 4782SOL    HW218135   5.108   0.198   9.402 -0.8206  0.1986  0.1146
 4783SOL     OW18136   9.174   1.119   5.010 -0.3537  0.4607  0.6664
 4783SOL    HW118137   9.250   1.111   4.952 -2.0449  2.0239 -1.9794
 4783SOL    HW218138   9.112   1.056   4.974 -0.7026 -0.0695  2.1657
 4784SOL     OW18139   6.100  10.211   2.556  0.5847 -0.3082  0.1596
 4784SOL    HW118140   6.175  10.258   2.521  0.2260 -0.3827 -0.7454
 4784SOL    HW218141   6.078  10.148   2.488 -0.3687 -0.2100  0.3630
 4785SOL     OW18142   1.975   5.160   1.547 -0.4147  0.3942  0.0600
 4785SOL    HW118143   2.017   5.192   1.467  0.9801 -0.1332  0.5395
 4785SOL    HW218144   1.882   5.154   1.525 -0.5281  3.1052 -0.5771
 4786SOL     OW18145   5.896   8.119   6.772 -0.5064  0.1809 -0.1581
 4786SOL    HW118146   5.919   8.120   6.865  0.8525  3.0488 -0.4115
 4786SOL    HW218147   5.905   8.028   6.746  2.7611 -0.1732  1.6973
 4787SOL     OW18148   0.497   9.762   0.556 -0.5029  0.1225 -0.1238
 4787SOL    HW118149   0.436   9.768   0.629 -0.3298 -0.6597  0.0982
 4787SOL    HW218150   0.448   9.719   0.486 -0.7922  1.2259 -0.6224
 4788SOL     OW18151   8.679   9.236   4.123 -0.6152  0.1926 -0.4529
 4788SOL    HW118152   8.695   9.258   4.031  1.2308 -0.4267 -0.3182
 4788SOL    HW218153   8.620   9.160   4.119  0.4306 -0.6146 -1.1925
 4789SOL     OW18154   0.151   6.949   2.383 -0.6005 -0.1115 -0.7680
 4789SOL    HW118155   0.237   6.955   2.342  0.4567 -0.6091  1.2718
 4789SOL    HW218156   0.113   6.869   2.346  0.9112 -1.3263  0.2032
 4790SOL     OW18157   4.108   3.746   0.608  0.0562 -0.0669 -0.5571
 4790SOL    HW118158   4.105   3.834   0.646 -1.3358 -0.5021  0.4576
 4790SOL    HW218159   4.193   3.711   0.635 -0.1902  0.2726  0.7416
 4791SOL     OW18160   4.564   3.293   6.606  0.1734  0.4800  0.1313
 4791SOL    HW118161   4.497   3.356   6.634 -1.1070  0.2393 -2.1676
 4791SOL    HW218162   4.582   3.316   6.515  1.6356 -0.8568  0.0405
 4792SOL     OW18163   3.206   3.012   1.553 -0.0306 -0.0879  0.4213
 4792SOL    HW118164   3.250   3.016   1.638  1.7128 -1.5587 -0.3340
 4792SOL    HW218165   3.119   3.046   1.569 -0.2146 -1.5641  3.1365
 4793SOL     OW18166   4.411   9.964   6.496 -0.2728  0.1257  0.0414
 4793SOL    HW118167   4.322   9.967   6.531 -0.3463  4.4903  0.0622
 4793SOL    HW218168   4.399   9.965   6.401 -0.4432  2.7876  0.0082
 4794SOL     OW18169   0.510   9.748   6.316 -0.1539  0.2991 -0.5028
 4794SOL    HW118170   0.547   9.660   6.311  0.8827  0.7439 -0.9165
 4794SOL    HW218171   0.428   9.737   6.364  0.9801 -0.5649  1.3391
 4795SOL     OW18172   8.447   1.306   7.972 -0.5642 -0.4372  0.0482
 4795SOL    HW118173   8.360   1.330   7.938 -0.6724 -1.0164 -0.1043
 4795SOL    HW218174   8.453   1.211   7.956 -0.6267 -0.7324  1.6682
 4796SOL     OW18175   2.075   5.294   2.745  0.2562 -0.0740  0.6079
 4796SOL    HW118176   2.068   5.281   2.650 -1.1890 -1.3370  0.8587
 4796SOL    HW218177   2.099   5.387   2.754  0.1907  0.1323 -0.9790
 4797SOL     OW18178   9.952   5.148   3.400  0.5868 -0.0703 -0.1467
 4797SOL    HW118179   9.862   5.180   3.397  0.4864 -0.0623  1.5996
 4797SOL    HW218180  10.000   5.216   3.447  1.3749 -0.3259 -0.5700
 4798SOL     OW18181   9.771   5.786  10.127  0.3591 -0.4211 -0.2062
 4798SOL    HW118182   9.705   5.849  10.155 -0.4316 -1.3790  0.1492
 4798SOL    HW218183   9.854   5.829  10.146 -0.1446  0.8384 -0.7180
 4799SOL     OW18184   1.194   8.153   7.611  0.0105  0.5149  0.1449
 4799SOL    HW118185   1.186   8.209   7.689  1.9063  1.6752 -0.4354
 4799SOL    HW218186   1.231   8.071   7.644 -0.6451  0.4159  0.6658
 4800SOL     OW18187   8.483   4.761   6.595 -0.3005  0.6274  0.3366
 4800SOL    HW118188   8.409   4.810   6.632  1.0532  2.1729  1.1324
 4800SOL    HW218189   8.510   4.702   6.665 -0.0625  0.9103  0.4883
 4801SOL     OW18190   4.941   6.248   2.090 -0.0732 -0.0995 -0.3657
 4801SOL    HW118191   4.974   6.300   2.164  0.3967  0.9065 -1.2620
 4801SOL    HW218192   4.918   6.164   2.129  2.5037 -0.4900  0.5039
 4802SOL     OW18193   9.993   1.559   0.872  0.1111 -0.0529  0.4393
 4802SOL    HW118194  10.046   1.623   0.920 -2.0295  0.1170  2.7725
 4802SOL    HW218195   9.945   1.612   0.808 -1.2827  0.7067  2.0327
 4803SOL     OW18196   5.428   1.486   0.972 -0.0953 -0.1436 -0.0441
 4803SOL    HW118197   5.520   1.511   0.965  0.3383 -1.9091 -1.2160
 4803SOL    HW218198   5.430   1.393   0.994 -1.6158 -0.0984  0.3905
 4804SOL     OW18199   8.165   4.107   0.124 -0.6015  0.3874 -0.1185
 4804SOL    HW118200   8.202   4.034   0.075  0.8271  0.5491  0.6788
 4804SOL    HW218201   8.241   4.155   0.158 -1.4942  0.1946  2.3759
 4805SOL     OW18202   7.200   5.727   9.548 -0.2799 -0.2859 -0.2628
 4805SOL    HW118203   7.149   5.727   9.467 -1.1881  0.3944  0.2811
 4805SOL    HW218204   7.290   5.709   9.521 -0.7040 -0.8879 -1.3210
 4806SOL     OW18205   1.926   3.543   0.552 -0.3555  0.1176 -0.2191
 4806SOL    HW118206   1.862   3.529   0.481 -0.3737 -1.6389  0.0968
 4806SOL    HW218207   1.994   3.478   0.536  0.0377  0.2291  0.9252
 4807SOL     OW18208   6.640   3.704   8.610 -0.1126 -0.1763  0.1018
 4807SOL    HW118209   6.723   3.723   8.566  0.0978  0.0244  0.5833
 4807SOL    HW218210   6.609   3.789   8.640 -0.5779 -0.2281 -0.2113
 4808SOL     OW18211   4.327   4.742   9.373 -0.7351  0.3910  0.3881
 4808SOL    HW118212   4.415   4.737   9.336 -0.3098  2.5672  0.9483
 4808SOL    HW218213   4.338   4.794   9.453 -2.2238 -1.0264  1.5870
 4809SOL     OW18214   7.860   2.142   6.198 -0.0658 -0.1533 -0.0206
 4809SOL    HW118215   7.931   2.158   6.260 -1.3643  1.4900  1.1085
 4809SOL    HW218216   7.799   2.084   6.245 -0.2621 -0.2329 -0.3696
 4810SOL     OW18217   7.387   3.440   9.095  0.4452 -0.2807  0.7243
 4810SOL    HW118218   7.475   3.410   9.121  0.3240 -0.9283  0.4066
 4810SOL    HW218219   7.339   3.360   9.076 -0.7416 -0.0598  2.5038
 4811SOL     OW18220   5.485   3.891   1.880 -0.0040 -0.3442  0.4131
 4811SOL    HW118221   5.520   3.969   1.923 -0.2668 -0.0338  0.0790
 4811SOL    HW218222   5.512   3.900   1.789 -0.6380 -0.2745  0.2229
 4812SOL     OW18223   6.367   3.237   6.412 -0.3049  0.3926  0.0884
 4812SOL    HW118224   6.443   3.197   6.369 -0.0250  1.4486 -0.4353
 4812SOL    HW218225   6.404   3.289   6.484 -0.7398 -1.0188  1.3821
 4813SOL     OW18226   3.916   2.144   5.840 -0.0072 -0.1731  0.1040
 4813SOL    HW118227   3.824   2.117   5.833 -0.4712  1.3846 -0.2897
 4813SOL    HW218228   3.952   2.090   5.910 -0.7258 -2.0657 -0.9327
 4814SOL     OW18229   3.395   7.313   9.686 -0.1497 -0.5289 -0.1839
 4814SOL    HW118230   3.350   7.383   9.637 -1.2451  0.2145  1.7748
 4814SOL    HW218231   3.451   7.271   9.620 -0.9815  0.8698 -1.9000
 4815SOL     OW18232   0.546   4.153   5.272  0.0551  0.0064 -0.1252
 4815SOL    HW118233   0.598   4.073   5.283  0.8908  0.5419 -0.0704
 4815SOL    HW218234   0.541   4.191   5.359 -0.8162 -0.2663 -0.0506
 4816SOL     OW18235   1.343   9.012   2.327  0.4431  0.2915 -0.3066
 4816SOL    HW118236   1.310   9.078   2.265 -1.6670  0.8367  1.2863
 4816SOL    HW218237   1.332   9.052   2.413  1.2042 -1.3020  0.5697
 4817SOL     OW18238   9.752   9.221   0.567  0.1540  0.6926  0.1090
 4817SOL    HW118239   9.782   9.301   0.610 -0.2125  1.4462 -0.9680
 4817SOL    HW218240   9.771   9.236   0.474 -0.3528 -0.2728 -0.1592
 4818SOL     OW18241   0.070   7.213   5.425 -0.7799 -0.3503  0.2902
 4818SOL    HW118242  -0.023   7.204   5.406 -0.4050 -1.4567 -1.1466
 4818SOL    HW218243   0.098   7.288   5.373 -0.7723 -0.3126  0.3489
 4819SOL     OW18244   2.640   6.086   4.344 -0.1049 -0.0453 -0.4647
 4819SOL    HW118245   2.657   5.998   4.311  0.2464  0.4162 -1.5589
 4819SOL    HW218246   2.725   6.115   4.379  0.2589  0.5131 -1.7362
 4820SOL     OW18247   2.622   4.892   1.541  0.0474 -0.6159 -0.2774
 4820SOL    HW118248   2.618   4.898   1.636  1.1497  3.1227 -0.3059
 4820SOL    HW218249   2.716   4.887   1.522 -0.0521  0.5718 -1.1634
 4821SOL     OW18250   3.011   1.917   5.965 -0.0736 -0.3776  0.2360
 4821SOL    HW118251   3.036   1.833   5.928 -0.6913 -1.1908  1.5649
 4821SOL    HW218252   3.091   1.969   5.965  0.3407 -1.0057 -0.5099
 4822SOL     OW18253   0.899   0.930   6.461  0.7483  0.2698 -0.0846
 4822SOL    HW118254   0.853   0.962   6.539 -0.3896  0.2642 -0.7273
 4822SOL    HW218255   0.862   0.981   6.389  0.7941 -0.6730 -0.7957
 4823SOL     OW18256   1.444   9.166   1.768 -0.5439 -0.3904 -0.2892
 4823SOL    HW118257   1.404   9.241   1.812  0.2025 -0.6512  0.8894
 4823SOL    HW218258   1.464   9.198   1.680  0.7650  1.1785  0.5206
 4824SOL     OW18259   7.435   9.940   6.035  0.1550  0.0019  0.8610
 4824SOL    HW118260   7.389  10.012   6.077  0.3262 -0.2408  1.4817
 4824SOL    HW218261   7.518   9.978   6.006 -0.8054  0.6967 -1.1678
 4825SOL     OW18262   7.388   4.572   4.162 -0.3689  0.5043 -0.5639
 4825SOL    HW118263   7.468   4.570   4.109  0.5850  0.2018  0.8388
 4825SOL    HW218264   7.412   4.621   4.240 -1.6580  0.6532 -0.2376
 4826SOL     OW18265   9.656   2.990   3.539  0.0121 -0.1358 -0.1979
 4826SOL    HW118266   9.669   2.950   3.625 -0.2314  0.3311  0.0622
 4826SOL    HW218267   9.714   3.066   3.539 -1.5217  1.1106  0.4042
 4827SOL     OW18268   9.569   1.655   7.042 -0.2693 -0.2194 -0.6336
 4827SOL    HW118269   9.659   1.628   7.024 -0.2278 -0.7776  0.3383
 4827SOL    HW218270   9.532   1.675   6.956 -0.3570 -3.6283 -1.5431
 4828SOL     OW18271   4.718   0.746   2.942 -0.4597 -0.3864  0.2180
 4828SOL    HW118272   4.744   0.656   2.922 -0.1631 -0.3037  0.2237
 4828SOL    HW218273   4.778   0.773   3.012 -1.4701 -0.6647  1.2126
 4829SOL     OW18274   6.553   3.918   6.421 -0.9005 -0.0596  0.2798
 4829SOL    HW118275   6.615   3.990   6.418  2.9085 -2.9906  1.2757
 4829SOL    HW218276   6.470   3.959   6.448  0.4621  4.0992 -1.0533
 4830SOL     OW18277   6.989   8.003   5.076 -0.0074 -0.0386 -0.5211
 4830SOL    HW118278   6.967   8.062   5.148  0.1942 -1.3326  0.6396
 4830SOL    HW218279   6.913   7.945   5.070  1.2384 -1.9265  0.7789
 4831SOL     OW18280   4.666   1.189   3.534  0.0850  0.1859 -0.4503
 4831SOL    HW118281   4.653   1.222   3.445 -0.5886 -1.9209 -1.1744
 4831SOL    HW218282   4.595   1.126   3.547  1.8391 -1.6973  0.4738
 4832SOL     OW18283   2.612   5.396   4.903 -0.2155 -0.1125 -0.2714
 4832SOL    HW118284   2.608   5.332   4.832 -0.5278  0.8609 -1.1635
 4832SOL    HW218285   2.563   5.355   4.974 -1.0697 -0.5517 -1.0862
 4833SOL     OW18286   2.389   3.361   9.252  0.5751 -0.4955  0.2755
 4833SOL    HW118287   2.405   3.402   9.167 -4.3102 -1.0285 -1.2150
 4833SOL    HW218288   2.367   3.434   9.310 -2.1143 -0.4338 -0.7140
 4834SOL     OW18289   1.767   1.482   0.062  0.0043  0.2628  0.0523
 4834SOL    HW118290   1.790   1.412   0.123  2.3314  0.9326  0.0354
 4834SOL    HW218291   1.737   1.554   0.117 -1.2148 -0.2943  0.1460
 4835SOL     OW18292   2.747   2.117   1.018 -0.4530 -0.3840 -0.3423
 4835SOL    HW118293   2.797   2.197   1.032  0.2347 -1.1648  2.1147
 4835SOL    HW218294   2.656   2.143   1.031 -0.2482  0.0317  0.2833
 4836SOL     OW18295   5.435   1.213   9.697 -0.2149  0.6645 -0.1697
 4836SOL    HW118296   5.475   1.279   9.753  1.7171 -0.0332 -0.6416
 4836SOL    HW218297   5.386   1.263   9.631  1.2026  1.6399 -0.5189
 4837SOL     OW18298   3.228   7.243   0.491  0.3662  0.1873 -0.0072
 4837SOL    HW118299   3.226   7.185   0.567  1.5653  0.7232  0.4545
 4837SOL    HW218300   3.306   7.217   0.443 -0.1966  0.0824 -0.8814
 4838SOL     OW18301   7.691   5.249   4.089  0.0865 -0.2821  0.1091
 4838SOL    HW118302   7.616   5.189   4.092 -1.0304  1.0482 -0.3314
 4838SOL    HW218303   7.723   5.251   4.180 -1.9779  1.0120  0.8847
 4839SOL     OW18304   0.825   3.544   8.783  0.3575  0.3294 -0.5510
 4839SOL    HW118305   0.754   3.602   8.808  1.5897  1.7263 -0.1210
 4839SOL    HW218306   0.784   3.458   8.774 -1.6813  1.3690 -1.9475
 4840SOL     OW18307   2.492  10.237   4.486 -0.3756 -0.5858 -0.8857
 4840SOL    HW118308   2.452  10.154   4.511 -2.6364  0.1265 -1.8645
 4840SOL    HW218309   2.484  10.292   4.564 -0.4512 -0.7609 -0.7686
 4841SOL     OW18310   7.858   3.693   1.203 -0.5084 -0.5906  0.0761
 4841SOL    HW118311   7.901   3.631   1.262 -0.2875  0.4941  1.0743
 4841SOL    HW218312   7.791   3.641   1.158  0.7099 -1.9175 -0.2759
 4842SOL     OW18313   0.188   7.746   5.831  0.1018 -0.0016  0.1844
 4842SOL    HW118314   0.236   7.796   5.765 -0.5406  0.5203  0.1050
 4842SOL    HW218315   0.154   7.812   5.892  0.1996 -0.4299  0.7144
 4843SOL     OW18316   2.191   5.972   5.807  0.0001 -0.5128  0.0048
 4843SOL    HW118317   2.241   6.010   5.735  0.3506 -2.1197 -0.6476
 4843SOL    HW218318   2.174   5.882   5.780  1.2947 -1.6196  2.4856
 4844SOL     OW18319   4.082  10.124   3.472 -0.1751  0.4379  0.0114
 4844SOL    HW118320   4.046  10.209   3.446 -1.0225 -0.1903 -0.9647
 4844SOL    HW218321   4.077  10.124   3.568  2.1049  2.4320  0.2509
 4845SOL     OW18322   2.999   6.341   7.793 -0.3081  0.5994  0.4699
 4845SOL    HW118323   2.946   6.285   7.736 -0.8068  1.3025  0.2268
 4845SOL    HW218324   3.065   6.282   7.829 -1.1208 -0.2507  0.6142
 4846SOL     OW18325   3.675   5.078   6.236 -0.4510 -0.1823  0.2852
 4846SOL    HW118326   3.729   5.033   6.301 -0.9527  0.0042  0.8393
 4846SOL    HW218327   3.738   5.119   6.176  0.0142 -1.2702  0.0015
 4847SOL     OW18328   6.510   9.821   2.180 -0.0962  0.5256 -0.4202
 4847SOL    HW118329   6.450   9.786   2.246 -0.8625  1.7673 -0.4318
 4847SOL    HW218330   6.582   9.758   2.177 -0.7451 -0.2872  0.5688
 4848SOL     OW18331  10.088   9.650  10.063  0.7093 -0.2455 -0.4262
 4848SOL    HW118332  10.028   9.705  10.114 -0.1315  0.4827 -2.1124
 4848SOL    HW218333  10.147   9.713  10.021  2.1392 -0.9010  0.4998
 4849SOL     OW18334   2.004   8.458   3.360 -0.2971  0.5269 -0.1193
 4849SOL    HW118335   2.026   8.365   3.357  1.8782  0.8682  2.0117
 4849SOL    HW218336   1.908   8.460   3.352 -0.2394 -1.6237 -2.8648
 4850SOL     OW18337   0.134   6.496   0.925  0.1923  0.3171  0.3826
 4850SOL    HW118338   0.105   6.459   0.841  0.1744 -0.0574  0.5578
 4850SOL    HW218339   0.053   6.522   0.969  0.1858  0.2591  0.4047
 4851SOL     OW18340   6.878   6.375   8.533  0.2419  0.2542  0.0605
 4851SOL    HW118341   6.794   6.355   8.575 -0.3979  1.0241 -0.8133
 4851SOL    HW218342   6.907   6.291   8.497 -0.2919  0.0293  0.1422
 4852SOL     OW18343   1.604   0.589   0.989  0.1119 -0.0862 -0.0928
 4852SOL    HW118344   1.656   0.512   1.009 -0.2074 -0.1944  0.3485
 4852SOL    HW218345   1.647   0.661   1.036 -0.9911 -0.4492  1.5908
 4853SOL     OW18346   7.431   2.256  10.200 -0.0268 -0.2943  0.4360
 4853SOL    HW118347   7.445   2.314  10.275  0.5790 -0.1379  0.2056
 4853SOL    HW218348   7.455   2.308  10.124  2.3032 -1.3923  0.3388
 4854SOL     OW18349   7.292   6.175   8.819  0.0129  0.1235  0.3562
 4854SOL    HW118350   7.350   6.107   8.783  0.7129  1.1934 -0.6183
 4854SOL    HW218351   7.221   6.180   8.755 -0.5318 -0.3452  0.9229
 4855SOL     OW18352   7.118   5.622   8.094 -0.0893  0.1827 -0.3594
 4855SOL    HW118353   7.147   5.599   8.182 -1.6657  0.3299  0.2367
 4855SOL    HW218354   7.025   5.598   8.092 -0.3324  1.0816 -1.6621
 4856SOL     OW18355   2.469   4.706   7.576 -0.4296  0.3391  0.2741
 4856SOL    HW118356   2.535   4.681   7.641  0.9536 -0.8416 -1.4800
 4856SOL    HW218357   2.436   4.790   7.607  1.8704  0.9683  1.2705
 4857SOL     OW18358   2.278   5.067   2.792  0.3830 -0.7901 -1.0350
 4857SOL    HW118359   2.212   5.032   2.852  1.5619 -0.0462  0.7839
 4857SOL    HW218360   2.246   5.154   2.768  0.5863 -0.5223 -0.3410
 4858SOL     OW18361   1.809   7.810   9.508 -0.2786 -0.4677 -0.2430
 4858SOL    HW118362   1.751   7.788   9.435  0.3064  1.4954 -1.3757
 4858SOL    HW218363   1.897   7.790   9.476 -0.0378  0.1374  0.0063
 4859SOL     OW18364   8.046   8.564   3.837 -0.0803 -0.3841 -0.4459
 4859SOL    HW118365   7.993   8.610   3.772 -0.4758 -0.5768 -0.2660
 4859SOL    HW218366   7.989   8.493   3.868  0.3055 -0.6288 -0.2904
 4860SOL     OW18367  10.197   5.639   4.099 -0.2103  0.1317  0.7455
 4860SOL    HW118368  10.200   5.574   4.028 -0.4501 -0.0177  0.8721
 4860SOL    HW218369  10.271   5.696   4.081 -0.6322  0.4702  0.0083
 4861SOL     OW18370   5.010   1.025   4.762  0.0758 -0.4822 -0.4647
 4861SOL    HW118371   4.998   1.076   4.842 -0.5039  0.2287 -0.9938
 4861SOL    HW218372   5.089   0.974   4.778  0.3619  0.1771  0.2899
 4862SOL     OW18373   7.535   5.849   8.526  0.1390  0.3122 -1.0359
 4862SOL    HW118374   7.589   5.795   8.469  2.1892  0.8677  0.2583
 4862SOL    HW218375   7.523   5.931   8.477  1.9748  0.8306 -0.7167
 4863SOL     OW18376   0.196   9.396   9.689  0.3448  0.3508 -0.2801
 4863SOL    HW118377   0.255   9.322   9.675 -0.0179 -0.1023  0.5371
 4863SOL    HW218378   0.216   9.456   9.617 -0.1363 -1.0358 -1.6331
 4864SOL     OW18379   7.945   7.105   1.850  0.3357 -0.3003 -0.7516
 4864SOL    HW118380   7.943   7.069   1.939  1.2031  0.2519 -0.4964
 4864SOL    HW218381   7.853   7.109   1.824  0.0379 -0.0014  0.3115
 4865SOL     OW18382   0.847   5.207   0.519  0.7187 -0.0809 -0.2753
 4865SOL    HW118383   0.939   5.224   0.536  0.9519 -0.6342 -0.9763
 4865SOL    HW218384   0.845   5.121   0.477  0.1528  1.0355 -2.7112
 4866SOL     OW18385   5.631   3.052   4.912 -0.8400  0.4026 -0.3595
 4866SOL    HW118386   5.710   3.067   4.859 -1.4850  1.2103 -1.1040
 4866SOL    HW218387   5.599   2.966   4.882 -0.4979  0.2762 -0.3716
 4867SOL     OW18388   0.526   6.089   2.753  0.7936  0.3286 -0.2265
 4867SOL    HW118389   0.526   6.054   2.842 -2.1272 -0.2556 -0.3525
 4867SOL    HW218390   0.451   6.149   2.751 -0.2329 -0.8899 -2.6703
 4868SOL     OW18391   3.062   6.765   6.086 -0.1269  0.0398 -0.4208
 4868SOL    HW118392   3.138   6.822   6.079 -1.3523  1.8127  0.2103
 4868SOL    HW218393   2.998   6.802   6.026 -0.3737 -1.7068 -1.3053
 4869SOL     OW18394   1.198   7.927   6.291  0.0380 -0.5119  0.5873
 4869SOL    HW118395   1.234   7.867   6.356 -0.4025 -1.2574  0.1552
 4869SOL    HW218396   1.178   8.006   6.340  2.5950  0.0983  0.7896
 4870SOL     OW18397   7.615   7.301   6.630  0.5533  0.5576  0.1933
 4870SOL    HW118398   7.637   7.259   6.547 -1.6088  1.0352 -0.6914
 4870SOL    HW218399   7.689   7.282   6.687  0.9938 -1.9097 -1.0638
 4871SOL     OW18400   1.649   4.159   4.084  0.3915  0.0844 -0.1843
 4871SOL    HW118401   1.662   4.202   4.168  0.1436  0.3842 -0.2958
 4871SOL    HW218402   1.578   4.208   4.042 -0.2679 -0.7605 -0.0974
 4872SOL     OW18403   4.097   4.678   1.623  0.3123 -0.1317  0.3498
 4872SOL    HW118404   4.126   4.630   1.546 -3.0984 -1.7832 -0.0899
 4872SOL    HW218405   4.171   4.736   1.645  2.8318 -2.2400 -1.8746
 4873SOL     OW18406  10.291   5.386   2.400  0.0051 -0.6970 -0.7354
 4873SOL    HW118407  10.276   5.479   2.414  0.4794 -0.4754 -1.6351
 4873SOL    HW218408  10.320   5.353   2.485  0.7424  0.1566 -0.6417
 4874SOL     OW18409   6.268   8.940   1.686  0.0466 -0.0901 -0.2115
 4874SOL    HW118410   6.311   9.025   1.698 -0.2382  0.1047 -0.5355
 4874SOL    HW218411   6.336   8.883   1.651 -0.0106  0.2732 -0.9289
 4875SOL     OW18412   6.581   7.089   2.078 -0.3843  0.0167  0.0373
 4875SOL    HW118413   6.534   7.007   2.093 -0.7070  0.1124 -0.4278
 4875SOL    HW218414   6.542   7.151   2.140 -0.2451 -0.1378  0.2828
 4876SOL     OW18415   8.333   8.646   9.834 -0.3293 -0.5826 -0.1375
 4876SOL    HW118416   8.388   8.691   9.770  1.5517 -2.1538  0.3001
 4876SOL    HW218417   8.375   8.562   9.848 -2.0911 -1.2966  1.3118
 4877SOL     OW18418   0.001   7.477   8.571 -0.6670 -0.2415  0.1236
 4877SOL    HW118419   0.067   7.463   8.503 -0.0720  2.0779  0.1398
 4877SOL    HW218420   0.049   7.464   8.654 -0.2204  1.2101  0.1304
 4878SOL     OW18421   1.684  10.207   4.055 -0.0795  0.1913  0.2572
 4878SOL    HW118422   1.759  10.266   4.045 -1.1612  1.5223 -0.2049
 4878SOL    HW218423   1.715  10.139   4.115  1.3213  1.0062  0.4951
 4879SOL     OW18424   3.353   9.843   8.824 -0.0545  0.1416  0.5520
 4879SOL    HW118425   3.397   9.823   8.907  1.2721  2.1286  0.4163
 4879SOL    HW218426   3.265   9.809   8.834 -0.0052  0.5553  2.8927
 4880SOL     OW18427   2.904   6.150   6.474  0.2453 -0.2957 -0.3685
 4880SOL    HW118428   2.991   6.111   6.484  0.7202  1.1755  1.9367
 4880SOL    HW218429   2.851   6.110   6.543 -0.3974  0.1421 -0.5988
 4881SOL     OW18430   3.653   8.242   2.852 -0.4050  0.3940  0.7092
 4881SOL    HW118431   3.708   8.320   2.853  0.3167  0.0159 -2.0014
 4881SOL    HW218432   3.566   8.273   2.826  0.3221  0.1780 -2.3172
 4882SOL     OW18433   1.122   8.267   4.559 -0.2957 -0.3606  0.4939
 4882SOL    HW118434   1.128   8.231   4.648  0.2555  1.1531  1.1188
 4882SOL    HW218435   1.028   8.275   4.543 -0.4435 -2.3735  0.1674
 4883SOL     OW18436   3.390   2.366   4.231 -0.3943  0.3536  0.1536
 4883SOL    HW118437   3.406   2.456   4.203 -0.2453  0.1146 -0.5325
 4883SOL    HW218438   3.477   2.328   4.241 -0.3957  0.7491  2.0258
 4884SOL     OW18439   1.842   0.649   6.228  0.6179 -0.0046 -0.5937
 4884SOL    HW118440   1.878   0.706   6.160  1.4815  0.3407  0.1353
 4884SOL    HW218441   1.868   0.690   6.310 -1.3652  0.1885 -0.0100
 4885SOL     OW18442   6.678   1.188   5.522  0.2558 -0.3221  0.3377
 4885SOL    HW118443   6.697   1.225   5.608  0.4899  1.2765 -0.3734
 4885SOL    HW218444   6.584   1.166   5.525  0.2291 -0.1298  0.9344
 4886SOL     OW18445   2.930   0.934   9.075 -0.4820  0.8062 -0.7310
 4886SOL    HW118446   2.925   0.843   9.106 -0.3545  0.5993 -1.3192
 4886SOL    HW218447   2.964   0.928   8.986  0.9807  1.5261 -0.2496
 4887SOL     OW18448   9.393   8.646   5.455 -0.4184 -0.0089  0.3585
 4887SOL    HW118449   9.297   8.643   5.445 -0.3359 -0.2343 -0.4302
 4887SOL    HW218450   9.409   8.608   5.541 -1.0137 -0.4060  0.3012
 4888SOL     OW18451   2.792   0.494   7.916 -0.3073 -0.2248 -0.1641
 4888SOL    HW118452   2.763   0.541   7.837 -1.4412  0.2445  0.5055
 4888SOL    HW218453   2.792   0.561   7.985  0.4157 -0.6909  0.2932
 4889SOL     OW18454   8.116   1.986   3.236  0.0819  0.2587  0.6469
 4889SOL    HW118455   8.112   1.974   3.331 -0.9816 -1.4310  0.4300
 4889SOL    HW218456   8.026   2.003   3.210  0.5410  1.8936  0.0508
 4890SOL     OW18457   3.694   4.445   8.494 -0.0198 -0.1818  0.4576
 4890SOL    HW118458   3.723   4.535   8.510 -1.0433  0.1602  0.4375
 4890SOL    HW218459   3.656   4.447   8.406  0.2496 -0.7151  0.3241
 4891SOL     OW18460   5.401   4.070   3.021  0.4431  0.1243 -0.5325
 4891SOL    HW118461   5.319   4.030   3.048  0.0872  1.1037 -0.1228
 4891SOL    HW218462   5.385   4.100   2.931  0.4396  0.1035 -0.5391
 4892SOL     OW18463   9.327   2.101   0.501 -0.4963  0.0970 -0.0831
 4892SOL    HW118464   9.339   2.171   0.565  0.2927 -1.0454  1.0827
 4892SOL    HW218465   9.332   2.020   0.553  0.7421 -0.8990 -1.6423
 4893SOL     OW18466   1.127   0.998   3.246 -0.3755 -0.6802 -0.0009
 4893SOL    HW118467   1.105   1.091   3.238 -0.9930 -0.6913  1.3267
 4893SOL    HW218468   1.183   0.980   3.170 -1.9969  0.2216 -1.4802
 4894SOL     OW18469   2.271   2.674   6.248  0.4287 -0.5312 -0.7424
 4894SOL    HW118470   2.285   2.625   6.167  0.9856  1.2854 -1.7908
 4894SOL    HW218471   2.264   2.765   6.220  1.0565  0.1942  1.2990
 4895SOL     OW18472   5.986   2.125   1.689  0.2380  0.8258  0.2061
 4895SOL    HW118473   5.929   2.200   1.708  0.4083  0.9945  0.0501
 4895SOL    HW218474   5.973   2.108   1.596 -2.7810 -1.7774  0.9084
 4896SOL     OW18475   7.812   5.296   4.795 -0.1452 -0.0884  0.4435
 4896SOL    HW118476   7.807   5.301   4.891 -1.9577  1.5633  0.3204
 4896SOL    HW218477   7.757   5.220   4.773 -0.7829  0.3028  0.6615
 4897SOL     OW18478   2.526   0.083   5.965  0.1132 -0.0009 -0.4378
 4897SOL    HW118479   2.595   0.042   6.017  0.3177  1.2603  0.3335
 4897SOL    HW218480   2.566   0.097   5.879 -0.4193 -2.6406 -1.1919
 4898SOL     OW18481   1.790   1.173   3.494  0.1256 -0.0651  0.0476
 4898SOL    HW118482   1.793   1.236   3.566  2.1987  0.2243 -0.2549
 4898SOL    HW218483   1.861   1.112   3.511  1.2746  0.5557 -2.2125
 4899SOL     OW18484   2.047   3.927   2.357  0.3571  0.5553 -0.5716
 4899SOL    HW118485   2.038   4.009   2.308 -1.4821 -0.3097 -1.8203
 4899SOL    HW218486   1.999   3.863   2.305  1.0556 -1.1619  0.7819
 4900SOL     OW18487  10.354   5.174   1.712  0.5165 -0.2818  0.3235
 4900SOL    HW118488  10.302   5.125   1.776  1.1006 -1.6598 -0.2211
 4900SOL    HW218489  10.305   5.169   1.631 -0.4157  1.7975  0.6735
 4901SOL     OW18490   3.054   0.567   3.964 -0.0173  1.0020 -0.0354
 4901SOL    HW118491   2.985   0.633   3.971 -1.0478  0.1133 -1.1806
 4901SOL    HW218492   3.012   0.485   3.991  0.5640  0.4397 -0.7772
 4902SOL     OW18493   5.517   5.491   2.026 -0.0185  0.6624  0.2644
 4902SOL    HW118494   5.535   5.502   1.932  1.0756  2.1851  0.6083
 4902SOL    HW218495   5.525   5.397   2.041 -2.6922 -0.0019 -1.6089
 4903SOL     OW18496   2.866   0.116   2.527  0.5108  0.0252 -0.3597
 4903SOL    HW118497   2.887   0.207   2.546  2.0997 -0.5315  0.8411
 4903SOL    HW218498   2.921   0.095   2.451 -2.2883  0.9031 -2.8236
 4904SOL     OW18499   2.115   7.785   1.056  0.4884  0.9458 -0.2245
 4904SOL    HW118500   2.138   7.712   0.999  1.2087  1.8552 -1.1224
 4904SOL    HW218501   2.198   7.814   1.094 -0.0507 -0.1291  1.9540
 4905SOL     OW18502   2.374   5.807   1.144  0.2146  0.2681 -0.2270
 4905SOL    HW118503   2.453   5.762   1.174  1.6096  1.6094 -1.7079
 4905SOL    HW218504   2.329   5.832   1.224  0.3790 -1.9893  0.6493
 4906SOL     OW18505   0.454   7.926   5.416 -0.2840  0.3074 -0.2838
 4906SOL    HW118506   0.485   7.854   5.471 -0.4863 -0.1370 -0.7413
 4906SOL    HW218507   0.446   7.888   5.328 -0.6492  0.8175 -0.4798
 4907SOL     OW18508   8.320   8.701   4.272  0.3373 -0.0627  0.0210
 4907SOL    HW118509   8.231   8.674   4.294  0.7786 -1.8931 -0.2754
 4907SOL    HW218510   8.322   8.700   4.176  1.0501 -1.4635  0.0260
 4908SOL     OW18511   7.759   4.755   2.270 -0.1454  0.0007  0.1161
 4908SOL    HW118512   7.815   4.692   2.224  0.6193  1.3456 -0.8823
 4908SOL    HW218513   7.713   4.801   2.200  0.5684  1.6574  0.6837
 4909SOL     OW18514  10.359   6.519  10.072 -0.1217  0.1487  0.2620
 4909SOL    HW118515  10.314   6.535  10.155 -0.8236 -0.4611  0.0114
 4909SOL    HW218516  10.357   6.603  10.027 -2.6552 -0.2349 -0.5166
 4910SOL     OW18517   5.708   0.976   8.177 -0.5182  0.0280  0.0565
 4910SOL    HW118518   5.748   0.918   8.241  0.7121 -0.5368 -1.1685
 4910SOL    HW218519   5.616   0.983   8.205 -0.2394 -0.9469  1.3124
 4911SOL     OW18520   9.060   8.423   6.353  0.6058 -0.3360  0.1202
 4911SOL    HW118521   8.974   8.464   6.354  0.6534 -0.2279  0.8354
 4911SOL    HW218522   9.103   8.456   6.432  1.5285  0.0779 -0.5369
 4912SOL     OW18523   4.263   0.362   5.270 -0.8394  0.0646  0.6769
 4912SOL    HW118524   4.177   0.363   5.227 -0.5919  2.0074  0.1347
 4912SOL    HW218525   4.255   0.426   5.340 -0.0483 -0.2870  1.0994
 4913SOL     OW18526   4.744   3.937   1.748 -0.6913  0.5853 -0.1430
 4913SOL    HW118527   4.789   3.877   1.808  0.9165  1.3378 -0.5394
 4913SOL    HW218528   4.679   3.981   1.803 -0.8489 -0.4094  0.4949
 4914SOL     OW18529   2.943   4.338   5.414  0.2148 -0.0246  0.0277
 4914SOL    HW118530   2.959   4.430   5.433  4.5514  0.2903 -3.4456
 4914SOL    HW218531   3.004   4.290   5.470 -0.8926 -0.7040  0.6907
 4915SOL     OW18532   7.211   8.121   2.505 -0.4258  0.2671  0.0924
 4915SOL    HW118533   7.233   8.105   2.413  0.9262 -0.7645  0.5485
 4915SOL    HW218534   7.123   8.086   2.516 -1.7192  2.7994 -1.3863
 4916SOL     OW18535   4.462   9.275   1.991  0.6540  0.9704  0.2099
 4916SOL    HW118536   4.463   9.229   2.075  0.1316 -1.5695 -1.0680
 4916SOL    HW218537   4.369   9.288   1.971  0.7791  1.7410  0.1100
 4917SOL     OW18538   5.222   4.250   4.397  0.0726 -0.1278  0.0769
 4917SOL    HW118539   5.181   4.165   4.384 -1.0516  0.5406 -1.0840
 4917SOL    HW218540   5.219   4.265   4.491  0.8855 -1.6351  0.3668
 4918SOL     OW18541   1.352   2.929   2.559 -0.0578 -0.0883 -0.3291
 4918SOL    HW118542   1.334   2.845   2.600  0.0632  0.5858  1.1757
 4918SOL    HW218543   1.274   2.947   2.507  0.2765 -1.5078 -1.3876
 4919SOL     OW18544   6.554   5.508   8.178  0.3038 -0.1474  0.1845
 4919SOL    HW118545   6.490   5.460   8.125  0.0918 -0.1905  0.4800
 4919SOL    HW218546   6.512   5.593   8.194  0.0827 -0.3808  0.8547
 4920SOL     OW18547   4.871   5.727   6.402 -0.4294  0.0547  0.4761
 4920SOL    HW118548   4.870   5.641   6.359 -0.3648 -0.5011  1.5358
 4920SOL    HW218549   4.933   5.779   6.350  0.4120 -0.9044  0.4675
 4921SOL     OW18550   0.396   7.543   4.627  0.0441 -0.1109  0.0666
 4921SOL    HW118551   0.484   7.518   4.653  0.7719 -0.4485 -2.4374
 4921SOL    HW218552   0.339   7.476   4.664  1.1688 -1.3835 -0.4375
 4922SOL     OW18553   2.278   8.904   5.735  0.0125  0.2049  0.2979
 4922SOL    HW118554   2.320   8.871   5.815 -0.1167 -0.1331  0.2294
 4922SOL    HW218555   2.186   8.913   5.758 -0.1001 -0.3039  0.0636
 4923SOL     OW18556   9.824   4.770   9.061  0.1874  0.3029  0.7748
 4923SOL    HW118557   9.804   4.851   9.015  2.5403  0.1237 -0.7199
 4923SOL    HW218558   9.768   4.704   9.018  0.6841  0.5606 -0.3067
 4924SOL     OW18559   4.941   5.277  10.098 -0.4312 -0.6520  0.1482
 4924SOL    HW118560   4.933   5.223  10.178 -0.9374 -0.5984  0.1415
 4924SOL    HW218561   4.999   5.348  10.123  0.2431 -1.1946  0.1609
 4925SOL     OW18562   8.077   0.193   6.041 -0.1065 -0.7753  0.2293
 4925SOL    HW118563   8.068   0.286   6.020  2.8415 -0.6829 -1.1276
 4925SOL    HW218564   8.082   0.191   6.136 -2.2125  0.1556  0.4250
 4926SOL     OW18565   7.512   9.779   0.453  0.5082 -0.5032  0.0563
 4926SOL    HW118566   7.430   9.829   0.450 -0.0850 -1.4109  0.5471
 4926SOL    HW218567   7.575   9.833   0.405 -0.0104  0.8673  0.8489
 4927SOL     OW18568   0.068   5.466   1.654  0.1085 -0.3948 -0.2835
 4927SOL    HW118569  -0.004   5.423   1.698  0.6976 -1.3929 -0.2763
 4927SOL    HW218570   0.130   5.396   1.634  0.6504  0.3023 -1.1238
 4928SOL     OW18571   6.390   2.720   9.549 -0.0103  0.6249 -0.3679
 4928SOL    HW118572   6.425   2.646   9.500 -0.6640 -0.5012  0.7878
 4928SOL    HW218573   6.456   2.789   9.540  0.8428 -0.2591 -1.0697
 4929SOL     OW18574   0.349   3.198   0.375  0.2586 -0.0127 -0.1653
 4929SOL    HW118575   0.275   3.157   0.420  1.2285 -0.3907  1.1411
 4929SOL    HW218576   0.357   3.149   0.293 -1.2634  0.3913 -0.5885
 4930SOL     OW18577   9.026   8.936   6.423 -0.3335 -0.1297  0.5393
 4930SOL    HW118578   9.088   9.002   6.393 -0.1069 -0.3865  0.4422
 4930SOL    HW218579   8.987   8.973   6.502  1.0319 -0.6126  1.4598
 4931SOL     OW18580   4.389   6.358   7.502 -0.2187  0.3398 -0.0044
 4931SOL    HW118581   4.336   6.279   7.494 -0.7936  0.5494  1.3360
 4931SOL    HW218582   4.479   6.328   7.494 -0.3452 -0.7194  1.9151
 4932SOL     OW18583   2.686   0.901   6.032 -0.5584 -0.2077  0.1214
 4932SOL    HW118584   2.708   0.971   6.093  0.2948  1.8599 -2.3824
 4932SOL    HW218585   2.771   0.864   6.007 -0.8002 -0.2054 -0.7140
 4933SOL     OW18586   2.701   6.109   5.658 -0.1156  0.2104  0.1270
 4933SOL    HW118587   2.699   6.102   5.562 -1.0655 -0.2082  0.1648
 4933SOL    HW218588   2.721   6.201   5.674  0.6684  0.1530 -0.4678
 4934SOL     OW18589   5.608   7.730   0.169  0.3355 -0.4113  0.1999
 4934SOL    HW118590   5.635   7.819   0.147  0.6817 -0.6509 -0.4034
 4934SOL    HW218591   5.535   7.740   0.230  1.6904  0.2656  1.7770
 4935SOL     OW18592   3.294   1.633   6.165  0.6809  0.5302  0.1805
 4935SOL    HW118593   3.202   1.635   6.141  0.3618  0.7609  1.3647
 4935SOL    HW218594   3.328   1.719   6.140  0.7328  0.2333 -0.8053
 4936SOL     OW18595   3.430   7.806   1.254  0.3593 -0.0601  0.0106
 4936SOL    HW118596   3.452   7.879   1.195  0.1395 -0.4933 -0.6149
 4936SOL    HW218597   3.430   7.846   1.341  0.2790  0.6867 -0.3159
 4937SOL     OW18598   1.910   8.458   7.448 -0.5763 -0.3956  0.1890
 4937SOL    HW118599   1.984   8.406   7.416  1.2124  0.2432  2.9181
 4937SOL    HW218600   1.885   8.415   7.530 -3.1679 -0.4612 -0.5688
 4938SOL     OW18601   3.020   8.632   4.231 -0.0350  0.4541 -0.2866
 4938SOL    HW118602   3.053   8.672   4.150  0.0070  0.4300 -0.2816
 4938SOL    HW218603   3.074   8.670   4.300 -0.5858  1.0634 -0.1886
 4939SOL     OW18604   3.751   8.394   5.840 -0.0047 -0.0665 -0.6877
 4939SOL    HW118605   3.793   8.332   5.899 -2.0060  0.4397  1.3944
 4939SOL    HW218606   3.712   8.339   5.771 -0.1849 -0.9700  0.1149
 4940SOL     OW18607   0.574   3.304   2.703 -0.5281  0.2323  0.3594
 4940SOL    HW118608   0.563   3.317   2.798  0.0685  0.2823  0.4277
 4940SOL    HW218609   0.664   3.272   2.694 -0.4658  0.5670 -0.2211
 4941SOL     OW18610   7.600   2.229   1.673  0.7387 -0.4671 -0.2421
 4941SOL    HW118611   7.517   2.182   1.671  0.3362  0.1710  0.6698
 4941SOL    HW218612   7.645   2.203   1.593 -0.4195 -0.6711 -0.8340
 4942SOL     OW18613   1.029   9.671   4.886 -0.4143  0.5317  0.4449
 4942SOL    HW118614   1.001   9.708   4.969  1.3783  0.9166  0.9245
 4942SOL    HW218615   1.123   9.655   4.897 -0.5108 -1.2528 -0.8336
 4943SOL     OW18616   4.265   2.580   6.633  0.0988  0.4453 -0.2967
 4943SOL    HW118617   4.335   2.577   6.698 -1.0638  1.4587  1.0606
 4943SOL    HW218618   4.310   2.565   6.550  1.3019 -4.0784  0.8516
 4944SOL     OW18619   9.760   9.255   1.485  0.5906  0.1412  0.3595
 4944SOL    HW118620   9.772   9.315   1.559  0.6775  0.1148  0.3670
 4944SOL    HW218621   9.695   9.192   1.515 -0.4007  0.9220 -0.0563
 4945SOL     OW18622   8.449   3.510   1.427 -0.0146 -0.1139 -0.0820
 4945SOL    HW118623   8.455   3.474   1.515 -0.7902 -2.1598 -0.8085
 4945SOL    HW218624   8.418   3.600   1.440  1.2045  0.0857  1.7634
 4946SOL     OW18625   5.228   7.408   0.473 -0.0168 -0.1446 -0.0755
 4946SOL    HW118626   5.145   7.395   0.518 -0.0407  0.1972 -0.0181
 4946SOL    HW218627   5.277   7.469   0.528  0.7789 -1.2846  0.5360
 4947SOL     OW18628   1.308   2.804   4.470 -0.0900  0.1556 -0.1311
 4947SOL    HW118629   1.294   2.899   4.467 -0.0403  0.2227  1.1571
 4947SOL    HW218630   1.230   2.769   4.513  0.7701 -0.1528  1.2365
 4948SOL     OW18631   7.727   2.805   3.915 -0.1325 -0.1251 -0.1355
 4948SOL    HW118632   7.667   2.732   3.900 -1.4738  0.9013  0.0859
 4948SOL    HW218633   7.702   2.841   4.000  0.9435  0.2006  0.0664
 4949SOL     OW18634   6.292   3.760   2.704  0.6055  0.0792  0.2983
 4949SOL    HW118635   6.217   3.762   2.762 -0.1543 -1.2595 -0.6104
 4949SOL    HW218636   6.331   3.674   2.716  0.7102 -0.0460 -0.8354
 4950SOL     OW18637   3.389   8.553   3.303  0.6041  0.0116  0.3484
 4950SOL    HW118638   3.335   8.628   3.281  2.4956  1.3720  0.0768
 4950SOL    HW218639   3.467   8.590   3.345  1.1225 -1.8793  1.2138
 4951SOL     OW18640   8.896   5.033   7.278  0.0392 -0.0425  0.5962
 4951SOL    HW118641   8.863   4.976   7.348 -3.2922  0.1282 -0.6572
 4951SOL    HW218642   8.916   4.973   7.206  0.4952  0.0406  0.6525
 4952SOL     OW18643   9.751   4.334   9.723  0.6834  0.0640  0.1582
 4952SOL    HW118644   9.676   4.296   9.770  0.9657  0.4164  0.8968
 4952SOL    HW218645   9.827   4.314   9.777  0.7759  2.2165  0.9122
 4953SOL     OW18646  10.224   8.401   2.746  0.2353 -0.8761 -0.2377
 4953SOL    HW118647  10.199   8.321   2.791  0.4499 -1.3314 -0.9177
 4953SOL    HW218648  10.276   8.449   2.810  3.3179 -2.9681 -0.9617
 4954SOL     OW18649   2.037   0.494   1.846  0.0592  0.1181 -0.3065
 4954SOL    HW118650   2.006   0.408   1.819 -0.5850 -0.1328  1.1344
 4954SOL    HW218651   1.990   0.556   1.791 -1.4149 -0.3571  0.3904
 4955SOL     OW18652   8.864   5.823   6.371 -0.1164  0.0464  0.0728
 4955SOL    HW118653   8.831   5.748   6.322  0.9867 -0.0279 -0.5798
 4955SOL    HW218654   8.941   5.790   6.417  0.1531  0.6823  0.0918
 4956SOL     OW18655   2.464   9.554   9.810  0.0986  0.1795  0.0524
 4956SOL    HW118656   2.393   9.493   9.827  0.7340  0.0774  2.7000
 4956SOL    HW218657   2.445   9.590   9.723 -2.1522 -1.1808 -0.0768
 4957SOL     OW18658   1.120   0.248   1.689  0.0723  0.2849  0.6116
 4957SOL    HW118659   1.038   0.233   1.736 -0.8082  0.6572 -0.7434
 4957SOL    HW218660   1.114   0.194   1.611 -0.5354  2.9608 -1.3473
 4958SOL     OW18661   9.032   0.032   3.620 -0.1222  0.0177  0.2738
 4958SOL    HW118662   9.014   0.122   3.648 -3.2513 -0.1427 -0.8056
 4958SOL    HW218663   9.029   0.036   3.524 -1.0285 -1.3171  0.2154
 4959SOL     OW18664   3.674   5.496   5.350  0.1562 -0.0570  0.0412
 4959SOL    HW118665   3.622   5.435   5.298  0.8399 -1.8417  1.3396
 4959SOL    HW218666   3.620   5.575   5.356 -1.0173 -0.7306 -1.2183
 4960SOL     OW18667   1.343   1.688   1.148  1.0706 -0.1952 -0.7119
 4960SOL    HW118668   1.395   1.649   1.218  0.4574  0.9279  0.4077
 4960SOL    HW218669   1.284   1.618   1.121  0.8450 -0.4658  0.3989
 4961SOL     OW18670   4.833   7.167   2.687 -0.3104 -0.2535 -0.2735
 4961SOL    HW118671   4.806   7.105   2.619 -0.7960  0.7707 -1.0458
 4961SOL    HW218672   4.860   7.112   2.760 -1.2645 -1.3756 -0.7308
 4962SOL     OW18673   8.871   3.110   3.099  0.0728  0.3114  0.4122
 4962SOL    HW118674   8.898   3.044   3.035 -1.1249  0.0671  0.1243
 4962SOL    HW218675   8.905   3.192   3.064 -2.3919  0.5462 -1.8006
 4963SOL     OW18676   6.965   3.870   8.276 -0.1497 -0.7464  0.2458
 4963SOL    HW118677   7.058   3.875   8.257  0.3587  0.7339  2.7158
 4963SOL    HW218678   6.929   3.954   8.244 -0.2319 -0.4566  1.0689
 4964SOL     OW18679   5.933   2.252   0.704 -0.0354  0.1519 -0.6855
 4964SOL    HW118680   5.995   2.269   0.775  1.8214 -2.1329 -1.6113
 4964SOL    HW218681   5.950   2.322   0.640  1.1851 -0.0656 -0.6300
 4965SOL     OW18682   9.133   6.089   1.703  0.4962  0.5407  0.3375
 4965SOL    HW118683   9.182   6.025   1.651  1.3124  2.2058 -1.0457
 4965SOL    HW218684   9.145   6.060   1.794  0.2804 -1.6042 -0.2736
 4966SOL     OW18685   7.198   4.549   5.531 -0.3409  0.1906 -0.7030
 4966SOL    HW118686   7.161   4.632   5.501 -1.8331  0.2871  1.2504
 4966SOL    HW218687   7.152   4.482   5.482 -0.5929  0.4406 -0.8059
 4967SOL     OW18688   9.568   9.486   5.704  0.0227 -0.1998 -0.4579
 4967SOL    HW118689   9.640   9.443   5.750  1.1152  2.0990  0.0944
 4967SOL    HW218690   9.557   9.435   5.623  1.3297 -1.3931  0.0778
 4968SOL     OW18691   0.890   9.474   6.398 -0.3143  0.0694  0.0129
 4968SOL    HW118692   0.943   9.394   6.405 -0.1090  0.2443  0.5073
 4968SOL    HW218693   0.871   9.498   6.489 -1.6964 -0.2755 -0.1565
 4969SOL     OW18694   6.029   5.613   5.300  0.0389 -0.2574  0.7788
 4969SOL    HW118695   5.936   5.605   5.280  0.2846  0.4747 -0.7912
 4969SOL    HW218696   6.067   5.654   5.222  1.9747 -2.1633  0.6338
 4970SOL     OW18697   0.949   8.027   4.900 -0.3056  0.1987 -0.6392
 4970SOL    HW118698   0.896   8.091   4.947 -0.7827 -0.2883 -0.5096
 4970SOL    HW218699   0.899   7.945   4.905  1.2275 -0.7041  0.9442
 4971SOL     OW18700  10.277   2.527   3.973  0.6525 -0.3778  0.1787
 4971SOL    HW118701  10.333   2.518   4.050 -0.0571 -0.0143  0.7496
 4971SOL    HW218702  10.300   2.453   3.917  2.4126  0.3028 -0.0656
 4972SOL     OW18703   1.240   7.449   4.194 -0.3724 -0.7493 -0.2080
 4972SOL    HW118704   1.293   7.494   4.128 -2.3773  3.1327  0.5556
 4972SOL    HW218705   1.151   7.451   4.159 -0.8375 -2.7119  0.7041
 4973SOL     OW18706   7.168   1.465   6.292 -0.2009  0.1014  0.6675
 4973SOL    HW118707   7.137   1.534   6.350 -1.0987  1.0830 -0.9201
 4973SOL    HW218708   7.089   1.418   6.266 -0.1492  1.1380 -1.5513
 4974SOL     OW18709   7.556   5.462   0.054 -0.2653 -0.0790 -0.3750
 4974SOL    HW118710   7.643   5.459   0.095  0.1473  2.8796 -0.8015
 4974SOL    HW218711   7.545   5.375   0.017  2.3673 -0.6912  0.0261
 4975SOL     OW18712  10.080   4.566  10.077 -0.0541 -0.0836  0.2734
 4975SOL    HW118713   9.986   4.547  10.077 -0.4648  1.7172 -0.9848
 4975SOL    HW218714  10.086   4.661  10.089  1.6200 -0.1805  0.4961
 4976SOL     OW18715   0.314   9.256   9.916 -0.0549  0.2298 -0.2709
 4976SOL    HW118716   0.397   9.274   9.959  0.4772 -0.0872 -1.1277
 4976SOL    HW218717   0.266   9.339   9.918 -0.3729  0.0274  1.5926
 4977SOL     OW18718   3.852   6.894   2.351 -0.0256 -0.0142 -0.3297
 4977SOL    HW118719   3.818   6.849   2.428  0.7147 -1.8546 -1.0035
 4977SOL    HW218720   3.833   6.834   2.278 -0.6592  1.6443 -1.5876
 4978SOL     OW18721   3.232   5.656   7.014  0.1363 -0.1729  0.1534
 4978SOL    HW118722   3.224   5.637   6.920 -0.6740 -2.7821  0.6383
 4978SOL    HW218723   3.147   5.694   7.037 -0.0956 -0.5899  0.0113
 4979SOL     OW18724   4.937   2.161   1.902  0.1158  0.3635  0.3227
 4979SOL    HW118725   4.928   2.249   1.938 -0.3096 -0.0765  1.3208
 4979SOL    HW218726   4.905   2.169   1.812 -3.6327  0.4363  1.4962
 4980SOL     OW18727   8.735   6.323   7.883 -0.3831  1.0574 -0.1262
 4980SOL    HW118728   8.777   6.266   7.818 -1.4007  2.4927 -2.1643
 4980SOL    HW218729   8.805   6.378   7.916  0.6003 -1.1914  1.8043
 4981SOL     OW18730   7.074   5.355   0.683 -0.4891  0.2851  0.1037
 4981SOL    HW118731   6.991   5.370   0.637  0.6390  2.3692 -1.4816
 4981SOL    HW218732   7.130   5.315   0.617  0.2489  0.4572  0.6192
 4982SOL     OW18733   9.884   4.321   4.839 -0.4354 -0.5898  0.2868
 4982SOL    HW118734   9.860   4.322   4.747 -0.6014 -2.0049  0.2894
 4982SOL    HW218735   9.815   4.370   4.883  1.6892  3.7492 -0.7038
 4983SOL     OW18736  10.092   8.378   7.281  0.0756  0.2767 -0.1845
 4983SOL    HW118737  10.044   8.304   7.243  0.1939 -0.7424  1.5215
 4983SOL    HW218738  10.184   8.358   7.264  0.0313  1.0106 -1.3618
 4984SOL     OW18739   8.236   6.530   8.313 -0.0445  0.3450  0.2079
 4984SOL    HW118740   8.239   6.529   8.217 -0.3138  1.5549  0.1761
 4984SOL    HW218741   8.301   6.465   8.339  1.2014  1.1398 -0.7883
 4985SOL     OW18742   3.490   5.826   9.514 -0.2078 -0.0895 -0.1879
 4985SOL    HW118743   3.481   5.823   9.610  1.7342 -0.3400  0.0300
 4985SOL    HW218744   3.579   5.857   9.500  0.2807 -2.0433 -1.8825
 4986SOL     OW18745   7.034   8.089  10.107  0.2182 -0.1671 -0.6360
 4986SOL    HW118746   7.046   8.152  10.036 -0.4449 -0.0122 -0.6168
 4986SOL    HW218747   7.121   8.079  10.145  0.3580  0.6208 -0.7325
 4987SOL     OW18748   9.514  10.117   9.995 -0.6349  0.4744 -0.3001
 4987SOL    HW118749   9.591  10.175   9.995 -0.6888  0.5488  0.3606
 4987SOL    HW218750   9.460  10.150   9.923  0.4720 -0.2879 -1.5214
 4988SOL     OW18751   5.529   6.390   3.512  0.1633 -0.4093 -0.2276
 4988SOL    HW118752   5.489   6.376   3.426 -1.4299  0.6632  0.2958
 4988SOL    HW218753   5.567   6.305   3.535 -1.4175 -1.3569 -0.9751
 4989SOL     OW18754   9.570   8.911   8.124  0.3498 -0.1879 -0.4610
 4989SOL    HW118755   9.557   8.821   8.095  0.3362 -0.3852  0.1291
 4989SOL    HW218756   9.623   8.903   8.203 -1.8833  0.0806  1.1708
 4990SOL     OW18757   0.227   2.483   1.757 -0.3568  0.4564 -0.5093
 4990SOL    HW118758   0.272   2.415   1.808  2.3649  3.4959  1.5356
 4990SOL    HW218759   0.148   2.503   1.807 -0.1946  0.1125 -0.1084
 4991SOL     OW18760   3.757   8.845   8.729  0.2164 -0.1872  0.2847
 4991SOL    HW118761   3.721   8.757   8.718 -0.4945  0.2122 -0.7748
 4991SOL    HW218762   3.848   8.831   8.757  0.5640 -1.2864 -1.2851
 4992SOL     OW18763  10.010   8.902   6.071 -0.2000 -0.1955 -0.3132
 4992SOL    HW118764  10.060   8.965   6.019  0.4963  0.9564  1.6592
 4992SOL    HW218765  10.063   8.822   6.069  0.3958  0.1962 -0.3998
 4993SOL     OW18766   8.631   4.131   7.704  0.0320 -0.1539  0.2850
 4993SOL    HW118767   8.679   4.183   7.639  1.0746  0.2565  1.3435
 4993SOL    HW218768   8.676   4.047   7.705 -0.5183 -0.4584 -0.1232
 4994SOL     OW18769   8.266   7.898   1.957 -0.2697  0.3663  0.5626
 4994SOL    HW118770   8.255   7.967   2.022 -1.7172  0.0167  0.7165
 4994SOL    HW218771   8.275   7.944   1.873 -1.1805  0.7470  0.6687
 4995SOL     OW18772   3.507   0.221   6.260  0.0302  0.1305 -0.2879
 4995SOL    HW118773   3.564   0.182   6.326  0.2398 -1.4947 -1.3843
 4995SOL    HW218774   3.565   0.274   6.206  0.1074  0.3032 -0.0359
 4996SOL     OW18775   6.881   7.478   7.653 -0.1258 -0.3769 -0.2872
 4996SOL    HW118776   6.950   7.498   7.590 -0.6621  0.9754 -0.4838
 4996SOL    HW218777   6.914   7.403   7.702  0.4727 -1.2258 -1.9105
 4997SOL     OW18778   9.810   6.447   9.771  0.0216 -0.3270 -0.2270
 4997SOL    HW118779   9.798   6.385   9.843 -2.3060 -2.0617 -1.9619
 4997SOL    HW218780   9.730   6.499   9.770  1.2345  1.6970  0.1367
 4998SOL     OW18781  10.298   4.069   6.505  0.3924  0.2202  0.5787
 4998SOL    HW118782  10.378   4.117   6.481 -0.5676  1.0819 -1.0387
 4998SOL    HW218783  10.313   3.980   6.473 -0.5472  1.1514 -2.8598
 4999SOL     OW18784   9.382   5.089   4.693 -0.0255  0.4249 -0.1762
 4999SOL    HW118785   9.304   5.052   4.733  0.4892 -0.9544 -0.3702
 4999SOL    HW218786   9.420   5.146   4.761 -2.9889  4.0307 -1.2135
 5000SOL     OW18787   8.907   7.725   6.981 -0.1922  0.2167  0.1648
 5000SOL    HW118788   8.852   7.647   6.993 -1.4680  0.9181 -0.8935
 5000SOL    HW218789   8.899   7.746   6.888  0.2905  1.4901  0.3973
 5001SOL     OW18790   6.857   1.612   7.895  0.1764 -0.0979  0.4411
 5001SOL    HW118791   6.838   1.632   7.987 -0.2275  0.2885  0.2781
 5001SOL    HW218792   6.785   1.652   7.847 -1.6227 -3.3632  0.1743
 5002SOL     OW18793   7.324   7.149   1.232  1.1310  0.4168 -0.2198
 5002SOL    HW118794   7.244   7.157   1.179  1.5544  2.1199 -0.6482
 5002SOL    HW218795   7.382   7.095   1.178  0.9613  0.7667 -0.7595
 5003SOL     OW18796   9.803   7.133   7.385  0.6827 -0.5051 -0.2320
 5003SOL    HW118797   9.863   7.058   7.389  1.0746 -0.4604 -3.1869
 5003SOL    HW218798   9.850   7.199   7.335 -0.2556  1.2005  1.0118
 5004SOL     OW18799   4.784   3.571   3.225 -0.7026  0.7043  0.3966
 5004SOL    HW118800   4.776   3.482   3.260  1.1769  0.2296 -0.2725
 5004SOL    HW218801   4.859   3.608   3.271  0.3190  0.9184 -1.3707
 5005SOL     OW18802   1.027   9.179   2.480  0.1414 -0.2469  0.4006
 5005SOL    HW118803   1.028   9.083   2.481  0.3850 -0.2524  1.2506
 5005SOL    HW218804   0.957   9.203   2.542  0.7796  0.1096  1.0062
 5006SOL     OW18805   8.300   9.105   9.972  0.3677 -0.3379  0.5384
 5006SOL    HW118806   8.300   9.010   9.959  1.8815 -0.4124  0.8636
 5006SOL    HW218807   8.271   9.140   9.888  0.2404 -1.0766  0.2635
 5007SOL     OW18808   2.263   9.988  10.095  0.3665 -0.3048  0.4381
 5007SOL    HW118809   2.265   9.969  10.189  3.0195  0.9798  0.7389
 5007SOL    HW218810   2.258  10.083  10.089 -4.5540 -0.3460 -0.9299
 5008SOL     OW18811   3.671   5.764   5.517  0.6102 -0.2195 -0.3990
 5008SOL    HW118812   3.663   5.682   5.566  0.2077  1.2931  2.2339
 5008SOL    HW218813   3.761   5.794   5.535  1.8962 -1.4781 -3.8854
 5009SOL     OW18814   8.814   3.218   5.955 -0.9577 -0.2327 -0.7431
 5009SOL    HW118815   8.737   3.200   5.901 -0.5727 -0.0948 -1.3414
 5009SOL    HW218816   8.882   3.242   5.893 -0.1382 -1.3175 -0.2881
 5010SOL     OW18817   8.158   3.320   8.041 -0.3015  0.4934  0.3401
 5010SOL    HW118818   8.191   3.233   8.059 -1.3718  0.2970  1.4723
 5010SOL    HW218819   8.144   3.321   7.946  0.0368 -0.4391  0.2701
 5011SOL     OW18820   4.907   8.381   3.240  0.1579  0.2790  0.3176
 5011SOL    HW118821   4.901   8.477   3.239  0.6073  0.3233 -1.6294
 5011SOL    HW218822   4.957   8.359   3.162 -0.1097 -1.5716  0.6156
 5012SOL     OW18823   9.950   3.819   2.386 -0.3067 -0.4464  0.0951
 5012SOL    HW118824  10.043   3.830   2.364 -0.0814  0.5946  1.4712
 5012SOL    HW218825   9.942   3.727   2.410  0.5827 -0.3524  0.8281
 5013SOL     OW18826   3.393   0.685   4.347 -0.5617 -0.2500 -1.0225
 5013SOL    HW118827   3.319   0.658   4.402 -0.8190 -0.2279 -1.3605
 5013SOL    HW218828   3.396   0.622   4.276 -0.0378 -0.4559 -0.8280
 5014SOL     OW18829   2.916   6.959   2.131 -0.1910  0.0555 -0.2179
 5014SOL    HW118830   2.955   7.013   2.062  2.1623 -0.8674  0.2740
 5014SOL    HW218831   2.893   6.877   2.086  0.2439 -0.1059 -0.1532
 5015SOL     OW18832   5.103   5.206   6.496 -0.6912 -0.0591  0.5993
 5015SOL    HW118833   5.136   5.235   6.411 -0.4813  1.8127  1.2754
 5015SOL    HW218834   5.083   5.114   6.483  1.5230 -0.4346 -0.8398
 5016SOL     OW18835   9.282   5.930   7.353  0.4270  0.1123  0.2810
 5016SOL    HW118836   9.263   5.891   7.438  0.8808  0.2682  0.4592
 5016SOL    HW218837   9.321   5.858   7.303 -0.5695 -0.1900 -0.0642
 5017SOL     OW18838   8.468   8.141  10.024  0.0976 -0.3504 -0.4808
 5017SOL    HW118839   8.443   8.163  10.113  1.3307  1.1140 -0.4342
 5017SOL    HW218840   8.391   8.100   9.986 -0.9858  0.4331  0.7828
 5018SOL     OW18841   6.902   2.005   5.597 -0.0788  0.7218 -0.6138
 5018SOL    HW118842   6.901   1.918   5.636  0.9390  1.6162  1.5538
 5018SOL    HW218843   6.813   2.038   5.611  0.0987  0.7863  0.4225
 5019SOL     OW18844   3.680   7.626   9.733  0.0916  0.5353 -0.1138
 5019SOL    HW118845   3.603   7.570   9.745  0.4764 -0.1173 -0.6060
 5019SOL    HW218846   3.646   7.715   9.731 -0.5900  0.2838  0.1920
 5020SOL     OW18847   7.241   5.778   3.102  0.1693  0.4885 -0.3775
 5020SOL    HW118848   7.164   5.818   3.060  0.1924  1.1657  0.2044
 5020SOL    HW218849   7.280   5.849   3.153  0.6826 -0.0778  0.0315
 5021SOL     OW18850   8.559   6.104   1.545  0.1035 -0.1851 -0.4871
 5021SOL    HW118851   8.557   6.027   1.488  2.4300 -0.6480 -0.0592
 5021SOL    HW218852   8.650   6.108   1.576 -0.8093  0.6280  2.3840
 5022SOL     OW18853   3.642  10.150   3.465 -0.0736  0.0727  0.0684
 5022SOL    HW118854   3.587  10.088   3.419  0.7821  0.4643 -1.5625
 5022SOL    HW218855   3.718  10.163   3.408  2.4278 -1.4359  2.7413
 5023SOL     OW18856   3.090   7.722   2.763 -0.5535 -0.4754 -0.4473
 5023SOL    HW118857   3.008   7.738   2.718 -0.6991  2.2516  0.5986
 5023SOL    HW218858   3.067   7.662   2.834 -1.2554 -1.1038 -1.1886
 5024SOL     OW18859   4.354   3.925   1.867  0.5398 -0.0591 -0.3054
 5024SOL    HW118860   4.375   3.964   1.782  1.3259  0.0735 -0.0577
 5024SOL    HW218861   4.363   3.831   1.853  1.3667 -0.0018 -0.1926
 5025SOL     OW18862   8.765   5.704   3.229  0.3397  0.4123  0.2299
 5025SOL    HW118863   8.836   5.753   3.270  0.3388  1.0975 -0.5699
 5025SOL    HW218864   8.809   5.649   3.164  0.2350  0.0562  0.4512
 5026SOL     OW18865   9.296   5.555   0.463 -0.1325 -0.3529  0.1936
 5026SOL    HW118866   9.326   5.625   0.520 -0.2706 -0.3316  0.2400
 5026SOL    HW218867   9.227   5.511   0.513  0.2701 -0.8101  0.3522
 5027SOL     OW18868   9.438   3.565   9.950 -0.1200  0.0179  0.0303
 5027SOL    HW118869   9.376   3.637   9.961 -0.8602 -0.7970  1.4696
 5027SOL    HW218870   9.405   3.496  10.009  0.3306 -1.6507 -1.5928
 5028SOL     OW18871   7.851   4.265   3.002 -0.4360 -0.7131 -0.0470
 5028SOL    HW118872   7.900   4.285   3.082  1.0482  1.0879 -1.3532
 5028SOL    HW218873   7.759   4.272   3.029 -0.0249  2.5085  0.9781
 5029SOL     OW18874   4.711   1.680   5.817  0.4517  0.6414  0.0930
 5029SOL    HW118875   4.715   1.736   5.739  1.0380  0.3948 -0.0583
 5029SOL    HW218876   4.779   1.613   5.802  0.0681  0.1573  0.4764
 5030SOL     OW18877   3.083   4.857   2.533 -0.1780  0.1743  0.0701
 5030SOL    HW118878   3.027   4.900   2.467 -0.3713  2.4507  1.6112
 5030SOL    HW218879   3.168   4.847   2.490 -0.5953  0.5738 -0.8781
 5031SOL     OW18880   8.315   4.605   1.167  0.0142  0.3370 -0.1837
 5031SOL    HW118881   8.350   4.695   1.164  1.3858 -0.1945 -1.2789
 5031SOL    HW218882   8.352   4.569   1.248 -0.4233  0.7037  0.1853
 5032SOL     OW18883   3.825   0.968   4.457  0.3957 -0.6190  0.3528
 5032SOL    HW118884   3.831   1.053   4.414  1.0801 -1.1210 -0.5942
 5032SOL    HW218885   3.753   0.923   4.413  1.1081 -1.1410 -0.3040
 5033SOL     OW18886   3.548   4.403   1.407  0.6493  0.5791  0.7306
 5033SOL    HW118887   3.606   4.366   1.341 -1.6212 -0.6269 -0.7115
 5033SOL    HW218888   3.536   4.494   1.379 -0.1384  0.1343 -0.5135
 5034SOL     OW18889   3.248   0.971   3.500 -0.0808 -0.7856 -0.0405
 5034SOL    HW118890   3.296   0.889   3.506 -0.9492 -1.1887  3.1605
 5034SOL    HW218891   3.157   0.947   3.514 -0.6343  0.5035 -1.2051
 5035SOL     OW18892   7.689   7.065   3.106  0.0332  0.0120  0.0988
 5035SOL    HW118893   7.645   7.089   3.024 -0.3601  0.7883  0.5269
 5035SOL    HW218894   7.726   6.978   3.089 -0.1911  0.0913 -0.8429
 5036SOL     OW18895   2.148   7.181   4.976 -1.0673  0.4332  0.0209
 5036SOL    HW118896   2.128   7.250   4.913  0.0121  1.0653  0.3384
 5036SOL    HW218897   2.161   7.102   4.923 -0.0296  0.9859 -0.5833
 5037SOL     OW18898   4.042   1.999   6.038 -0.3813 -0.5260 -0.0112
 5037SOL    HW118899   4.098   2.022   6.112 -1.0309  3.1025 -0.4750
 5037SOL    HW218900   4.050   1.904   6.031  3.3982 -0.5304  1.7381
 5038SOL     OW18901  10.283   8.837   6.460 -0.3904 -0.2481 -0.3262
 5038SOL    HW118902  10.324   8.785   6.391 -0.1185  1.1972 -1.2733
 5038SOL    HW218903  10.238   8.907   6.415 -1.0448  0.1668  0.9168
 5039SOL     OW18904   2.000   5.946   6.002 -0.1633 -0.2857  0.1833
 5039SOL    HW118905   1.944   5.881   5.961 -0.0331  0.3223 -1.0206
 5039SOL    HW218906   2.056   5.977   5.931 -0.3465  1.2562  0.6713
 5040SOL     OW18907   5.983   5.384   0.682 -0.5899  0.5584  0.0681
 5040SOL    HW118908   5.993   5.330   0.604  0.5102  1.6874 -0.6039
 5040SOL    HW218909   5.997   5.474   0.651 -0.8199  1.0894  1.4375
 5041SOL     OW18910   1.020   3.603   4.936  0.0624  0.2386  0.4023
 5041SOL    HW118911   1.092   3.547   4.966 -0.0145 -0.5024 -0.7131
 5041SOL    HW218912   0.978   3.551   4.867 -0.6277  1.2769  0.0284
 5042SOL     OW18913   4.598   8.957   3.397  0.0896  0.2675  0.9381
 5042SOL    HW118914   4.561   8.889   3.341  0.0997 -0.1326  1.4068
 5042SOL    HW218915   4.561   9.039   3.363 -1.9390 -0.1764  1.9002
 5043SOL     OW18916   0.371  10.078   5.319 -0.2513 -0.3485 -0.2036
 5043SOL    HW118917   0.444  10.100   5.261  0.2320 -1.1451  0.0992
 5043SOL    HW218918   0.329  10.003   5.278 -1.8967  1.0514 -1.2222
 5044SOL     OW18919   3.362   8.128   3.721  0.3189 -0.6093  0.6035
 5044SOL    HW118920   3.435   8.085   3.676 -1.1453 -2.4494 -0.1605
 5044SOL    HW218921   3.347   8.073   3.798  1.2298  1.1375  2.1067
 5045SOL     OW18922   6.684   6.723   9.929 -0.2325  0.2445  0.2606
 5045SOL    HW118923   6.751   6.780   9.968 -0.8985  0.6301  0.8588
 5045SOL    HW218924   6.654   6.668  10.002  0.2806 -0.7711 -0.2699
 5046SOL     OW18925   0.384   7.719   0.495 -0.3533 -0.1620 -0.2907
 5046SOL    HW118926   0.469   7.757   0.477  0.7782 -2.0940  0.6606
 5046SOL    HW218927   0.385   7.633   0.452 -1.3311 -0.7137  0.7055
 5047SOL     OW18928   0.532   0.924   6.515 -0.7501  0.0169  0.7097
 5047SOL    HW118929   0.458   0.951   6.569  0.3037  0.3514  2.0579
 5047SOL    HW218930   0.539   0.830   6.530 -1.0837 -0.0672  0.3418
 5048SOL     OW18931  10.006   1.783   3.825  0.0159 -0.3130  0.3944
 5048SOL    HW118932   9.975   1.788   3.735 -0.3393 -0.8839  0.4769
 5048SOL    HW218933  10.037   1.871   3.845  2.1695 -0.6769 -0.9991
 5049SOL     OW18934   2.027   4.222   1.567 -0.7436 -0.2104 -0.8331
 5049SOL    HW118935   1.959   4.209   1.633  0.8597  1.9842  1.4084
 5049SOL    HW218936   2.109   4.208   1.614  0.5518  3.2857 -1.7387
 5050SOL     OW18937   5.888   9.512   1.601  0.3301 -0.2360  0.0235
 5050SOL    HW118938   5.824   9.451   1.566  1.5408 -1.0536 -0.8295
 5050SOL    HW218939   5.940   9.460   1.662  0.0134  0.4961  0.9411
 5051SOL     OW18940   2.823   0.086   2.821  0.4571 -1.1021 -0.5154
 5051SOL    HW118941   2.837   0.083   2.726 -1.0057 -1.3991 -0.7421
 5051SOL    HW218942   2.866   0.167   2.848  0.1387 -0.5558 -1.5747
 5052SOL     OW18943   5.728   6.843   4.046 -0.3184 -0.3528 -0.8059
 5052SOL    HW118944   5.796   6.906   4.067 -1.2209  0.2632  0.3877
 5052SOL    HW218945   5.775   6.760   4.033  0.6522  0.0413  0.0574
 5053SOL     OW18946   9.175   7.007   2.034 -0.1425 -0.0034 -0.2046
 5053SOL    HW118947   9.198   7.086   2.084  2.3121 -0.6110 -0.2589
 5053SOL    HW218948   9.191   7.032   1.942  1.0874 -0.6730 -0.1872
 5054SOL     OW18949   0.630   5.365   7.044  0.1341 -0.1082  0.2747
 5054SOL    HW118950   0.568   5.313   7.096 -0.2206  0.1234  0.0846
 5054SOL    HW218951   0.612   5.341   6.954  0.1047  0.1986  0.1984
 5055SOL     OW18952   6.488   5.366   3.703 -0.2454 -0.3840  0.0379
 5055SOL    HW118953   6.427   5.294   3.716 -0.7348  0.1381  0.7207
 5055SOL    HW218954   6.563   5.327   3.657 -1.1269 -1.0131 -0.8864
 5056SOL     OW18955   0.645  10.347   3.241  0.9278  0.0295 -0.2921
 5056SOL    HW118956   0.689  10.343   3.156  0.0259  2.0402 -0.9170
 5056SOL    HW218957   0.715  10.334   3.305  2.1364  1.3278 -1.2990
 5057SOL     OW18958   8.425   7.011   6.826 -0.0280  0.2256 -0.6564
 5057SOL    HW118959   8.410   7.078   6.760 -0.7406  0.5275 -0.1897
 5057SOL    HW218960   8.514   6.979   6.808 -0.3797 -0.0356 -2.0601
 5058SOL     OW18961   2.248   4.285  10.036  0.2773 -0.5003  0.5612
 5058SOL    HW118962   2.305   4.338  10.092 -2.0700  3.3782 -0.3602
 5058SOL    HW218963   2.257   4.324   9.949 -0.0404 -3.0694 -0.7279
 5059SOL     OW18964   5.522   6.245   2.095 -0.1504  0.1361  0.5622
 5059SOL    HW118965   5.458   6.204   2.036 -1.2437  0.5115  1.4533
 5059SOL    HW218966   5.504   6.338   2.090  0.1441  0.2238  1.0369
 5060SOL     OW18967   9.280   4.806   9.959 -0.8371 -0.2687 -0.5563
 5060SOL    HW118968   9.278   4.722  10.006 -1.6078 -0.1737 -0.4057
 5060SOL    HW218969   9.327   4.786   9.878  0.4149 -0.4590  0.1864
 5061SOL     OW18970   7.108   5.532   9.316 -0.6095 -0.0158  0.4881
 5061SOL    HW118971   7.109   5.509   9.223  0.2485  0.0739  0.4626
 5061SOL    HW218972   7.016   5.546   9.337 -0.9830 -1.5942  0.0413
 5062SOL     OW18973   0.785   3.568   7.897 -0.0496  0.0809 -0.5453
 5062SOL    HW118974   0.698   3.534   7.877 -0.5056 -0.1665  1.6828
 5062SOL    HW218975   0.770   3.641   7.957  1.2603  0.3999 -0.5610
 5063SOL     OW18976   0.742   5.585   9.816  0.1118 -0.0826 -0.5936
 5063SOL    HW118977   0.668   5.616   9.763 -0.8792 -1.1222  0.1260
 5063SOL    HW218978   0.735   5.633   9.898  0.2809 -0.1369 -0.5472
 5064SOL     OW18979   2.494   5.869   8.574 -0.3205 -0.2062 -0.3223
 5064SOL    HW118980   2.583   5.876   8.609 -1.2148 -0.6350  2.2476
 5064SOL    HW218981   2.474   5.775   8.580 -1.2044 -0.0094 -0.1724
 5065SOL     OW18982   2.362   9.717   8.791  0.1799 -0.4931 -0.1097
 5065SOL    HW118983   2.345   9.654   8.720 -0.0432 -0.9239  0.3186
 5065SOL    HW218984   2.452   9.698   8.817  0.2352 -0.3890 -0.2262
 5066SOL     OW18985   8.950   8.353   7.700 -0.0484 -0.2080 -0.5982
 5066SOL    HW118986   8.945   8.433   7.753  0.0924  0.7816 -2.0240
 5066SOL    HW218987   9.026   8.366   7.643 -0.2584 -1.1903 -1.1335
 5067SOL     OW18988   1.713   3.298   8.125  0.1500 -0.0462  0.1937
 5067SOL    HW118989   1.791   3.251   8.096  0.1283  0.3430 -0.5077
 5067SOL    HW218990   1.740   3.341   8.206  1.0444  1.0702 -0.6579
 5068SOL     OW18991   6.209   2.818   6.609  0.0617  0.6447 -0.1763
 5068SOL    HW118992   6.170   2.841   6.693 -0.2250  1.3861 -0.5001
 5068SOL    HW218993   6.188   2.892   6.552  1.1155  0.6086 -0.6286
 5069SOL     OW18994   4.891  10.058   3.116  0.2097  0.6320 -0.5019
 5069SOL    HW118995   4.895   9.968   3.148  0.9598  1.8947  3.4238
 5069SOL    HW218996   4.804  10.089   3.143  0.3549  1.4145 -0.9058
 5070SOL     OW18997   4.384   5.097   2.231  0.4991  0.4533  0.0586
 5070SOL    HW118998   4.373   5.168   2.167  0.7935 -0.7616 -1.3839
 5070SOL    HW218999   4.387   5.142   2.315  1.3894  2.2329 -0.8612
 5071SOL     OW19000   6.679   1.649   2.244  0.0685 -0.0039  0.1896
 5071SOL    HW119001   6.617   1.620   2.312  1.5784 -1.1786  1.1234
 5071SOL    HW219002   6.631   1.717   2.197 -1.5727 -0.1572  1.5081
 5072SOL     OW19003   7.300   3.593   7.470  0.2418 -0.1024 -0.1789
 5072SOL    HW119004   7.207   3.615   7.460  0.2566  0.0351 -0.0192
 5072SOL    HW219005   7.331   3.652   7.538  0.6689  0.5104 -0.8909
 5073SOL     OW19006   2.759   0.286   4.491  0.4069  0.1376 -0.2421
 5073SOL    HW119007   2.851   0.311   4.501  1.2931 -1.3170 -3.5263
 5073SOL    HW219008   2.755   0.194   4.517 -0.2403  0.2836  0.2217
 5074SOL     OW19009   8.193   5.884   6.026  0.5744 -0.1478  0.2917
 5074SOL    HW119010   8.289   5.892   6.027  0.5080  0.6870  0.7535
 5074SOL    HW219011   8.177   5.791   6.042  1.3191 -0.4083 -0.3979
 5075SOL     OW19012   0.481  10.342   9.485  0.2000 -0.0494  0.1226
 5075SOL    HW119013   0.519  10.305   9.564 -1.0145 -2.0324 -0.1261
 5075SOL    HW219014   0.408  10.396   9.516  0.8431  0.6593  0.4192
 5076SOL     OW19015   9.043   7.319   7.818 -0.1320  0.3882 -0.4770
 5076SOL    HW119016   9.032   7.342   7.911 -1.1367 -0.4707 -0.3628
 5076SOL    HW219017   9.136   7.333   7.801 -0.2877  2.4718  0.1149
 5077SOL     OW19018   6.977   5.732  10.349  0.2298  0.1533 -0.1684
 5077SOL    HW119019   6.909   5.693  10.404  0.1084 -0.7699 -0.9461
 5077SOL    HW219020   6.932   5.801  10.301  0.6989  2.1205  2.0709
 5078SOL     OW19021   9.178   5.720   2.418  0.0424 -0.3425  0.8656
 5078SOL    HW119022   9.254   5.713   2.360 -0.7230 -0.0479 -0.2024
 5078SOL    HW219023   9.200   5.792   2.478 -0.0365  0.8387 -0.4670
 5079SOL     OW19024   9.921   2.139   4.805 -0.2442 -0.3450  0.4033
 5079SOL    HW119025   9.890   2.150   4.715 -1.2051  1.2932  0.8899
 5079SOL    HW219026   9.991   2.075   4.798  2.1174  2.2129 -2.0784
 5080SOL     OW19027   7.346   2.741   1.902  0.2258  0.0849  0.3534
 5080SOL    HW119028   7.425   2.688   1.918  0.1902  0.0360  0.3659
 5080SOL    HW219029   7.277   2.698   1.952 -0.0790 -0.5536 -0.5848
 5081SOL     OW19030   8.724   7.086   4.312 -0.1430 -0.2679  0.5492
 5081SOL    HW119031   8.809   7.096   4.269  0.4781  0.2594  1.8414
 5081SOL    HW219032   8.736   7.126   4.398 -2.3239  1.7571  0.0055
 5082SOL     OW19033   2.282   4.105   8.119 -0.4561 -0.1280  0.3040
 5082SOL    HW119034   2.186   4.098   8.123 -0.3287 -1.8150  1.5029
 5082SOL    HW219035   2.310   4.031   8.065  0.2428 -0.9407  1.6989
 5083SOL     OW19036   9.448   1.603   7.484 -0.6826 -0.2492  0.4918
 5083SOL    HW119037   9.368   1.551   7.497 -0.3739 -0.5617  1.2172
 5083SOL    HW219038   9.431   1.684   7.534 -1.5367  0.7872 -1.3805
 5084SOL     OW19039   7.778   2.316   7.047  0.9731  0.7284  0.5330
 5084SOL    HW119040   7.746   2.227   7.064  1.0186  0.1197 -2.0718
 5084SOL    HW219041   7.869   2.315   7.075  1.5649 -0.7312 -1.2628
 5085SOL     OW19042   3.121   7.541   2.999 -0.3151 -0.3822  1.1328
 5085SOL    HW119043   3.173   7.494   2.934  1.1192  0.0176  1.9492
 5085SOL    HW219044   3.184   7.564   3.068 -1.1665  1.8939  1.2195
 5086SOL     OW19045   6.462   4.609   2.628 -0.1984 -0.0186  0.2434
 5086SOL    HW119046   6.497   4.591   2.541 -0.1277 -0.9947  0.4641
 5086SOL    HW219047   6.409   4.688   2.616 -0.7951 -0.5560 -0.8446
 5087SOL     OW19048   2.189   5.334   6.095  0.1907  0.0852 -0.0337
 5087SOL    HW119049   2.285   5.339   6.097  0.2487 -1.0334  0.2659
 5087SOL    HW219050   2.169   5.241   6.101 -0.8776  0.0983 -2.3589
 5088SOL     OW19051   2.762   1.627   7.891 -0.6451 -0.4411 -0.6276
 5088SOL    HW119052   2.787   1.535   7.898 -1.0178 -0.4120  3.0682
 5088SOL    HW219053   2.846   1.675   7.894 -0.5172 -0.6193 -1.2928
 5089SOL     OW19054   3.385   1.633   4.436 -0.2765 -0.0588  0.2813
 5089SOL    HW119055   3.388   1.556   4.379 -1.2044  0.7803 -0.9344
 5089SOL    HW219056   3.472   1.673   4.427  0.9757 -1.9778  2.4809
 5090SOL     OW19057   7.098  10.249   9.122 -0.4638  0.5948  0.1919
 5090SOL    HW119058   7.056  10.324   9.080 -0.5602  0.2047 -0.4232
 5090SOL    HW219059   7.187  10.248   9.087 -0.9747 -0.5980 -1.1877
 5091SOL     OW19060   4.056   6.953   9.678  0.7058 -0.0778  0.2109
 5091SOL    HW119061   4.034   6.887   9.744 -0.2319 -1.7200 -1.6300
 5091SOL    HW219062   4.008   7.031   9.705 -0.8516 -1.1472  0.7083
 5092SOL     OW19063   0.013   7.818   5.431  0.4852 -0.0230  0.4084
 5092SOL    HW119064  -0.044   7.824   5.508  0.9474 -0.7162  0.8139
 5092SOL    HW219065   0.019   7.908   5.399  1.7862  0.6525  2.2936
 5093SOL     OW19066   8.937   0.010   2.560 -0.0576 -0.2509  0.2501
 5093SOL    HW119067   8.872   0.077   2.538  0.4993  0.3346  0.3388
 5093SOL    HW219068   9.012   0.031   2.504  0.9536  0.5683  1.8478
 5094SOL     OW19069   2.082   8.727   1.742  0.4435 -0.2160 -0.4450
 5094SOL    HW119070   2.177   8.716   1.732  0.9400  2.8875 -0.1753
 5094SOL    HW219071   2.071   8.755   1.833 -0.6570  0.0030 -0.6337
 5095SOL     OW19072   0.662   8.193   6.168  0.3564  0.0896  0.3880
 5095SOL    HW119073   0.678   8.099   6.168  1.5748  0.2794  0.4973
 5095SOL    HW219074   0.583   8.204   6.219 -0.6200 -0.9939 -0.8233
 5096SOL     OW19075   2.973   2.319   0.138 -0.3680  0.1021  0.0207
 5096SOL    HW119076   3.046   2.266   0.168 -0.4425 -0.3632 -0.5886
 5096SOL    HW219077   2.895   2.271   0.165 -0.4682  0.8518  1.1201
 5097SOL     OW19078  10.122   7.372   2.577  0.4236 -0.1365  0.1375
 5097SOL    HW119079  10.113   7.285   2.614  1.4183 -0.5692 -0.5991
 5097SOL    HW219080  10.107   7.431   2.650 -0.6732 -0.9049  0.5563
 5098SOL     OW19081   2.756   4.068   2.628  0.6322  0.1396 -0.3550
 5098SOL    HW119082   2.703   4.117   2.566  0.7777  1.6265  0.6474
 5098SOL    HW219083   2.700   4.058   2.706  0.4668 -1.6537 -0.6558
 5099SOL     OW19084  10.359   9.139   2.025 -0.0213  0.3978 -0.0215
 5099SOL    HW119085  10.266   9.117   2.031  0.1356 -0.0536  0.8861
 5099SOL    HW219086  10.371   9.213   2.086  0.4930 -0.5224  1.0287
 5100SOL     OW19087   5.882   3.521   3.475  0.0445 -0.2180  0.1918
 5100SOL    HW119088   5.956   3.579   3.492  0.6637 -1.1970  0.9318
 5100SOL    HW219089   5.805   3.572   3.501  0.5378  0.4326  0.3977
 5101SOL     OW19090   6.423   8.753   1.578 -0.4354  0.1360  0.2101
 5101SOL    HW119091   6.398   8.707   1.498  0.7583  0.7395 -0.5493
 5101SOL    HW219092   6.506   8.796   1.556  0.0087  0.1832  1.8339
 5102SOL     OW19093   0.326   0.068   9.851 -0.4049 -0.0505  0.6641
 5102SOL    HW119094   0.389  -0.004   9.850 -1.3390 -0.8878 -0.0920
 5102SOL    HW219095   0.241   0.026   9.861 -0.8516  1.0723  1.8608
 5103SOL     OW19096   7.893   2.528   8.132 -0.6443  0.2683  0.0498
 5103SOL    HW119097   7.836   2.460   8.168 -0.5823  0.2978  0.2062
 5103SOL    HW219098   7.946   2.556   8.207  0.9811 -1.1420 -0.5031
 5104SOL     OW19099   7.264   1.261   9.503  0.0246 -0.0443  0.7076
 5104SOL    HW119100   7.300   1.285   9.588 -1.8546 -0.3710  1.6475
 5104SOL    HW219101   7.183   1.310   9.497 -0.9727 -1.6787  0.1036
 5105SOL     OW19102   5.965   3.447   7.668 -0.9838  0.0185 -0.3206
 5105SOL    HW119103   5.903   3.400   7.723 -0.0712  0.7384  1.3976
 5105SOL    HW219104   5.911   3.508   7.617 -1.9068 -1.0924 -0.7064
 5106SOL     OW19105   5.186   5.640   1.383 -0.6829  0.0456 -0.2575
 5106SOL    HW119106   5.215   5.664   1.471 -2.7970  1.6727  0.0919
 5106SOL    HW219107   5.253   5.678   1.325  0.1319 -0.0436  0.5990
 5107SOL     OW19108   1.916   4.660   6.911  0.0368 -0.2902 -0.3485
 5107SOL    HW119109   2.012   4.657   6.907  0.5007  1.9509  3.7959
 5107SOL    HW219110   1.890   4.569   6.925  1.7705 -0.6946  0.5248
 5108SOL     OW19111   0.946   6.287   9.031 -1.0240  0.0503 -0.4747
 5108SOL    HW119112   0.979   6.365   9.076  0.6682  0.5756 -2.4820
 5108SOL    HW219113   1.000   6.215   9.063 -2.7157 -0.4254  1.5281
 5109SOL     OW19114   3.471   3.510   5.533 -0.2515  0.2067  0.0725
 5109SOL    HW119115   3.428   3.595   5.526 -0.0588  0.1981 -1.7330
 5109SOL    HW219116   3.400   3.449   5.554 -0.0548  1.0522  3.8658
 5110SOL     OW19117   2.438   2.771   9.607 -0.0237 -0.0168  0.0782
 5110SOL    HW119118   2.430   2.764   9.702  1.8117  1.7064  0.4468
 5110SOL    HW219119   2.531   2.752   9.590 -0.1792  0.3366 -1.2873
 5111SOL     OW19120   7.735   6.183   3.845  0.4388 -0.0625 -0.5092
 5111SOL    HW119121   7.715   6.216   3.932  2.8688  3.3649 -1.0539
 5111SOL    HW219122   7.822   6.144   3.853 -0.1651 -1.6357 -1.0613
 5112SOL     OW19123   4.209   4.941   1.637 -0.1581  0.1378  0.1567
 5112SOL    HW119124   4.152   4.954   1.712 -1.3612 -0.0894 -0.6850
 5112SOL    HW219125   4.165   4.986   1.565  0.5941 -0.2713 -0.5834
 5113SOL     OW19126   0.325   1.064   0.821 -0.4125 -0.8503  0.1442
 5113SOL    HW119127   0.289   1.148   0.792 -0.5685  0.0433  2.6639
 5113SOL    HW219128   0.282   0.999   0.766 -3.6444  0.4072  0.9523
 5114SOL     OW19129   2.113   6.112   5.244 -0.3106  0.1579  0.4467
 5114SOL    HW119130   2.187   6.153   5.199 -2.3949  2.2510 -1.3800
 5114SOL    HW219131   2.045   6.180   5.245 -2.8584 -2.1944  0.3443
 5115SOL     OW19132   3.782   3.761   6.204  0.3365  0.9569  0.0984
 5115SOL    HW119133   3.824   3.687   6.161  1.0729  1.2898  0.2368
 5115SOL    HW219134   3.696   3.767   6.162  1.2265  1.6281 -1.7601
 5116SOL     OW19135   9.897   2.846   5.539  0.1570  0.2262  0.4117
 5116SOL    HW119136   9.935   2.766   5.503  1.0225  1.0560 -0.5960
 5116SOL    HW219137   9.942   2.917   5.493 -0.2730  1.3093  1.5954
 5117SOL     OW19138   5.698   2.632   7.013 -0.0469 -0.0810  0.8253
 5117SOL    HW119139   5.649   2.651   7.093  0.4124 -0.3891  1.1813
 5117SOL    HW219140   5.697   2.537   7.007 -2.0249 -0.0396 -0.7506
 5118SOL     OW19141   1.636   0.930   6.437  0.0383  0.6143  0.4585
 5118SOL    HW119142   1.651   0.965   6.349  0.3646 -0.7382 -0.0420
 5118SOL    HW219143   1.607   1.006   6.488 -1.3446  1.1999 -1.0938
 5119SOL     OW19144   3.220   0.863   1.946  0.5276  0.7911 -0.4337
 5119SOL    HW119145   3.178   0.792   1.896 -1.2040  2.4253 -1.4133
 5119SOL    HW219146   3.278   0.905   1.883  1.8238  0.0676  0.2461
 5120SOL     OW19147   2.027   8.370   0.743  0.3979  0.5871  0.6530
 5120SOL    HW119148   2.033   8.461   0.774 -1.5307  0.4370  1.5885
 5120SOL    HW219149   1.955   8.332   0.793  1.5507 -1.6630  0.7253
 5121SOL     OW19150   6.231   6.058   6.357 -0.2967  0.1680  0.2027
 5121SOL    HW119151   6.238   6.001   6.280 -1.1743  1.1923 -0.6844
 5121SOL    HW219152   6.233   5.999   6.432 -2.1730 -1.1427 -0.7072
 5122SOL     OW19153   6.920   7.304   0.838  0.5635  0.6747 -0.5567
 5122SOL    HW119154   7.004   7.340   0.864  0.7558  1.6386 -2.3715
 5122SOL    HW219155   6.929   7.210   0.848  1.2459  0.8823  0.9307
 5123SOL     OW19156   0.808   2.243   0.051 -0.8793 -0.2200 -0.1368
 5123SOL    HW119157   0.801   2.285  -0.035 -1.2857 -0.8013 -0.4032
 5123SOL    HW219158   0.817   2.150   0.031 -0.4902 -0.3131  0.4457
 5124SOL     OW19159   0.789   2.065   4.797 -0.0264  0.2935  0.1734
 5124SOL    HW119160   0.746   2.127   4.856 -0.0890 -0.0155  0.4571
 5124SOL    HW219161   0.876   2.103   4.781 -0.1751  0.6062  0.0974
 5125SOL     OW19162   6.418   4.221   9.113 -0.2643 -0.4155  0.2098
 5125SOL    HW119163   6.507   4.253   9.129 -0.3645 -0.5559  1.1301
 5125SOL    HW219164   6.426   4.126   9.117 -0.1002 -0.5185 -1.7801
 5126SOL     OW19165   2.185   9.077   9.732 -0.1260  0.1286  0.0176
 5126SOL    HW119166   2.224   9.004   9.780 -0.2685  0.4754  0.6796
 5126SOL    HW219167   2.192   9.052   9.640  0.1476 -0.5556  0.2166
 5127SOL     OW19168   0.578   3.078   4.666 -0.1803 -0.3045  0.0250
 5127SOL    HW119169   0.580   2.987   4.694 -0.1752 -1.0216 -2.1026
 5127SOL    HW219170   0.663   3.092   4.624 -1.0861 -0.1464 -1.8791
 5128SOL     OW19171   9.079   9.116   7.038  0.1163  0.0581  0.2689
 5128SOL    HW119172   9.087   9.170   7.117  0.5103 -1.5807  1.4132
 5128SOL    HW219173   9.134   9.160   6.974  1.7457  0.1773  1.6619
 5129SOL     OW19174   1.487   7.842   5.208 -0.1493  0.3392  0.0515
 5129SOL    HW119175   1.475   7.929   5.244 -2.3963 -1.4249  4.2159
 5129SOL    HW219176   1.410   7.828   5.153  0.2955  0.9756 -0.7540
 5130SOL     OW19177   6.162   7.340   0.261 -0.4316  0.3028  0.6071
 5130SOL    HW119178   6.140   7.417   0.313 -3.0833 -0.1170  0.2488
 5130SOL    HW219179   6.228   7.370   0.199  0.3667  1.6304  2.0554
 5131SOL     OW19180   1.556   3.129   9.986 -0.1834 -0.0010 -0.1666
 5131SOL    HW119181   1.636   3.076   9.992 -0.5405 -0.8617 -2.2263
 5131SOL    HW219182   1.515   3.121  10.072  1.6837  0.0593  0.7815
 5132SOL     OW19183   8.988  10.202   8.597 -0.2825  0.3020  0.4826
 5132SOL    HW119184   9.009  10.206   8.504 -2.0423 -0.5941  0.0148
 5132SOL    HW219185   8.931  10.277   8.612  0.3996  0.7414  0.9875
 5133SOL     OW19186   2.393   2.804   3.325 -0.0224 -0.3089 -0.7402
 5133SOL    HW119187   2.349   2.869   3.271  1.3645 -1.0479 -2.8866
 5133SOL    HW219188   2.420   2.852   3.404 -0.0893  1.4086 -1.7133
 5134SOL     OW19189   9.645   5.498   0.882 -0.6833  1.3543  0.0393
 5134SOL    HW119190   9.567   5.497   0.827  0.2143 -0.6160 -1.3069
 5134SOL    HW219191   9.704   5.560   0.839  0.2146 -0.5583 -1.6123
 5135SOL     OW19192   1.556   9.419   2.298 -0.3014  0.6193 -0.1287
 5135SOL    HW119193   1.604   9.342   2.267 -1.0633  0.7724 -1.7967
 5135SOL    HW219194   1.468   9.386   2.315 -0.2690  0.8533  0.5110
 5136SOL     OW19195   8.322   9.052   1.508 -0.8531 -0.1391 -0.0419
 5136SOL    HW119196   8.385   8.981   1.518 -1.2502 -0.2915  1.8024
 5136SOL    HW219197   8.238   9.013   1.534 -1.4865  0.3948 -1.2299
 5137SOL     OW19198   7.342   8.081   7.557 -0.0805  0.6693  0.4356
 5137SOL    HW119199   7.320   8.128   7.636 -0.1618  1.0016  0.2171
 5137SOL    HW219200   7.434   8.055   7.569 -0.0982  0.7080  0.6436
 5138SOL     OW19201   5.023   4.620   3.260 -0.2361 -1.3095  0.0302
 5138SOL    HW119202   5.064   4.645   3.343 -0.0417 -1.0527 -0.1389
 5138SOL    HW219203   5.024   4.525   3.260  0.2107 -1.3078  0.1076
 5139SOL     OW19204   7.164   3.923   2.964  0.5585 -0.3134 -0.6418
 5139SOL    HW119205   7.214   3.842   2.954 -1.5405 -1.8848  0.6350
 5139SOL    HW219206   7.097   3.918   2.896  0.4929  0.4427 -0.6450
 5140SOL     OW19207   7.601   2.766   0.359  0.0064 -0.2384 -0.3106
 5140SOL    HW119208   7.552   2.690   0.389  1.6063 -1.5637 -0.9122
 5140SOL    HW219209   7.584   2.770   0.265  1.1267 -0.8151 -0.5574
 5141SOL     OW19210   4.405   3.862   1.362 -0.9718 -0.2342  0.1510
 5141SOL    HW119211   4.438   3.778   1.396  0.0881 -0.2308 -0.7938
 5141SOL    HW219212   4.331   3.838   1.306 -0.5799 -0.5665 -0.2365
 5142SOL     OW19213   2.397   7.534   0.876 -0.9090  0.6664 -0.5144
 5142SOL    HW119214   2.442   7.586   0.809 -0.6459  1.9622  0.6264
 5142SOL    HW219215   2.457   7.461   0.894  0.2418  1.7441  0.1652
 5143SOL     OW19216   6.245   9.387   1.203 -0.2883  0.2992  0.7825
 5143SOL    HW119217   6.183   9.382   1.276  0.7266 -0.5933  1.6144
 5143SOL    HW219218   6.269   9.296   1.187 -0.7468  0.4532 -0.9088
 5144SOL     OW19219   2.123   8.667   7.426  0.3971 -0.2297 -0.5105
 5144SOL    HW119220   2.103   8.747   7.378 -0.6778 -0.3515 -0.2964
 5144SOL    HW219221   2.037   8.634   7.454  0.9902 -0.0312  1.6805
 5145SOL     OW19222   4.160   6.891   4.370  0.4939 -0.2764 -0.3957
 5145SOL    HW119223   4.161   6.924   4.280 -2.4812  3.3367  0.6181
 5145SOL    HW219224   4.080   6.838   4.374 -1.6289  2.7073  0.7885
 5146SOL     OW19225   5.071   1.243   0.420  0.2099  0.2761 -0.5979
 5146SOL    HW119226   5.162   1.232   0.448  0.0011  1.9104  0.8996
 5146SOL    HW219227   5.050   1.335   0.441 -1.6478  0.0608 -1.3043
 5147SOL     OW19228   6.659   7.668   8.396 -0.1354 -0.3581  0.3648
 5147SOL    HW119229   6.658   7.750   8.347  0.7878 -1.1293 -1.0167
 5147SOL    HW219230   6.569   7.658   8.428  0.0423  1.8126  1.6833
 5148SOL     OW19231   2.396   5.177   8.005  0.0527 -0.0864 -0.7296
 5148SOL    HW119232   2.337   5.206   8.074  0.5798 -2.1724  0.7123
 5148SOL    HW219233   2.472   5.235   8.013 -0.5738  0.7325 -0.6457
 5149SOL     OW19234  10.324   7.361   1.454  0.1217 -0.0152 -0.2563
 5149SOL    HW119235  10.248   7.349   1.396  0.4147  2.3967 -1.2374
 5149SOL    HW219236  10.287   7.394   1.535  0.0952  1.1369 -0.7252
 5150SOL     OW19237   3.036   0.939   1.430 -0.1562 -0.2295  0.0194
 5150SOL    HW119238   2.953   0.985   1.416  0.7668  1.5035 -0.0059
 5150SOL    HW219239   3.084   0.950   1.348  0.4487 -0.4887  0.3312
 5151SOL     OW19240   4.660   0.077   2.419 -0.7077  0.5274 -0.3275
 5151SOL    HW119241   4.744   0.092   2.376 -0.2854 -3.3102 -1.1683
 5151SOL    HW219242   4.683   0.033   2.501 -1.8589 -1.7659 -1.1606
 5152SOL     OW19243   7.410   5.731   3.667 -0.3629 -0.3938  0.1408
 5152SOL    HW119244   7.499   5.746   3.697 -0.9981 -0.7340  2.3358
 5152SOL    HW219245   7.418   5.660   3.602  0.9815 -0.1345  0.0049
 5153SOL     OW19246   2.144   0.564   6.160  0.0505 -0.0613 -0.1329
 5153SOL    HW119247   2.172   0.527   6.244  0.6631  0.4523 -0.1071
 5153SOL    HW219248   2.055   0.595   6.176  0.1418 -0.0200  0.3123
 5154SOL     OW19249  10.086   3.876   1.456 -0.1337 -0.0098 -0.2758
 5154SOL    HW119250  10.165   3.825   1.436 -1.1204 -1.7251  0.0451
 5154SOL    HW219251  10.113   3.932   1.529  0.7259 -0.7851  0.0318
 5155SOL     OW19252   9.781   8.921   0.091 -0.3479 -0.4991 -0.0975
 5155SOL    HW119253   9.756   8.952   0.178  0.6369 -1.0334  0.3916
 5155SOL    HW219254   9.805   8.829   0.104  1.4178 -0.1426 -0.5828
 5156SOL     OW19255   1.868   9.634   0.017 -0.1778  0.1668  0.0738
 5156SOL    HW119256   1.820   9.624   0.100  0.5673  2.0015  0.7795
 5156SOL    HW219257   1.826   9.709  -0.025  0.9826  0.7388 -0.0851
 5157SOL     OW19258   1.082   0.036   1.116 -0.5206 -0.1049  0.1503
 5157SOL    HW119259   1.034   0.118   1.102 -1.1269 -0.2870  1.0950
 5157SOL    HW219260   1.108   0.009   1.028 -1.0756  0.6435 -0.2635
 5158SOL     OW19261   4.420   1.752   4.720 -0.0218  0.2574  0.2349
 5158SOL    HW119262   4.397   1.830   4.669  0.9368  0.7157  0.4893
 5158SOL    HW219263   4.352   1.746   4.787 -0.4644  0.4971 -0.1874
 5159SOL     OW19264   6.770   3.623   7.557  0.3100 -0.0837  0.4554
 5159SOL    HW119265   6.729   3.609   7.643 -0.1125  0.4140  0.3414
 5159SOL    HW219266   6.811   3.539   7.536  0.3382 -0.2374  1.1023
 5160SOL     OW19267   5.764   6.673   5.667 -0.1687 -0.1043  0.4441
 5160SOL    HW119268   5.693   6.726   5.704 -1.5351  0.0630 -2.1568
 5160SOL    HW219269   5.839   6.689   5.724 -1.8132  0.9074  2.4417
 5161SOL     OW19270   3.224   3.915   0.642 -0.6746  1.0709 -0.3767
 5161SOL    HW119271   3.213   3.916   0.547 -0.8275  2.3958 -0.3620
 5161SOL    HW219272   3.307   3.870   0.656 -1.2256 -0.2352 -1.0505
 5162SOL     OW19273   5.112   9.317  10.258 -0.4889  0.9271 -0.6424
 5162SOL    HW119274   5.031   9.318  10.207 -0.4861  0.4724 -0.6610
 5162SOL    HW219275   5.166   9.251  10.215 -0.8128 -0.0703  0.4279
 5163SOL     OW19276   7.963   3.602   3.272  0.0074  0.6434  0.0904
 5163SOL    HW119277   7.960   3.688   3.316  0.4317  1.1591 -0.8520
 5163SOL    HW219278   8.051   3.570   3.291  0.5616  1.3339 -1.2028
 5164SOL     OW19279   8.639   2.260   4.909 -0.4916 -0.0480 -0.2570
 5164SOL    HW119280   8.658   2.198   4.979 -0.9243  1.9249  1.7257
 5164SOL    HW219281   8.723   2.302   4.891 -0.1247 -1.3671 -1.8467
 5165SOL     OW19282   9.247   8.158   9.941  0.2180 -0.0613  0.7034
 5165SOL    HW119283   9.234   8.252   9.950 -1.4137 -0.0816 -0.9313
 5165SOL    HW219284   9.173   8.119   9.988 -0.3376 -0.4530 -0.4711
 5166SOL     OW19285   9.457   5.826   6.150  0.0922  0.6249 -0.4163
 5166SOL    HW119286   9.446   5.843   6.056  1.1240  1.9199 -0.3253
 5166SOL    HW219287   9.431   5.735   6.160  2.5256 -0.4399 -2.4681
 5167SOL     OW19288   3.821   7.898   3.603 -0.2748 -0.1272  0.3206
 5167SOL    HW119289   3.849   7.940   3.521 -1.9778 -0.8485 -0.6925
 5167SOL    HW219290   3.894   7.840   3.626 -0.1315 -0.6006 -1.2086
 5168SOL     OW19291   1.032  10.148   3.434 -0.1907 -0.5671  0.1648
 5168SOL    HW119292   1.044  10.211   3.364 -2.4288 -1.0601 -0.7611
 5168SOL    HW219293   1.114  10.099   3.437  1.0968  1.4861  0.0443
 5169SOL     OW19294   7.371   0.332   5.368 -0.4975  0.1486  0.0776
 5169SOL    HW119295   7.278   0.339   5.346 -0.3507 -0.0551 -0.6504
 5169SOL    HW219296   7.386   0.239   5.380 -0.4480  0.2081  0.4623
 5170SOL     OW19297   7.249   6.261   6.562  0.2690  0.3942  0.1691
 5170SOL    HW119298   7.261   6.171   6.530  0.3362  0.1206  0.9342
 5170SOL    HW219299   7.304   6.266   6.640  0.9212  1.3722 -0.3318
 5171SOL     OW19300   7.431   8.297   3.233  0.2785  0.3219  0.0976
 5171SOL    HW119301   7.348   8.338   3.256 -1.9126 -3.3350 -0.5234
 5171SOL    HW219302   7.461   8.256   3.315  0.1332 -0.4371 -0.2204
 5172SOL     OW19303   7.926   0.313   6.972 -0.9077  0.0855  0.2368
 5172SOL    HW119304   8.020   0.298   6.984 -0.4902  0.1106 -2.4033
 5172SOL    HW219305   7.893   0.330   7.060  1.7430  1.0924  1.1371
 5173SOL     OW19306   2.105   7.166   8.871  0.5194  0.2936 -0.2111
 5173SOL    HW119307   2.127   7.161   8.964  2.1985 -0.1729 -0.5955
 5173SOL    HW219308   2.030   7.106   8.861 -0.9637  1.8097  1.1267
 5174SOL     OW19309   1.602   7.085   1.005 -0.0232  0.7335  0.2170
 5174SOL    HW119310   1.652   7.042   0.935  0.0395  0.4501  0.4327
 5174SOL    HW219311   1.517   7.043   1.003 -0.0680  0.8242  0.2192
 5175SOL     OW19312   5.935   0.372   3.716  0.1379 -0.0722  0.6157
 5175SOL    HW119313   5.850   0.410   3.735 -0.7779 -1.4554 -0.4599
 5175SOL    HW219314   5.962   0.332   3.798 -0.0172  0.8044  1.0983
 5176SOL     OW19315   4.530   2.349   4.403 -0.0738  0.4372 -0.7875
 5176SOL    HW119316   4.575   2.266   4.414  2.3922  1.6304 -1.1024
 5176SOL    HW219317   4.448   2.327   4.359 -1.2251 -2.1652  2.3125
 5177SOL     OW19318   2.984   5.985   8.065 -0.8841 -0.6613  0.3411
 5177SOL    HW119319   2.993   5.936   8.147 -1.9492  1.0642  1.5689
 5177SOL    HW219320   3.024   6.070   8.084  0.8698 -0.9416 -1.7074
 5178SOL     OW19321   1.751  10.000   7.403 -0.0175 -0.2661  0.3062
 5178SOL    HW119322   1.770   9.924   7.349 -0.0272 -0.2865  0.3316
 5178SOL    HW219323   1.825  10.005   7.464 -0.5669 -0.9034  1.0326
 5179SOL     OW19324   8.648   8.506   1.489 -0.1365 -0.7417  0.6874
 5179SOL    HW119325   8.715   8.566   1.455  1.0222 -1.3319  1.8572
 5179SOL    HW219326   8.649   8.432   1.428 -0.9509  0.0020 -0.2589
 5180SOL     OW19327   8.684   4.188   8.153 -0.2147 -0.4090 -0.3775
 5180SOL    HW119328   8.599   4.158   8.121 -0.5747  0.1564  0.0279
 5180SOL    HW219329   8.741   4.112   8.144 -0.5999 -0.6102 -1.2457
 5181SOL     OW19330   2.855   3.130   3.999 -0.0810  0.7747  0.4606
 5181SOL    HW119331   2.791   3.072   3.958 -0.2631  0.8140  0.6821
 5181SOL    HW219332   2.814   3.155   4.082  1.6336 -1.9532  2.2921
 5182SOL     OW19333   6.088   0.854   0.647  0.0691 -0.7282 -0.0189
 5182SOL    HW119334   6.111   0.925   0.706 -1.2892  0.5207 -0.9281
 5182SOL    HW219335   5.994   0.840   0.662  0.5545 -3.3726  1.1898
 5183SOL     OW19336   1.824   6.768   2.485  0.3068 -0.1078  0.0538
 5183SOL    HW119337   1.732   6.794   2.488  0.4911  0.4537  1.5932
 5183SOL    HW219338   1.832   6.718   2.404 -1.9234 -2.3311  1.0698
 5184SOL     OW19339   2.173   7.183   0.204  0.0056  0.2755  0.5955
 5184SOL    HW119340   2.154   7.098   0.242 -1.4478  1.2539  2.1811
 5184SOL    HW219341   2.267   7.180   0.185 -0.2500 -2.1543 -0.7444
 5185SOL     OW19342   1.250   7.754   2.817 -0.2644 -0.1415 -0.1330
 5185SOL    HW119343   1.299   7.829   2.850 -0.6116 -1.2104  3.1639
 5185SOL    HW219344   1.158   7.777   2.831 -0.4866 -0.3042 -1.2407
 5186SOL     OW19345   2.090   8.899   4.686 -0.3960  0.1244 -0.2667
 5186SOL    HW119346   2.003   8.901   4.725 -0.6982 -0.7218 -0.8780
 5186SOL    HW219347   2.139   8.838   4.741 -0.3972  0.0598 -0.3373
 5187SOL     OW19348   5.713   5.423   4.725 -0.8985  0.3632 -0.0080
 5187SOL    HW119349   5.738   5.366   4.798 -0.8591 -1.3847 -1.3100
 5187SOL    HW219350   5.787   5.418   4.665 -0.1628  3.1724  0.5513
 5188SOL     OW19351   9.882   4.085   9.939 -0.0909 -0.2926  0.6917
 5188SOL    HW119352   9.799   4.048   9.910  0.0599 -0.0197 -0.1088
 5188SOL    HW219353   9.857   4.163   9.990 -0.3692 -0.9925  1.6547
 5189SOL     OW19354   8.269   9.898   3.185  0.0610  0.1097 -0.1423
 5189SOL    HW119355   8.332   9.893   3.256  1.2494  1.7950 -0.9905
 5189SOL    HW219356   8.188   9.928   3.226  0.1760 -0.7915  0.7633
 5190SOL     OW19357   0.353   1.274   9.161 -0.8455  0.0962 -1.0487
 5190SOL    HW119358   0.442   1.243   9.176 -0.8377  0.9408  0.8703
 5190SOL    HW219359   0.335   1.252   9.069  0.6669 -1.6994 -0.9714
 5191SOL     OW19360   1.520   3.337   6.603  0.5518 -0.2384  0.3504
 5191SOL    HW119361   1.527   3.251   6.644  0.6495  0.2613  1.4105
 5191SOL    HW219362   1.577   3.331   6.526  0.5701 -1.1155  0.4224
 5192SOL     OW19363   4.585   0.003   9.067 -0.4323 -0.1239 -0.2182
 5192SOL    HW119364   4.563   0.085   9.022 -0.4937 -0.3716 -0.6471
 5192SOL    HW219365   4.512  -0.012   9.126 -1.7917 -1.2761 -2.0813
 5193SOL     OW19366   9.634   1.684   2.565  0.3470 -0.1273 -0.0728
 5193SOL    HW119367   9.562   1.736   2.529  0.9401  1.6011  1.1293
 5193SOL    HW219368   9.711   1.713   2.516  0.5309 -0.7190 -0.1521
 5194SOL     OW19369   1.872   7.506   1.439 -0.5099  0.6151 -0.2217
 5194SOL    HW119370   1.805   7.481   1.375 -1.0231 -1.5397  1.0469
 5194SOL    HW219371   1.946   7.535   1.386 -0.2952 -2.6327 -1.9767
 5195SOL     OW19372   2.618   7.270   0.701  0.5952  0.0667 -0.6221
 5195SOL    HW119373   2.713   7.279   0.707  0.5424 -0.1258  0.8610
 5195SOL    HW219374   2.604   7.183   0.663  1.0025 -0.3563  0.1883
 5196SOL     OW19375   1.572   5.973   9.137  0.0873  0.2207  0.2196
 5196SOL    HW119376   1.657   5.928   9.141  0.0412  0.1079 -0.0843
 5196SOL    HW219377   1.525   5.942   9.214 -0.7297 -1.8133 -1.0474
 5197SOL     OW19378   3.763   2.843   3.509 -0.5436  0.5755 -0.1392
 5197SOL    HW119379   3.699   2.914   3.513 -1.8023 -0.5780  2.7832
 5197SOL    HW219380   3.759   2.813   3.418 -2.8733  1.6892 -0.4842
 5198SOL     OW19381   0.229   7.655   1.777  0.2346 -0.4121 -0.1219
 5198SOL    HW119382   0.276   7.717   1.833  0.5696 -1.1715  0.4559
 5198SOL    HW219383   0.250   7.569   1.814  0.5690 -0.9458 -1.4968
 5199SOL     OW19384   3.764   3.844   7.218 -0.6028  0.3207 -0.0944
 5199SOL    HW119385   3.677   3.809   7.238 -1.0564  2.1349  1.3493
 5199SOL    HW219386   3.812   3.837   7.300 -0.4283  2.1442  0.0002
 5200SOL     OW19387   5.476   5.516   7.986  0.1338 -0.3362  0.0308
 5200SOL    HW119388   5.453   5.514   7.893 -1.9555 -0.3810  0.5043
 5200SOL    HW219389   5.409   5.572   8.026  0.2267 -1.3628  1.7054
 5201SOL     OW19390   3.917   2.933   5.082 -0.1045  0.0222  0.2679
 5201SOL    HW119391   3.909   2.888   4.999  1.1033 -0.7185  0.5212
 5201SOL    HW219392   3.827   2.953   5.108 -0.4786  0.6437 -1.3976
 5202SOL     OW19393   4.259   5.493   1.792 -0.3401 -0.2009  0.0775
 5202SOL    HW119394   4.310   5.457   1.865  0.6201  1.4618  0.2809
 5202SOL    HW219395   4.213   5.568   1.830 -2.2966 -1.1275 -0.3223
 5203SOL     OW19396   8.853   5.522   4.297  0.0028 -0.1224 -0.4320
 5203SOL    HW119397   8.920   5.587   4.319 -0.3056  0.0628 -0.0390
 5203SOL    HW219398   8.897   5.438   4.306 -0.2985 -0.1015  1.6019
 5204SOL     OW19399   5.155   8.024   9.514 -0.1210 -0.0721  0.4615
 5204SOL    HW119400   5.205   7.998   9.591 -0.6339 -0.1808  0.7650
 5204SOL    HW219401   5.137   7.942   9.467  2.2898  0.1965 -1.1229
 5205SOL     OW19402   5.153   5.339   9.808  0.5625  0.3697  0.5926
 5205SOL    HW119403   5.220   5.373   9.749  0.2251 -0.2831 -0.1933
 5205SOL    HW219404   5.078   5.397   9.795 -0.4139 -1.2495 -1.6083
 5206SOL     OW19405   4.019   2.794   9.521 -0.0972 -0.4601 -0.1389
 5206SOL    HW119406   4.040   2.715   9.472 -0.3676 -1.2809  1.0314
 5206SOL    HW219407   4.052   2.777   9.609  0.9011  1.2087 -0.1456
 5207SOL     OW19408   5.455   7.832   1.387 -0.3844  0.2943 -0.5466
 5207SOL    HW119409   5.443   7.740   1.409  0.6916  0.0633 -0.8862
 5207SOL    HW219410   5.546   7.838   1.358 -0.3884  1.4977 -0.3500
 5208SOL     OW19411   1.003   3.308   3.284  0.7215  0.1558 -0.1099
 5208SOL    HW119412   1.007   3.377   3.217 -0.9560  0.0682 -0.3495
 5208SOL    HW219413   0.973   3.353   3.363 -0.7796 -0.3420 -0.3740
 5209SOL     OW19414   0.532   6.213   2.492  0.8694  0.3599  0.0587
 5209SOL    HW119415   0.467   6.222   2.562  0.0025 -0.5631 -0.6037
 5209SOL    HW219416   0.598   6.155   2.529  0.2610 -0.3729  0.0254
 5210SOL     OW19417   0.606   3.646   4.693 -0.3820  0.2082  0.1166
 5210SOL    HW119418   0.641   3.694   4.618  1.8865 -1.9004 -0.2942
 5210SOL    HW219419   0.635   3.697   4.769 -1.1958  1.4253 -0.3639
 5211SOL     OW19420   2.288   7.972   2.121  0.4231  0.1298 -0.5067
 5211SOL    HW119421   2.313   7.955   2.030 -0.3494 -0.1740 -0.6685
 5211SOL    HW219422   2.278   7.885   2.160  1.5905  0.2520  0.1166
 5212SOL     OW19423   3.996   2.822   5.370  0.2076  0.2788 -0.1185
 5212SOL    HW119424   3.925   2.875   5.405  0.9570  0.4676  1.1872
 5212SOL    HW219425   4.032   2.875   5.298 -1.5184 -0.2306 -1.4337
 5213SOL     OW19426   4.148   7.174   9.978 -0.3132 -0.1415 -0.5437
 5213SOL    HW119427   4.178   7.093   9.937 -2.3589 -1.7848  0.9507
 5213SOL    HW219428   4.058   7.185   9.946  0.3390  2.3602 -1.7667
 5214SOL     OW19429   0.234   1.901   8.498 -0.2974 -0.0967 -0.6354
 5214SOL    HW119430   0.239   1.807   8.483 -1.1021 -0.8311  2.8476
 5214SOL    HW219431   0.143   1.924   8.476  0.1777  0.1530 -2.4978
 5215SOL     OW19432   4.326   0.533   0.042 -0.5143  0.0810  0.5498
 5215SOL    HW119433   4.381   0.586   0.098 -0.6852  0.3069  0.5073
 5215SOL    HW219434   4.334   0.444   0.076 -2.2610  0.5089  2.2864
 5216SOL     OW19435   4.470   7.093   1.387  0.2439  0.2131 -0.4601
 5216SOL    HW119436   4.380   7.099   1.418  0.1462 -1.5585 -0.2943
 5216SOL    HW219437   4.523   7.126   1.460 -0.2444  1.1844 -0.5286
 5217SOL     OW19438   0.334   3.311   3.130 -0.4972  0.2217  0.0655
 5217SOL    HW119439   0.272   3.273   3.192 -1.2891  0.4527 -0.5601
 5217SOL    HW219440   0.339   3.403   3.154 -1.3444  0.4639 -0.6193
 5218SOL     OW19441   6.424   6.805   8.795 -0.3776 -0.1934  0.2479
 5218SOL    HW119442   6.480   6.734   8.762 -0.8183 -1.3199  1.8273
 5218SOL    HW219443   6.335   6.772   8.782 -0.5916  0.1985  0.7083
 5219SOL     OW19444   8.213   4.207  10.113  0.0989  0.0083 -0.4284
 5219SOL    HW119445   8.148   4.277  10.106  0.3501  0.2322 -0.5043
 5219SOL    HW219446   8.191   4.147  10.043 -0.6938 -0.4653  0.2042
 5220SOL     OW19447   3.009   2.681   7.080  0.0941  0.1566  0.1365
 5220SOL    HW119448   3.097   2.665   7.045  0.2783  0.4598  0.4487
 5220SOL    HW219449   2.950   2.656   7.010  0.3787 -1.3262  0.4058
 5221SOL     OW19450  10.002   0.668   5.145  0.0642  0.7718  0.1252
 5221SOL    HW119451   9.927   0.712   5.105  0.1325  0.2482 -0.5897
 5221SOL    HW219452  10.070   0.735   5.152  0.0628  0.8562 -0.6746
 5222SOL     OW19453   8.210   6.691   5.034 -0.4795 -0.3080  0.6981
 5222SOL    HW119454   8.252   6.723   4.954  0.2777  0.2965  1.3118
 5222SOL    HW219455   8.178   6.770   5.078 -0.6505 -0.6044  1.1177
 5223SOL     OW19456   7.704   4.021   4.764  0.0599  0.1312  0.4369
 5223SOL    HW119457   7.753   4.028   4.846  0.6173 -0.4654  0.1641
 5223SOL    HW219458   7.764   3.977   4.704 -0.5491  0.0550 -0.1269
 5224SOL     OW19459   0.338   6.939   4.862  0.3624 -0.4354  0.3473
 5224SOL    HW119460   0.284   6.927   4.784  1.0700 -2.3549  0.0931
 5224SOL    HW219461   0.277   6.933   4.935 -0.4999  2.5336  0.0112
 5225SOL     OW19462   1.878   8.271   0.226  0.2449  0.2769  0.2520
 5225SOL    HW119463   1.885   8.353   0.177  0.2223  1.2489  1.8096
 5225SOL    HW219464   1.882   8.297   0.318  0.8731 -1.5418  0.7864
 5226SOL     OW19465   9.771   2.505   0.606 -0.3252  0.5884  0.0904
 5226SOL    HW119466   9.677   2.486   0.597 -0.2417  0.0404  0.3090
 5226SOL    HW219467   9.801   2.520   0.516 -0.5854  0.5624 -0.0009
 5227SOL     OW19468  10.228   8.878   7.933  0.0664 -0.5635  0.2840
 5227SOL    HW119469  10.234   8.971   7.955 -1.6869 -0.2817 -0.2379
 5227SOL    HW219470  10.253   8.833   8.014 -1.0665  0.4016  1.2134
 5228SOL     OW19471   7.658   7.115   6.412  0.4469  0.0735 -0.3463
 5228SOL    HW119472   7.707   7.081   6.487 -0.9659 -0.1156  0.5237
 5228SOL    HW219473   7.720   7.111   6.339  1.4962 -0.8123  0.5595
 5229SOL     OW19474   7.077   1.836   4.898 -0.8054  0.1211 -0.2801
 5229SOL    HW119475   7.082   1.830   4.803  0.6565  0.5209 -0.2538
 5229SOL    HW219476   7.132   1.764   4.929 -0.2394  0.7642  0.2390
 5230SOL     OW19477   3.745   3.551   9.104  0.7471 -0.1132  0.3417
 5230SOL    HW119478   3.817   3.615   9.100  0.7720 -0.0885  1.1311
 5230SOL    HW219479   3.775   3.485   9.166  1.5644 -1.9526 -1.8410
 5231SOL     OW19480   5.462   9.010   1.334  0.2375  0.3582  0.6240
 5231SOL    HW119481   5.433   9.070   1.403 -2.2738  1.1497 -0.9558
 5231SOL    HW219482   5.405   8.934   1.343 -0.1591  0.4951 -0.5591
 5232SOL     OW19483   5.777   0.304  10.011  0.0026  0.2003 -0.6138
 5232SOL    HW119484   5.743   0.261   9.932  1.5023 -1.1497 -0.5939
 5232SOL    HW219485   5.700   0.343  10.053 -0.7406  1.5549 -3.0678
 5233SOL     OW19486   5.821   1.747   3.439  0.2166  0.0292 -0.0978
 5233SOL    HW119487   5.815   1.663   3.393  1.1389 -0.3869  0.5097
 5233SOL    HW219488   5.855   1.808   3.373  0.9012 -0.4091 -0.1553
 5234SOL     OW19489   8.420   0.781   0.980 -0.2230  0.5253  0.1407
 5234SOL    HW119490   8.356   0.753   0.915  0.7283 -2.0569  0.1917
 5234SOL    HW219491   8.393   0.738   1.061 -0.0963  1.8341  0.9000
 5235SOL     OW19492  10.055   4.196   0.160 -0.1563 -0.0538 -0.0053
 5235SOL    HW119493  10.020   4.141   0.230 -0.2462  0.4694  0.3608
 5235SOL    HW219494  10.115   4.138   0.113  0.1543 -0.3182  0.6970
 5236SOL     OW19495   0.672   9.703   4.258 -0.2167  0.1675 -0.5767
 5236SOL    HW119496   0.686   9.609   4.246  0.4376 -0.0318  1.3733
 5236SOL    HW219497   0.618   9.730   4.183  1.8898 -1.1788 -2.6989
 5237SOL     OW19498   2.907   4.102   9.750  0.1180 -0.5452  0.4642
 5237SOL    HW119499   2.832   4.063   9.706  0.0179 -3.2456  2.7786
 5237SOL    HW219500   2.970   4.119   9.680 -0.9837 -2.2663 -1.0236
 5238SOL     OW19501   2.776   6.301   1.737 -0.4621  0.0466 -0.4271
 5238SOL    HW119502   2.857   6.330   1.779  0.3920 -1.3615 -1.0028
 5238SOL    HW219503   2.768   6.357   1.660  0.1027  0.0549 -0.4862
 5239SOL     OW19504   9.367   1.992   5.349 -0.3723 -0.2196  0.0704
 5239SOL    HW119505   9.313   2.060   5.310 -0.1251  0.6192  1.1473
 5239SOL    HW219506   9.436   1.975   5.284 -0.4488  0.5416 -0.2109
 5240SOL     OW19507   0.840   9.169   0.076  0.3219 -0.2113  0.1445
 5240SOL    HW119508   0.915   9.116   0.101  1.5469  0.2918 -2.2318
 5240SOL    HW219509   0.854   9.252   0.120  0.5970 -0.4570  0.5327
 5241SOL     OW19510   3.136   5.734   4.025 -0.0305 -0.2000 -0.3262
 5241SOL    HW119511   3.118   5.731   4.119  0.0786  0.8782 -0.2604
 5241SOL    HW219512   3.053   5.762   3.986 -0.0991 -0.7240 -0.5716
 5242SOL     OW19513   9.584   6.492   2.829  0.1960  0.0910  0.5102
 5242SOL    HW119514   9.534   6.547   2.769 -0.1797  1.6763  2.1629
 5242SOL    HW219515   9.654   6.550   2.861  0.4446 -0.7327  1.4958
 5243SOL     OW19516   6.234   8.850   6.877 -0.2782  0.3659 -0.3730
 5243SOL    HW119517   6.258   8.941   6.862  0.2703  1.0749  3.7348
 5243SOL    HW219518   6.316   8.802   6.869 -0.6390  0.0391 -2.9814
 5244SOL     OW19519   4.598   9.678   6.280 -0.5758  0.0440 -0.5047
 5244SOL    HW119520   4.509   9.712   6.265 -0.5570  1.1537  1.5555
 5244SOL    HW219521   4.655   9.739   6.235 -0.7898 -0.2388 -1.1829
 5245SOL     OW19522   7.585   3.054   9.903  0.7164 -0.5107 -0.2686
 5245SOL    HW119523   7.511   2.995   9.886  0.8257 -0.3947 -1.2058
 5245SOL    HW219524   7.571   3.085   9.992 -1.5719  1.1882 -1.1204
 5246SOL     OW19525   3.387   2.140   5.340  0.5016 -0.0947 -0.0503
 5246SOL    HW119526   3.346   2.154   5.425  0.7956 -0.4525  0.1470
 5246SOL    HW219527   3.366   2.220   5.291 -2.1788 -1.0557 -0.6662
 5247SOL     OW19528   3.145   8.155   2.272 -0.2287 -0.2787  0.1503
 5247SOL    HW119529   3.108   8.092   2.210 -1.3074 -0.0891  0.5790
 5247SOL    HW219530   3.204   8.208   2.219  0.1697 -1.1923 -0.3601
 5248SOL     OW19531   2.174   4.265   6.555 -0.0408  0.0793 -0.2505
 5248SOL    HW119532   2.213   4.231   6.636 -0.3738  0.8041  0.2224
 5248SOL    HW219533   2.228   4.339   6.531 -1.2662  1.2924  0.5850
 5249SOL     OW19534   8.243   2.356   2.168  0.1303 -0.1895  0.0041
 5249SOL    HW119535   8.228   2.425   2.231  0.0781  0.0065 -0.2229
 5249SOL    HW219536   8.320   2.310   2.201 -0.1462 -0.3485  0.4323
 5250SOL     OW19537   5.133   6.279   2.814 -0.7029  0.2509  0.1034
 5250SOL    HW119538   5.214   6.287   2.764  0.1185 -1.0809  1.1389
 5250SOL    HW219539   5.097   6.194   2.788 -0.6620 -0.1124  1.1616
 5251SOL     OW19540   3.814   3.165   7.570  1.0346 -0.2691 -0.7625
 5251SOL    HW119541   3.778   3.096   7.514 -0.9034 -1.2064  1.4555
 5251SOL    HW219542   3.748   3.235   7.566  1.5155  0.1956 -0.6615
 5252SOL     OW19543   0.751   2.002   9.565  0.2807 -0.3466 -0.2422
 5252SOL    HW119544   0.686   2.073   9.567  1.4399  0.7322  1.6446
 5252SOL    HW219545   0.764   1.978   9.657  2.8290 -0.2323 -0.5034
 5253SOL     OW19546   0.491   1.351   1.892 -0.1568 -0.4693 -0.5989
 5253SOL    HW119547   0.562   1.346   1.956 -1.0555 -2.5950  0.3472
 5253SOL    HW219548   0.414   1.321   1.940 -1.8278  2.0397 -1.5018
 5254SOL     OW19549   2.464   1.355   7.517  0.2304 -0.6470  0.6609
 5254SOL    HW119550   2.395   1.395   7.463  2.5272  0.9865 -1.2534
 5254SOL    HW219551   2.444   1.261   7.515  0.1225 -0.6908 -3.1225
 5255SOL     OW19552   9.852   7.192   3.780  0.2227  0.2384 -0.0427
 5255SOL    HW119553   9.832   7.276   3.821 -1.4479 -0.4179  0.5519
 5255SOL    HW219554   9.889   7.140   3.851 -0.3424 -0.0841  0.0161
 5256SOL     OW19555   9.441  10.179   1.290 -0.1745 -0.2437  0.5053
 5256SOL    HW119556   9.355  10.157   1.254  0.7743 -1.7223 -1.0266
 5256SOL    HW219557   9.442  10.275   1.291 -0.9534 -0.1230 -1.8880
 5257SOL     OW19558   6.045   0.689   5.861  0.3400  0.5342 -0.4264
 5257SOL    HW119559   6.025   0.671   5.953 -0.3751  2.3170 -0.1838
 5257SOL    HW219560   6.129   0.735   5.862  0.4617  0.3258 -0.6973
 5258SOL     OW19561   7.966   4.817   4.026 -0.1532 -0.3522  0.3506
 5258SOL    HW119562   7.895   4.862   3.981  0.4157 -0.3477 -0.5528
 5258SOL    HW219563   8.024   4.787   3.957  0.4528 -0.8327  1.0472
 5259SOL     OW19564   9.682   3.783   0.412  0.1409  0.7619 -0.0319
 5259SOL    HW119565   9.715   3.869   0.386  0.5387  1.2760  2.0439
 5259SOL    HW219566   9.741   3.720   0.369  1.4017  1.5913  0.4372
 5260SOL     OW19567   8.078   6.044  10.152  0.6438  0.1488  0.1396
 5260SOL    HW119568   8.087   6.048  10.057 -1.3672  0.3382 -0.0828
 5260SOL    HW219569   8.073   6.135  10.180  0.1107  0.0837  0.2778
 5261SOL     OW19570   6.903   5.268  10.131  0.6003  0.2249  0.0836
 5261SOL    HW119571   6.811   5.269  10.159  1.0166 -0.3635  1.5608
 5261SOL    HW219572   6.953   5.276  10.212  1.8663  0.4831 -0.6960
 5262SOL     OW19573   1.192   5.057   8.896 -0.0120 -0.0560  0.2801
 5262SOL    HW119574   1.229   4.969   8.895  0.0803 -0.0296  0.7456
 5262SOL    HW219575   1.112   5.049   8.948 -0.8723 -0.1792 -1.0080
 5263SOL     OW19576   8.464   8.330   4.996 -0.3159 -0.1363 -0.2504
 5263SOL    HW119577   8.504   8.316   5.082 -0.7700  2.3019  0.4216
 5263SOL    HW219578   8.384   8.379   5.014 -2.8353 -3.3045 -1.7071
 5264SOL     OW19579   3.372   3.116   4.667 -0.1566 -0.5097 -0.0838
 5264SOL    HW119580   3.341   3.033   4.705  0.7731  0.4775  3.0747
 5264SOL    HW219581   3.294   3.170   4.659 -0.7808 -1.6072 -2.2206
 5265SOL     OW19582   3.013   5.559   8.730 -0.0687 -0.2640  0.7234
 5265SOL    HW119583   3.100   5.539   8.696 -0.8430 -1.6601 -0.5650
 5265SOL    HW219584   2.967   5.600   8.657 -0.3927  0.8413  1.5231
 5266SOL     OW19585   4.196  10.029   8.313  0.2738 -0.5989 -0.3068
 5266SOL    HW119586   4.111  10.040   8.355  0.6398  0.7544  0.1359
 5266SOL    HW219587   4.177  10.021   8.220 -0.2839  0.6970 -0.3125
 5267SOL     OW19588  10.017   2.540   8.169  0.5981  0.4589 -0.2640
 5267SOL    HW119589  10.000   2.446   8.160 -0.9337  0.5949  0.7753
 5267SOL    HW219590  10.018   2.556   8.263 -1.0470  1.7602 -0.4140
 5268SOL     OW19591  10.153   1.678   6.932  0.2905  0.4922  0.5902
 5268SOL    HW119592  10.062   1.700   6.914  0.7374  1.6493 -0.3667
 5268SOL    HW219593  10.185   1.638   6.852  0.2603 -1.2189  1.3965
 5269SOL     OW19594   1.481   6.145   1.280 -0.0566  0.4174  0.2394
 5269SOL    HW119595   1.524   6.224   1.313 -0.2673  0.7680 -0.3145
 5269SOL    HW219596   1.401   6.137   1.331  1.1165 -0.8001  1.9876
 5270SOL     OW19597   4.455   1.122   6.342 -0.2870 -0.1064 -0.1543
 5270SOL    HW119598   4.535   1.117   6.290 -0.0663  0.8325  0.0720
 5270SOL    HW219599   4.482   1.097   6.431 -0.5681 -1.2604 -0.3815
 5271SOL     OW19600   2.662   2.339   2.946  0.5507  0.2191  0.2065
 5271SOL    HW119601   2.746   2.385   2.945  0.5076  0.3046  0.5012
 5271SOL    HW219602   2.686   2.247   2.934  0.7916  0.0855  1.5673
 5272SOL     OW19603   1.763   8.919   5.054 -0.6634  0.8325  0.1836
 5272SOL    HW119604   1.831   8.946   5.116 -0.2798  1.1793 -0.3692
 5272SOL    HW219605   1.807   8.923   4.968 -1.2277  0.5296 -0.1239
 5273SOL     OW19606   3.071   3.641   7.780 -0.5022 -0.1701 -0.1599
 5273SOL    HW119607   3.154   3.643   7.828 -0.5951  0.2518 -0.0168
 5273SOL    HW219608   3.049   3.548   7.774  0.1100 -0.3053 -0.4180
 5274SOL     OW19609   1.177   9.271   3.627 -0.1927 -0.9883 -0.0178
 5274SOL    HW119610   1.108   9.205   3.625 -1.9219  0.7470 -0.5481
 5274SOL    HW219611   1.133   9.351   3.657  1.3475  0.4184 -1.3141
 5275SOL     OW19612   0.022   9.107   1.735 -0.4374 -0.0534  0.0466
 5275SOL    HW119613   0.009   9.122   1.829  2.1830 -1.6970  0.7833
 5275SOL    HW219614   0.037   9.012   1.729 -1.2305 -0.0724 -2.1495
 5276SOL     OW19615   6.464   1.629   5.939 -0.1792 -0.1849 -0.1030
 5276SOL    HW119616   6.430   1.718   5.941  0.5384  0.1427 -1.3178
 5276SOL    HW219617   6.511   1.623   5.856  0.8972 -1.2808  0.5468
 5277SOL     OW19618   0.516   3.504   1.497 -0.1802 -0.0866 -0.9108
 5277SOL    HW119619   0.602   3.466   1.477 -0.3059 -1.4453  0.8759
 5277SOL    HW219620   0.458   3.428   1.508 -1.3388  0.7711 -0.8714
 5278SOL     OW19621   6.860   6.155   2.110 -0.0383  0.6998  0.7457
 5278SOL    HW119622   6.947   6.168   2.070 -0.2409  0.3904  0.1986
 5278SOL    HW219623   6.798   6.176   2.040 -0.3992 -2.2278  0.0750
 5279SOL     OW19624   8.052   2.519   9.239  0.0788  0.8166 -0.1394
 5279SOL    HW119625   7.988   2.589   9.256 -1.0836  0.2715 -2.0171
 5279SOL    HW219626   8.040   2.459   9.312 -0.8529  1.2300  0.0669
 5280SOL     OW19627   1.280   1.386   4.165 -0.6902 -0.5496  0.1060
 5280SOL    HW119628   1.224   1.321   4.122 -0.0343 -1.0071 -0.0709
 5280SOL    HW219629   1.225   1.422   4.235 -0.6813 -2.1624  0.9941
 5281SOL     OW19630   6.832   5.402   0.224 -0.1129  0.6584 -0.1663
 5281SOL    HW119631   6.749   5.410   0.270 -0.2857 -1.6206  0.0368
 5281SOL    HW219632   6.877   5.485   0.240 -1.6859  1.3269  1.0221
 5282SOL     OW19633   3.469   1.537   6.361  0.0635  0.3419 -0.3932
 5282SOL    HW119634   3.417   1.483   6.420 -0.7797  0.4422 -1.0217
 5282SOL    HW219635   3.411   1.554   6.287  0.8632  0.7870 -0.9352
 5283SOL     OW19636   2.743   6.193   8.705  0.1005 -0.5366  0.4343
 5283SOL    HW119637   2.705   6.244   8.777  2.1788  1.9332 -0.0688
 5283SOL    HW219638   2.701   6.228   8.626  0.0835 -1.0467  0.2141
 5284SOL     OW19639   1.966   0.830   9.533  0.0701  0.5022 -0.1240
 5284SOL    HW119640   2.021   0.873   9.467 -1.5545 -0.3981 -2.1797
 5284SOL    HW219641   1.878   0.865   9.518 -0.6804 -1.0957  0.3248
 5285SOL     OW19642   4.390   4.679  10.077 -0.0345  0.5837 -0.5258
 5285SOL    HW119643   4.350   4.740  10.138  0.5711  0.9664 -0.4946
 5285SOL    HW219644   4.345   4.596  10.091  1.5527  0.0452  2.0479
 5286SOL     OW19645   4.925   6.814   6.125  0.3064  0.2518 -0.1677
 5286SOL    HW119646   4.993   6.866   6.081  1.6421 -0.4902  0.9379
 5286SOL    HW219647   4.917   6.853   6.212 -0.2021 -0.0924 -0.0547
 5287SOL     OW19648  10.303   5.655   6.004  0.1247  0.1606 -1.1509
 5287SOL    HW119649  10.283   5.715   5.933  0.2501 -0.5698 -1.8174
 5287SOL    HW219650  10.263   5.572   5.978  0.0997 -0.0926 -0.3304
 5288SOL     OW19651   8.633   6.601   8.341  0.0436 -0.0622  0.3642
 5288SOL    HW119652   8.700   6.568   8.280  0.2728 -0.2446  0.7094
 5288SOL    HW219653   8.576   6.525   8.356  0.0012 -0.0243  0.3905
 5289SOL     OW19654   8.336   5.079   9.770 -0.2233  0.2940 -0.1283
 5289SOL    HW119655   8.253   5.113   9.737 -0.4917 -0.4813 -0.2694
 5289SOL    HW219656   8.320   5.062   9.863 -1.3421 -3.0613 -0.7983
 5290SOL     OW19657   3.793   2.995   1.189  0.0741 -0.3597 -0.2629
 5290SOL    HW119658   3.874   3.042   1.167  0.0277 -0.3231 -0.3553
 5290SOL    HW219659   3.729   3.064   1.203  0.4391 -0.3195  1.3530
 5291SOL     OW19660   0.483   3.635   0.430 -0.7646 -0.1773 -0.1436
 5291SOL    HW119661   0.413   3.596   0.377 -0.7682 -2.9951  1.7441
 5291SOL    HW219662   0.456   3.726   0.441 -2.0759 -0.1570 -2.7305
 5292SOL     OW19663   1.012   7.838   3.397  0.1418 -0.3899  0.1197
 5292SOL    HW119664   1.010   7.929   3.428  0.2725 -0.7402  1.1802
 5292SOL    HW219665   0.972   7.842   3.310  1.0162  0.8368 -0.2610
 5293SOL     OW19666   4.633   1.976   0.141  0.3984 -0.4015 -0.4171
 5293SOL    HW119667   4.718   1.959   0.182  0.5985  0.3852 -0.5005
 5293SOL    HW219668   4.575   1.995   0.214  0.1952 -1.3093 -0.3298
 5294SOL     OW19669  10.291   9.420   3.610  0.1006  0.0260 -0.3386
 5294SOL    HW119670  10.307   9.416   3.516  0.0521  2.2775 -0.4889
 5294SOL    HW219671  10.311   9.332   3.641  0.1508 -0.7579 -2.4335
 5295SOL     OW19672   3.144   9.166   5.526 -0.0284  0.3977 -0.0109
 5295SOL    HW119673   3.175   9.207   5.445  1.1888  0.3532  0.4068
 5295SOL    HW219674   3.061   9.209   5.545 -1.1846 -0.7255 -2.1365
 5296SOL     OW19675   6.001   8.352   1.548 -0.2325  0.2608  0.1276
 5296SOL    HW119676   5.952   8.407   1.608 -0.8165  0.1196 -0.2156
 5296SOL    HW219677   6.030   8.412   1.479 -1.4512  0.0363 -0.6079
 5297SOL     OW19678  10.068   8.224   6.823 -0.0578  0.5900 -0.3361
 5297SOL    HW119679  10.145   8.232   6.880  0.2195 -1.7019 -0.2947
 5297SOL    HW219680  10.095   8.263   6.740  1.0452  0.1387 -0.2047
 5298SOL     OW19681   8.681   4.389   7.263 -1.1561  0.1130 -0.2625
 5298SOL    HW119682   8.734   4.466   7.281  0.1288 -0.7831 -0.0613
 5298SOL    HW219683   8.591   4.422   7.256 -0.7430  1.4882  0.6454
 5299SOL     OW19684   8.163   4.289   0.722 -0.2753 -0.1714  0.5231
 5299SOL    HW119685   8.198   4.364   0.675 -0.6618 -0.2435  0.1061
 5299SOL    HW219686   8.202   4.294   0.809  0.8735 -0.3320  0.0300
 5300SOL     OW19687   4.527   6.472   7.859 -0.1300 -0.0585 -0.4307
 5300SOL    HW119688   4.513   6.383   7.826 -0.3916 -0.0215 -0.4184
 5300SOL    HW219689   4.439   6.507   7.872 -0.0290  0.5875 -1.4592
 5301SOL     OW19690   8.968   3.439   6.209 -0.5843 -0.5492  0.4343
 5301SOL    HW119691   8.927   3.423   6.124 -1.5167  0.7304  0.6125
 5301SOL    HW219692   8.988   3.533   6.209 -0.9253 -0.4565  1.7507
 5302SOL     OW19693   6.882   1.474   4.093 -0.1112  0.1892  0.3946
 5302SOL    HW119694   6.804   1.465   4.147 -1.2852 -1.5083 -1.4612
 5302SOL    HW219695   6.922   1.387   4.093  0.7595  0.5756 -0.1395
 5303SOL     OW19696   3.797   6.385   4.711 -0.0254  0.3715 -0.3279
 5303SOL    HW119697   3.756   6.427   4.635 -2.7033 -1.8319 -0.2403
 5303SOL    HW219698   3.824   6.299   4.679  0.6448  0.1607  0.7589
 5304SOL     OW19699   7.033   5.837   2.944 -0.4549  1.1442 -0.2853
 5304SOL    HW119700   6.996   5.917   2.981 -2.1204  1.3596 -2.2391
 5304SOL    HW219701   7.039   5.854   2.850  0.1066 -0.6742 -0.6202
 5305SOL     OW19702   1.842   6.573  10.072 -0.7865 -0.6205 -0.4583
 5305SOL    HW119703   1.841   6.669  10.062  0.4984 -0.6261 -0.7127
 5305SOL    HW219704   1.915   6.555  10.131  0.4248 -1.5904 -2.1876
 5306SOL     OW19705   2.374   8.932   6.097  0.1648  0.1104  0.4136
 5306SOL    HW119706   2.441   8.958   6.160  0.5042 -2.3890  1.2176
 5306SOL    HW219707   2.416   8.862   6.046 -0.3330  1.5856 -2.2300
 5307SOL     OW19708   2.020   7.016   1.169 -0.0214  0.1317 -0.0246
 5307SOL    HW119709   2.060   6.930   1.183  0.4551  0.3118 -0.2619
 5307SOL    HW219710   2.062   7.073   1.234 -0.5542  0.1208  0.3348
 5308SOL     OW19711   8.693   9.407   3.332  0.2546 -0.1451 -0.5515
 5308SOL    HW119712   8.742   9.460   3.395 -0.5618  0.0686 -0.0753
 5308SOL    HW219713   8.670   9.467   3.262 -0.6298  0.1317 -0.0347
 5309SOL     OW19714   8.212  10.017   8.107 -0.5098  0.2009  0.0283
 5309SOL    HW119715   8.216  10.094   8.051  0.0152  0.9161  1.0337
 5309SOL    HW219716   8.121   9.988   8.101 -0.6128  0.6545 -0.6646
 5310SOL     OW19717   2.554   9.945   9.782 -0.0097 -0.0916  0.6951
 5310SOL    HW119718   2.496   9.894   9.838 -0.8190 -0.4317 -0.4139
 5310SOL    HW219719   2.640   9.904   9.791 -0.0915 -0.0337  1.7984
 5311SOL     OW19720   9.366   1.707   5.265 -0.0116  0.1233  0.0959
 5311SOL    HW119721   9.280   1.748   5.253 -1.1898 -1.5667  2.1946
 5311SOL    HW219722   9.368   1.637   5.200  0.3220  0.8719 -0.7363
 5312SOL     OW19723   1.250   5.354   3.238  0.2946  0.5202  0.4324
 5312SOL    HW119724   1.235   5.426   3.178  0.5139  0.8478  0.7629
 5312SOL    HW219725   1.186   5.287   3.213 -1.0739  1.4922  1.2152
 5313SOL     OW19726   9.375   0.939   5.651 -0.2003 -0.1386  0.0064
 5313SOL    HW119727   9.462   0.979   5.644 -0.1270  0.3872  2.8706
 5313SOL    HW219728   9.320   1.006   5.692 -1.8059 -0.7297 -1.0558
 5314SOL     OW19729   5.960   5.961   4.400 -0.4400  0.5376  0.3788
 5314SOL    HW119730   6.055   5.961   4.390 -0.2613 -1.4140  1.5399
 5314SOL    HW219731   5.928   5.902   4.331 -0.9412  1.8364 -0.5598
 5315SOL     OW19732   5.649   4.288   6.128 -0.5162 -0.4334  0.4087
 5315SOL    HW119733   5.690   4.331   6.052 -2.6942  0.4514 -0.3386
 5315SOL    HW219734   5.601   4.358   6.172  1.9474 -0.5571  3.6192
 5316SOL     OW19735   0.377   1.580  10.006 -0.4979 -0.0250 -0.1017
 5316SOL    HW119736   0.360   1.495   9.964 -1.8101 -0.2975  0.9470
 5316SOL    HW219737   0.367   1.643   9.935 -0.1162 -0.6846 -0.7634
 5317SOL     OW19738   8.920   9.708   4.847 -0.2227 -0.0032 -0.2919
 5317SOL    HW119739   8.894   9.619   4.824  3.1247 -1.0617 -0.6357
 5317SOL    HW219740   8.961   9.699   4.934 -0.1209  1.2636 -0.1875
 5318SOL     OW19741   1.296   3.014   7.498  0.1832  0.3832  0.1236
 5318SOL    HW119742   1.233   2.942   7.495  1.2536 -0.6538  1.1804
 5318SOL    HW219743   1.362   2.985   7.562  2.7449  0.5314 -2.2627
 5319SOL     OW19744   0.386   2.059   7.306 -0.2864  0.8052 -0.3368
 5319SOL    HW119745   0.437   2.110   7.243  0.9626 -0.5786 -0.4849
 5319SOL    HW219746   0.375   2.119   7.381 -0.0869  1.7838 -1.0679
 5320SOL     OW19747   2.086   9.599   3.610  0.9125 -0.3652  0.8628
 5320SOL    HW119748   2.036   9.657   3.668  0.2416  0.0160 -0.0773
 5320SOL    HW219749   2.080   9.513   3.651 -2.9660 -0.9886 -0.5804
 5321SOL     OW19750   1.050   8.708   0.466  0.1676  0.3611 -0.4234
 5321SOL    HW119751   1.113   8.772   0.499 -0.7113  1.8183 -1.4268
 5321SOL    HW219752   0.979   8.709   0.529  0.0992  0.4833 -0.5010
 5322SOL     OW19753   4.230   0.597   6.546 -0.1645  0.8490 -0.5128
 5322SOL    HW119754   4.230   0.693   6.546  0.8266  0.8743  0.4091
 5322SOL    HW219755   4.270   0.573   6.630  0.9172 -0.3466 -1.3144
 5323SOL     OW19756   4.348   1.371   4.708  0.3743  0.2738  0.2530
 5323SOL    HW119757   4.418   1.310   4.686 -0.9094 -1.2300  0.1728
 5323SOL    HW219758   4.353   1.381   4.803  0.7397  0.2690  0.2374
 5324SOL     OW19759   0.011   4.120  10.174 -0.0532  1.1189  0.1028
 5324SOL    HW119760  -0.051   4.192  10.176 -0.3033  0.8933  2.7137
 5324SOL    HW219761  -0.039   4.044  10.203  0.8919  0.4446  0.0265
 5325SOL     OW19762   8.287   8.810   4.810  0.1666  0.4834  0.1945
 5325SOL    HW119763   8.265   8.878   4.873 -0.9319 -0.9970  1.5202
 5325SOL    HW219764   8.218   8.815   4.744  0.7917  1.4202 -0.4211
 5326SOL     OW19765   5.072   5.275   1.979 -0.3878 -0.7031  0.5529
 5326SOL    HW119766   5.070   5.330   2.057 -0.3196 -0.4075  0.3486
 5326SOL    HW219767   4.983   5.282   1.942 -0.4022 -0.7925  0.5699
 5327SOL     OW19768   9.288   0.378   1.223  0.4266 -0.0491 -0.1908
 5327SOL    HW119769   9.352   0.448   1.237  0.5287 -0.3332  0.8450
 5327SOL    HW219770   9.287   0.365   1.128  0.4850  1.2714 -0.3896
 5328SOL     OW19771   8.063   6.086   2.006 -0.2655  0.2969 -0.0447
 5328SOL    HW119772   7.998   6.145   2.045  1.8676  3.4645 -0.8122
 5328SOL    HW219773   8.014   6.033   1.944 -2.1732  2.5686 -0.6297
 5329SOL     OW19774   8.872   3.920   5.748  0.0619  0.3757 -0.1128
 5329SOL    HW119775   8.917   3.921   5.663 -1.2754 -1.9001 -0.9460
 5329SOL    HW219776   8.817   3.999   5.747  0.2894  0.5358 -1.2502
 5330SOL     OW19777   6.612   4.727   6.659  0.5581 -0.1884  0.2780
 5330SOL    HW119778   6.677   4.707   6.726  1.3449 -0.5758 -0.5673
 5330SOL    HW219779   6.567   4.644   6.645  1.6606 -0.6160 -0.9663
 5331SOL     OW19780   6.924   0.396   9.320 -0.4515  0.7383 -0.0845
 5331SOL    HW119781   6.951   0.393   9.412 -1.8503 -0.0345  0.3181
 5331SOL    HW219782   7.006   0.394   9.271  0.2654 -0.7683  1.1034
 5332SOL     OW19783   5.207   7.021   1.116  0.3411  0.5338 -0.0181
 5332SOL    HW119784   5.164   6.944   1.153  0.2704  1.2420  1.4508
 5332SOL    HW219785   5.144   7.054   1.052 -0.0165 -0.1012 -0.0058
 5333SOL     OW19786   2.903   9.842   0.566 -0.0747  0.0879  0.2157
 5333SOL    HW119787   2.941   9.902   0.501  1.8415  0.1177  1.2914
 5333SOL    HW219788   2.953   9.761   0.555 -0.7120 -0.3696  0.6902
 5334SOL     OW19789   1.609   6.511   2.157 -0.3691  0.2879  0.2205
 5334SOL    HW119790   1.558   6.490   2.235 -2.4168  2.0814 -0.5305
 5334SOL    HW219791   1.622   6.427   2.113 -3.7439 -0.2248 -0.1070
 5335SOL     OW19792   9.803   8.426   9.193  0.1527 -0.3450 -0.2765
 5335SOL    HW119793   9.728   8.482   9.214  0.3935 -0.0754 -0.1316
 5335SOL    HW219794   9.822   8.379   9.275 -1.5184 -2.4102 -0.9901
 5336SOL     OW19795   4.976   4.358   7.837 -0.0991 -0.3385  0.4393
 5336SOL    HW119796   4.938   4.341   7.751  2.0371 -0.2611 -0.5978
 5336SOL    HW219797   5.069   4.334   7.827  0.8332  2.2649  1.9061
 5337SOL     OW19798   3.230   3.767   9.543  0.6734 -0.3779 -0.1942
 5337SOL    HW119799   3.209   3.738   9.632 -0.3195 -0.2287 -0.3668
 5337SOL    HW219800   3.302   3.829   9.554  2.5766 -2.5241  0.2241
 5338SOL     OW19801   5.819   2.452   1.796 -0.0657 -0.1882  0.6008
 5338SOL    HW119802   5.845   2.530   1.747  0.3390 -0.7571 -0.1215
 5338SOL    HW219803   5.761   2.405   1.736 -1.5450  0.2842  1.6001
 5339SOL     OW19804  10.163   7.502   3.471  0.0236 -0.0696  0.2058
 5339SOL    HW119805  10.195   7.419   3.434 -1.0323 -0.4960  0.1875
 5339SOL    HW219806  10.213   7.513   3.552  1.4382  0.2038 -0.6735
 5340SOL     OW19807  10.212   2.470   9.707 -0.2250 -0.9464 -0.3041
 5340SOL    HW119808  10.162   2.552   9.712  0.1165 -0.7962  0.8498
 5340SOL    HW219809  10.163   2.416   9.644  1.0108  1.1021 -3.2408
 5341SOL     OW19810   7.247   6.136   4.440  0.1194 -0.0246 -0.4382
 5341SOL    HW119811   7.329   6.176   4.468 -0.2285  1.0643 -0.9356
 5341SOL    HW219812   7.183   6.207   4.441 -0.7907 -0.8187 -0.2181
 5342SOL     OW19813  10.164   4.028   1.706 -0.0663  0.3563  0.3825
 5342SOL    HW119814  10.228   4.093   1.675  0.4301  0.0429  0.7202
 5342SOL    HW219815  10.182   4.021   1.800  0.1680 -0.5637  0.2806
 5343SOL     OW19816   6.308   8.612   2.169 -0.3737 -0.0732 -0.6772
 5343SOL    HW119817   6.404   8.611   2.161 -0.4278  0.2711 -1.5201
 5343SOL    HW219818   6.292   8.658   2.251  0.1911 -0.3299 -0.4160
 5344SOL     OW19819   8.766   8.972   0.472  0.0259 -0.2673  0.2692
 5344SOL    HW119820   8.678   8.956   0.505  0.8245 -0.4019  2.5050
 5344SOL    HW219821   8.798   8.884   0.448 -0.1215 -0.3345  0.3151
 5345SOL     OW19822   9.225   3.707   2.453 -0.0603 -1.1237  0.2436
 5345SOL    HW119823   9.180   3.647   2.393 -1.2307  0.2573 -0.3249
 5345SOL    HW219824   9.177   3.789   2.445  2.1549  0.2371  0.1890
 5346SOL     OW19825   4.697   8.418   2.178 -0.6892 -0.0280 -0.1681
 5346SOL    HW119826   4.643   8.391   2.104  0.0905  0.9866 -1.1547
 5346SOL    HW219827   4.643   8.403   2.255 -1.8990 -0.1792 -1.0249
 5347SOL     OW19828   4.153   2.376   4.726 -0.2610 -0.4977 -0.9746
 5347SOL    HW119829   4.205   2.299   4.747  2.1520  1.1167 -0.5792
 5347SOL    HW219830   4.187   2.406   4.641  0.5234  1.3789 -0.0660
 5348SOL     OW19831   9.184   2.505   3.150  0.7131  0.1413  0.6360
 5348SOL    HW119832   9.266   2.549   3.172  0.9230 -0.4114  0.9771
 5348SOL    HW219833   9.117   2.573   3.157  1.4257  1.2113 -2.0140
 5349SOL     OW19834   7.671   6.890   2.652 -0.0983  0.0273 -0.3415
 5349SOL    HW119835   7.704   6.977   2.631 -2.8167  1.0522 -0.8377
 5349SOL    HW219836   7.631   6.859   2.571 -3.4416  0.4802  0.9627
 5350SOL     OW19837   2.668   4.487   7.050 -0.0182 -0.4462  0.0627
 5350SOL    HW119838   2.693   4.533   7.131  0.9222 -0.8910  0.0445
 5350SOL    HW219839   2.670   4.395   7.074 -0.1966 -0.5566 -0.3457
 5351SOL     OW19840   2.091   8.263   5.813  0.2905  0.1300  0.4951
 5351SOL    HW119841   2.082   8.283   5.906 -0.0760  1.4051  0.1944
 5351SOL    HW219842   2.014   8.302   5.772  0.3987 -0.5028 -0.3388
 5352SOL     OW19843   0.530   1.039   2.765  0.1131  0.2616  0.0157
 5352SOL    HW119844   0.462   0.982   2.798  0.5784 -0.5570 -0.4141
 5352SOL    HW219845   0.583   1.061   2.841 -0.4081  0.6050  0.2836
 5353SOL     OW19846   1.034   4.697  10.131 -0.2735 -0.3082  0.3444
 5353SOL    HW119847   1.047   4.789  10.155  0.4575 -0.9226  2.5638
 5353SOL    HW219848   0.943   4.679  10.155 -0.1654 -0.3692  0.7194
 5354SOL     OW19849   7.706   7.692   6.000  0.3671 -0.7090  0.0875
 5354SOL    HW119850   7.749   7.721   5.919 -0.5857 -0.2544 -0.2805
 5354SOL    HW219851   7.769   7.634   6.042  1.4532  0.1793 -0.2702
 5355SOL     OW19852   6.857   4.792   7.770  0.8108  0.0510 -0.3003
 5355SOL    HW119853   6.946   4.769   7.745  0.0380 -0.4218 -2.8744
 5355SOL    HW219854   6.833   4.727   7.837  2.2505 -0.0110  0.1854
 5356SOL     OW19855   2.477   0.661   4.282  0.0528  0.0158  0.7830
 5356SOL    HW119856   2.455   0.620   4.199  0.0757 -1.9569  1.6935
 5356SOL    HW219857   2.414   0.625   4.345  1.1349  0.0735  1.9543
 5357SOL     OW19858   9.712   1.019   4.025 -0.1552 -0.2048  0.9094
 5357SOL    HW119859   9.759   1.058   3.952  0.1911 -1.4966  0.4155
 5357SOL    HW219860   9.770   1.031   4.100  1.5532 -2.6615  0.1272
 5358SOL     OW19861   7.955   7.464   7.575 -0.1308  0.3442  0.5956
 5358SOL    HW119862   7.914   7.531   7.630 -1.0480 -0.2102  0.6092
 5358SOL    HW219863   7.982   7.396   7.636 -2.4686 -0.9543  0.2818
 5359SOL     OW19864   1.890   3.277   2.207 -0.6373 -0.4155  0.0249
 5359SOL    HW119865   1.903   3.352   2.150 -2.1372 -1.5718 -1.9858
 5359SOL    HW219866   1.808   3.296   2.253  0.4768  0.4332  1.7624
 5360SOL     OW19867   5.300   4.780   4.278 -0.1201  0.1318  0.2974
 5360SOL    HW119868   5.337   4.845   4.217 -0.7012 -1.2266 -1.5672
 5360SOL    HW219869   5.374   4.722   4.298 -0.4442 -0.7690 -0.9891
 5361SOL     OW19870   0.508   4.690   3.366 -0.1963 -0.0070  0.1730
 5361SOL    HW119871   0.414   4.683   3.385 -0.2638  0.6120  0.0880
 5361SOL    HW219872   0.546   4.613   3.407 -0.7919 -0.4566 -0.0974
 5362SOL     OW19873   2.648   4.235   1.466 -0.6143 -0.1951 -0.7784
 5362SOL    HW119874   2.735   4.205   1.494 -0.8085 -0.4539 -0.4407
 5362SOL    HW219875   2.596   4.155   1.459 -0.7739 -0.0607 -1.1756
 5363SOL     OW19876   6.764   0.479   1.263  0.5314 -0.5198 -0.2090
 5363SOL    HW119877   6.684   0.525   1.240  2.1628  2.2262 -0.9141
 5363SOL    HW219878   6.787   0.428   1.186 -0.0215 -0.5562 -0.3494
 5364SOL     OW19879   6.734   3.095   4.294 -0.4892 -0.0948  0.1233
 5364SOL    HW119880   6.697   3.052   4.217  0.2496  0.0581 -0.3256
 5364SOL    HW219881   6.817   3.133   4.263 -0.3759  0.3066  0.8936
 5365SOL     OW19882   4.417   6.680   2.099 -0.1878 -0.2829 -0.1805
 5365SOL    HW119883   4.470   6.644   2.028  1.1420  0.1167  0.5866
 5365SOL    HW219884   4.327   6.664   2.072  0.3233 -1.4193 -1.2816
 5366SOL     OW19885   9.492   9.636   7.325 -0.3206  0.6836  0.2207
 5366SOL    HW119886   9.560   9.570   7.333 -0.1743  0.6649 -0.9460
 5366SOL    HW219887   9.434   9.621   7.400 -2.3159 -3.1095 -1.7802
 5367SOL     OW19888   1.848   0.800   7.615 -0.0077  0.3272  0.0692
 5367SOL    HW119889   1.843   0.722   7.560 -1.3870  0.9738 -0.7842
 5367SOL    HW219890   1.828   0.872   7.555  1.3927  1.3749  0.8047
 5368SOL     OW19891   9.450   3.697   0.830 -0.0513  0.2539  0.0084
 5368SOL    HW119892   9.434   3.661   0.917  0.6227  0.1845  0.1108
 5368SOL    HW219893   9.517   3.764   0.843  0.6609 -0.3221 -0.5695
 5369SOL     OW19894   6.976   4.733   2.482 -0.5467 -0.4574 -0.2072
 5369SOL    HW119895   7.019   4.739   2.396  1.1166  2.7861  0.6857
 5369SOL    HW219896   6.891   4.776   2.470 -0.5508 -0.5094 -0.3617
 5370SOL     OW19897   3.692   5.079   1.245 -0.1133  0.0649  0.6595
 5370SOL    HW119898   3.774   5.121   1.219  0.3407 -0.5117  1.1340
 5370SOL    HW219899   3.638   5.082   1.166  0.0299  1.2337  0.5886
 5371SOL     OW19900   7.839   5.530   6.560  0.7292 -0.1665  0.0716
 5371SOL    HW119901   7.813   5.563   6.646 -0.1130 -1.5880  0.3987
 5371SOL    HW219902   7.881   5.604   6.517 -0.6138  1.1524  0.9499
 5372SOL     OW19903   9.465   8.842   6.437  0.1315  0.5238 -0.3383
 5372SOL    HW119904   9.467   8.860   6.531  1.1802 -0.8019 -0.0627
 5372SOL    HW219905   9.478   8.927   6.396  0.4520  1.0185  0.7430
 5373SOL     OW19906   6.312   5.782   5.853 -0.4740  0.0741  0.1004
 5373SOL    HW119907   6.319   5.760   5.946 -0.8045  0.8778  0.3274
 5373SOL    HW219908   6.296   5.698   5.810 -1.3933 -0.1799  0.8984
 5374SOL     OW19909   8.211   8.490   0.556  0.6033 -0.3855  0.0689
 5374SOL    HW119910   8.198   8.405   0.598 -2.1408 -0.7594 -1.2719
 5374SOL    HW219911   8.176   8.553   0.619  1.6321 -0.3252  0.6032
 5375SOL     OW19912   6.098   6.057   9.478 -0.0276 -0.3725 -0.4199
 5375SOL    HW119913   6.193   6.068   9.482 -0.0826 -0.1111  0.2482
 5375SOL    HW219914   6.066   6.132   9.427  0.1613 -0.7132 -1.0533
 5376SOL     OW19915   6.234  10.075   8.761 -0.4430  0.1401 -0.0988
 5376SOL    HW119916   6.219   9.995   8.812  1.0128  0.9334  1.6500
 5376SOL    HW219917   6.291  10.047   8.690  1.1211 -0.1773  1.2332
 5377SOL     OW19918   8.808   2.258   0.977  0.4992  0.3387  0.0068
 5377SOL    HW119919   8.895   2.266   1.017  0.1008  1.6065  0.6625
 5377SOL    HW219920   8.761   2.198   1.035  0.8176 -0.0545 -0.1389
 5378SOL     OW19921   5.178   7.338   0.187  0.1435  0.2611 -0.6496
 5378SOL    HW119922   5.182   7.357   0.281 -1.1189 -1.7070 -0.1559
 5378SOL    HW219923   5.236   7.404   0.148  2.1224  0.0519  1.6556
 5379SOL     OW19924   5.987   1.849   7.107  0.0720  0.0257 -0.2625
 5379SOL    HW119925   5.897   1.874   7.087  0.2985 -0.1006 -1.4895
 5379SOL    HW219926   6.003   1.883   7.195  0.0662  3.4097 -1.4477
 5380SOL     OW19927   5.570   2.496   8.136  0.3130 -0.4805 -1.0716
 5380SOL    HW119928   5.523   2.577   8.119 -0.7106 -0.8819 -0.2630
 5380SOL    HW219929   5.582   2.494   8.231 -0.0122 -1.4435 -1.0359
 5381SOL     OW19930   5.048   2.691   4.119  0.3110  0.2488 -0.4306
 5381SOL    HW119931   5.021   2.621   4.177  0.3417  0.3154 -0.3358
 5381SOL    HW219932   4.996   2.678   4.039  0.9868 -0.4414 -0.7740
 5382SOL     OW19933   2.279   0.524   9.774  0.5411 -0.3701  0.0751
 5382SOL    HW119934   2.273   0.593   9.708 -0.5812 -0.8114 -0.3081
 5382SOL    HW219935   2.352   0.551   9.830  0.1887  1.0841 -0.1180
 5383SOL     OW19936   0.341   9.986   9.145 -0.0472 -0.0119  0.3310
 5383SOL    HW119937   0.266   9.969   9.088 -0.2189 -0.3480  0.6562
 5383SOL    HW219938   0.356   9.904   9.191  0.2390  0.1872  0.6021
 5384SOL     OW19939   4.163   6.777   1.542  0.0765  0.2610  0.0839
 5384SOL    HW119940   4.149   6.780   1.448  0.4673 -2.2096 -0.1094
 5384SOL    HW219941   4.253   6.806   1.554  0.0558  0.4928 -0.3161
 5385SOL     OW19942   2.340   8.107   6.801  0.2691 -0.5352  0.0262
 5385SOL    HW119943   2.277   8.178   6.810 -1.0163 -1.7297  1.1234
 5385SOL    HW219944   2.365   8.108   6.709 -0.0035  1.0665 -0.0580
 5386SOL     OW19945   7.751   3.530   0.390 -0.0209 -0.0591 -0.4429
 5386SOL    HW119946   7.829   3.485   0.423  0.5877  0.5623 -0.9981
 5386SOL    HW219947   7.723   3.477   0.315  1.3781  1.0669 -1.8217
 5387SOL     OW19948   7.962   8.561   3.561 -0.2498  0.1536  0.4025
 5387SOL    HW119949   7.868   8.552   3.544 -0.0352  0.1209 -0.8373
 5387SOL    HW219950   7.982   8.488   3.620 -0.5062 -1.4975 -1.4428
 5388SOL     OW19951   1.305   2.255   6.492  0.0579  0.1281 -0.0252
 5388SOL    HW119952   1.351   2.243   6.576  1.2711  0.9128 -0.5402
 5388SOL    HW219953   1.304   2.168   6.453 -0.9725 -0.3537  1.0081
 5389SOL     OW19954   8.668   1.063   6.007 -0.3673 -0.1208 -0.5823
 5389SOL    HW119955   8.690   1.104   6.091 -0.5421  1.6077 -1.3397
 5389SOL    HW219956   8.681   0.970   6.022  0.0307  0.1885  1.2392
 5390SOL     OW19957   0.315   5.026   4.281 -0.0290 -0.7195  0.2309
 5390SOL    HW119958   0.285   4.938   4.257  0.7415 -0.8083 -0.4344
 5390SOL    HW219959   0.410   5.021   4.274 -0.0186  0.3893 -0.5398
 5391SOL     OW19960   8.799   7.644   8.967 -0.4043 -0.1335 -0.0410
 5391SOL    HW119961   8.711   7.660   8.932 -0.3824  0.5762  0.2061
 5391SOL    HW219962   8.809   7.549   8.963 -0.8926 -0.1634 -0.7622
 5392SOL     OW19963   4.545   9.331   4.774 -0.0918 -0.3356  0.3456
 5392SOL    HW119964   4.601   9.402   4.742 -0.0455 -0.4309  0.2118
 5392SOL    HW219965   4.492   9.371   4.842 -0.9859  0.1564 -0.6117
 5393SOL     OW19966   5.220   4.996   9.659  0.3631 -0.1538  0.6215
 5393SOL    HW119967   5.198   4.911   9.623  0.9798  0.4202 -1.2441
 5393SOL    HW219968   5.175   5.000   9.743 -0.3055 -1.9905  0.3786
 5394SOL     OW19969   5.061   6.107   2.459  0.5096  0.5212 -0.4895
 5394SOL    HW119970   5.113   6.188   2.462  0.4489  0.5599 -0.4774
 5394SOL    HW219971   5.060   6.076   2.550  0.6131  0.4549 -0.5103
 5395SOL     OW19972   8.091   1.038   9.050 -0.7198 -0.0177  0.1893
 5395SOL    HW119973   8.021   1.098   9.023 -2.4260 -1.8879  0.2141
 5395SOL    HW219974   8.065   1.010   9.138  0.3353 -0.4048  0.3858
 5396SOL     OW19975  10.168   1.057   4.586  1.1223  0.2628  0.3639
 5396SOL    HW119976  10.097   0.999   4.558 -0.3811  2.1906  0.0295
 5396SOL    HW219977  10.202   1.093   4.504  2.1422 -0.1983  0.5637
 5397SOL     OW19978   6.632   5.011   7.370 -0.0752  0.0189 -0.2378
 5397SOL    HW119979   6.583   4.930   7.386 -1.1742  0.3910 -1.5587
 5397SOL    HW219980   6.672   5.031   7.455  2.2906 -3.1872 -0.4101
 5398SOL     OW19981   2.048   3.773   7.929 -0.1642  0.2247  0.6848
 5398SOL    HW119982   2.125   3.759   7.875 -0.3349 -0.7944  0.6829
 5398SOL    HW219983   1.974   3.750   7.872 -0.4127  0.2294  1.0019
 5399SOL     OW19984   5.984   0.660   7.336 -0.1402  0.1989  1.2228
 5399SOL    HW119985   5.946   0.586   7.384 -0.9486 -0.4747 -0.3789
 5399SOL    HW219986   5.924   0.733   7.353 -2.2231 -0.8072 -1.1402
 5400SOL     OW19987   0.757   1.163   7.086 -0.2094 -0.3023 -0.2406
 5400SOL    HW119988   0.785   1.225   7.020  0.9879 -1.1873 -0.5919
 5400SOL    HW219989   0.688   1.111   7.043  0.4112 -0.7312 -0.7266
 5401SOL     OW19990  10.045   9.214   9.189 -0.7419 -0.0828  0.2427
 5401SOL    HW119991  10.026   9.139   9.246  0.6569 -1.8220 -1.4419
 5401SOL    HW219992  10.035   9.290   9.246  0.0340 -1.6750  2.6747
 5402SOL     OW19993   9.439   2.995   7.540  0.1618  0.8947 -0.0164
 5402SOL    HW119994   9.367   2.970   7.482  0.4686  0.1959 -0.1064
 5402SOL    HW219995   9.479   2.912   7.566  0.5056  1.2416  0.5860
 5403SOL     OW19996   4.717   2.756   3.000  0.1018 -0.0024  0.6373
 5403SOL    HW119997   4.625   2.751   3.022  0.1940  1.7826  1.4966
 5403SOL    HW219998   4.760   2.695   3.060 -0.2992  0.6247  1.5676
 5404SOL     OW19999   0.860   7.074   4.145  0.1275 -0.2756 -0.1234
 5404SOL    HW120000   0.897   6.992   4.112  0.9105  0.5761 -1.4464
 5404SOL    HW220001   0.799   7.102   4.077  1.0093  1.0019 -0.4279
 5405SOL     OW20002   2.627   1.193   4.565  0.1988  0.1916  0.0584
 5405SOL    HW120003   2.721   1.207   4.577  0.3266  0.0314 -0.7146
 5405SOL    HW220004   2.615   1.191   4.470 -0.6500  0.6277  0.1482
 5406SOL     OW20005   0.587   5.487   8.472  0.2738 -1.0473 -0.2800
 5406SOL    HW120006   0.647   5.420   8.504  0.0153 -0.5365  1.3493
 5406SOL    HW220007   0.502   5.442   8.465  0.1217 -0.9439  0.7165
 5407SOL     OW20008   0.819   6.343   9.390  0.7166 -0.1798 -0.1814
 5407SOL    HW120009   0.899   6.296   9.366  1.2111  0.3000  0.4800
 5407SOL    HW220010   0.784   6.293   9.464  0.0239 -0.7787 -0.8933
 5408SOL     OW20011   0.051   3.614   5.413  0.6137 -0.3333  0.1246
 5408SOL    HW120012   0.140   3.615   5.378  0.9297 -0.7363  0.8898
 5408SOL    HW220013   0.032   3.521   5.425  0.0063 -0.2579 -0.2300
 5409SOL     OW20014   9.343   0.276   2.507 -0.3124 -0.0046  0.1077
 5409SOL    HW120015   9.280   0.296   2.577  0.3378  0.2021  0.6475
 5409SOL    HW220016   9.428   0.296   2.546 -0.0322  1.9915 -1.4094
 5410SOL     OW20017   7.882   8.184   8.684  0.2090 -0.1715  0.6872
 5410SOL    HW120018   7.823   8.153   8.616  0.0785  1.2145  0.1336
 5410SOL    HW220019   7.880   8.116   8.751 -0.0246 -1.3343 -0.4721
 5411SOL     OW20020   7.579   3.635   9.176  0.8766  0.2138  0.0197
 5411SOL    HW120021   7.641   3.562   9.168  2.0531  1.2945 -1.1985
 5411SOL    HW220022   7.493   3.594   9.166  1.4299 -1.1585  0.5279
 5412SOL     OW20023   7.041   9.836   5.148  0.0190  0.0356 -0.0537
 5412SOL    HW120024   7.128   9.797   5.149 -0.1326 -0.3071  0.1737
 5412SOL    HW220025   6.999   9.798   5.071  0.3470  0.8359 -0.6413
 5413SOL     OW20026   3.060   4.954   4.004  0.1204  0.0113 -0.0345
 5413SOL    HW120027   3.111   5.009   4.062  1.0828  1.2607 -1.9572
 5413SOL    HW220028   3.062   4.867   4.045  2.2626  0.4366  0.8692
 5414SOL     OW20029   0.278   8.160   5.441 -0.2096 -0.3291  0.5469
 5414SOL    HW120030   0.312   8.217   5.372 -0.4588 -0.1516  0.5688
 5414SOL    HW220031   0.321   8.076   5.426 -0.6503 -0.4356 -0.1389
 5415SOL     OW20032   8.819   5.975   0.804 -0.4452 -0.5538  0.4685
 5415SOL    HW120033   8.726   5.997   0.812 -0.1221  1.2048 -0.0760
 5415SOL    HW220034   8.830   5.949   0.713 -0.2442  0.2087  0.2653
 5416SOL     OW20035   8.995   7.906   0.172  0.2447  0.1538 -0.3074
 5416SOL    HW120036   8.972   7.997   0.154  1.5249  0.3569 -1.0719
 5416SOL    HW220037   9.030   7.874   0.089 -0.6579 -1.2050 -0.1936
 5417SOL     OW20038   3.404   1.543   7.396 -0.1349 -0.2474 -0.7429
 5417SOL    HW120039   3.457   1.581   7.466 -0.0439  0.3013 -1.1047
 5417SOL    HW220040   3.464   1.534   7.322  0.2980 -2.6538 -0.1889
 5418SOL     OW20041   1.670   5.868   0.855 -0.1589 -0.6868  0.0651
 5418SOL    HW120042   1.750   5.861   0.804  0.4587 -1.6999  1.1346
 5418SOL    HW220043   1.614   5.796   0.825  0.1323 -1.1736  0.6745
 5419SOL     OW20044   2.762  10.305   1.476 -0.2237 -0.2562  0.1937
 5419SOL    HW120045   2.812  10.226   1.455  1.0547  0.6735 -0.4186
 5419SOL    HW220046   2.696  10.275   1.539 -0.2397 -1.9336 -0.5524
 5420SOL     OW20047   2.217   6.190   1.254  0.2063  0.6719  0.2841
 5420SOL    HW120048   2.297   6.183   1.202  0.1617 -0.7750  0.3811
 5420SOL    HW220049   2.158   6.242   1.200  0.3897 -0.2337 -0.8239
 5421SOL     OW20050   1.412   0.670   6.528  0.9377  0.1581 -0.5489
 5421SOL    HW120051   1.338   0.723   6.558 -0.8721 -2.0969 -0.7272
 5421SOL    HW220052   1.481   0.686   6.593 -0.3452  0.9421  0.6704
 5422SOL     OW20053   1.245   4.328   3.568 -0.5418 -0.1478  0.4438
 5422SOL    HW120054   1.225   4.257   3.630  0.0106 -0.2953  0.4560
 5422SOL    HW220055   1.186   4.399   3.594 -0.2485 -0.1716  1.2101
 5423SOL     OW20056   5.580   4.715  10.019  0.0496 -0.1578  0.3474
 5423SOL    HW120057   5.508   4.776  10.006 -0.0653 -0.3417  0.1186
 5423SOL    HW220058   5.600   4.682   9.931  1.3475  0.9612  0.1953
 5424SOL     OW20059   1.330   4.879   0.317  0.1570 -0.3568 -0.5037
 5424SOL    HW120060   1.269   4.825   0.267 -0.4234  0.5632 -0.8178
 5424SOL    HW220061   1.276   4.920   0.385  0.7421 -0.7956  0.2499
 5425SOL     OW20062   1.950   2.821   9.865 -0.1936 -0.6302  0.2631
 5425SOL    HW120063   1.921   2.907   9.835  2.8243  0.2402 -0.4801
 5425SOL    HW220064   1.906   2.759   9.808 -0.7422  0.5566 -0.6333
 5426SOL     OW20065   0.732   1.418   5.308 -0.1271 -0.0699 -0.2991
 5426SOL    HW120066   0.786   1.352   5.351 -1.5670 -1.0436  0.1186
 5426SOL    HW220067   0.642   1.386   5.319 -0.9164  2.0941  0.1285
 5427SOL     OW20068   2.105   4.295   8.344 -0.5167 -0.9976 -0.7702
 5427SOL    HW120069   2.016   4.309   8.313 -1.8052 -3.1078  1.6365
 5427SOL    HW220070   2.134   4.216   8.297 -0.3086 -0.9159 -0.7807
 5428SOL     OW20071   3.256   6.144   0.883  0.5393  0.5348 -0.0915
 5428SOL    HW120072   3.209   6.066   0.853  0.1977 -0.7002  3.2361
 5428SOL    HW220073   3.339   6.141   0.835  0.0492 -1.2167 -0.9251
 5429SOL     OW20074   7.650   1.493   5.808 -0.3734  0.2290 -0.6230
 5429SOL    HW120075   7.583   1.429   5.784  1.0010 -0.9977 -1.3489
 5429SOL    HW220076   7.692   1.516   5.726 -0.5226  1.7389 -0.3026
 5430SOL     OW20077   9.832   4.912   2.216 -0.2815 -0.1149 -0.1963
 5430SOL    HW120078   9.739   4.930   2.200 -0.6542 -2.9977 -2.1746
 5430SOL    HW220079   9.836   4.817   2.225  2.4163 -0.0098  0.4578
 5431SOL     OW20080   4.883   5.110   0.912 -0.1037 -0.1458  0.3871
 5431SOL    HW120081   4.932   5.192   0.909 -1.6926  0.8268  0.1870
 5431SOL    HW220082   4.946   5.046   0.945  1.6640  0.7777 -1.0315
 5432SOL     OW20083   2.988   9.838   6.363 -0.2148 -0.2516 -0.4544
 5432SOL    HW120084   2.901   9.864   6.392  0.2084 -0.1466  0.7852
 5432SOL    HW220085   3.045   9.910   6.391  0.0516  0.4935 -2.7444
 5433SOL     OW20086   4.790   9.833   3.922  0.7011 -0.2726 -0.0521
 5433SOL    HW120087   4.763   9.749   3.886 -1.4911 -0.0021  0.7838
 5433SOL    HW220088   4.797   9.890   3.846 -0.1467 -0.6417 -0.4218
 5434SOL     OW20089   3.590   2.403   5.564 -0.3982 -0.1706  0.4394
 5434SOL    HW120090   3.625   2.336   5.506  3.0872 -0.8534  3.0055
 5434SOL    HW220091   3.527   2.357   5.619 -0.4444 -0.5437  0.0797
 5435SOL     OW20092   7.865  10.149   7.583  0.6087 -0.2966  0.5516
 5435SOL    HW120093   7.832  10.156   7.494  0.6500 -2.0224  0.3659
 5435SOL    HW220094   7.882  10.055   7.595 -1.4965 -0.4478  3.1169
 5436SOL     OW20095   1.368   1.649   7.761  0.1746 -0.2900  0.2173
 5436SOL    HW120096   1.461   1.672   7.766  0.0953  0.2901 -0.6972
 5436SOL    HW220097   1.362   1.564   7.805  0.7818  0.6114  2.1267
 5437SOL     OW20098   1.245   3.777   7.674  0.2079 -0.1481  0.2863
 5437SOL    HW120099   1.180   3.751   7.739  0.4737 -0.9124  0.2570
 5437SOL    HW220100   1.317   3.715   7.686  0.5938  0.1938 -0.2161
 5438SOL     OW20101   7.377   6.571   2.689  0.1550 -0.0749  0.8120
 5438SOL    HW120102   7.310   6.509   2.660  1.2342 -0.6441 -0.5760
 5438SOL    HW220103   7.442   6.517   2.734 -0.4971  0.5340  2.5417
 5439SOL     OW20104   9.569   4.031   8.796  0.1601  0.2325  0.1924
 5439SOL    HW120105   9.518   4.072   8.866  2.0839 -0.7056  2.2838
 5439SOL    HW220106   9.657   4.065   8.808  0.7050 -0.5859 -1.2833
 5440SOL     OW20107   0.713   3.764   1.263 -0.4626 -0.2833  0.0256
 5440SOL    HW120108   0.713   3.803   1.176  0.1803  0.4199  0.3303
 5440SOL    HW220109   0.623   3.731   1.274 -0.7651  0.2918 -0.6051
 5441SOL     OW20110   8.691   2.513   1.558  0.1023  0.7841  0.3381
 5441SOL    HW120111   8.717   2.537   1.646 -1.1441 -0.0264  0.9489
 5441SOL    HW220112   8.745   2.436   1.537  1.1070  1.5575 -0.0209
 5442SOL     OW20113   5.038   9.808   5.457 -0.2715 -0.1582  0.0270
 5442SOL    HW120114   5.099   9.809   5.531  1.9503  0.9640 -1.7131
 5442SOL    HW220115   4.958   9.848   5.492 -0.5084 -2.5378  2.6546
 5443SOL     OW20116   1.666   0.613   4.520 -0.2086  0.5731  0.2562
 5443SOL    HW120117   1.754   0.596   4.486  0.4879  0.9144  1.7995
 5443SOL    HW220118   1.634   0.686   4.467  1.2481  1.7646  0.9628
 5444SOL     OW20119   4.600   1.131   6.590  0.0611 -0.2990  0.2390
 5444SOL    HW120120   4.658   1.157   6.519 -0.2186 -0.2645  0.0219
 5444SOL    HW220121   4.658   1.099   6.659  0.3044 -0.7685 -0.1848
 5445SOL     OW20122   3.358   0.489   8.282 -0.2179 -0.5168  0.0754
 5445SOL    HW120123   3.263   0.476   8.273 -0.2108  0.6318 -3.0347
 5445SOL    HW220124   3.397   0.416   8.234  0.4686 -0.8080  1.0685
 5446SOL     OW20125   5.491   8.203   9.530 -0.9529 -0.1077  0.5783
 5446SOL    HW120126   5.579   8.229   9.502 -0.1286 -2.8187  0.3552
 5446SOL    HW220127   5.439   8.207   9.450 -0.2062 -1.4789 -0.0220
 5447SOL     OW20128   9.590   3.640   7.104 -0.3488  0.2993  0.3775
 5447SOL    HW120129   9.526   3.709   7.089 -0.9915 -0.5686 -1.1464
 5447SOL    HW220130   9.661   3.658   7.042 -0.7654 -0.6586 -0.4133
 5448SOL     OW20131   4.190   0.630   2.578  0.1895 -0.7314  0.1280
 5448SOL    HW120132   4.238   0.711   2.596 -0.4912 -0.8234  2.7578
 5448SOL    HW220133   4.121   0.656   2.517  1.1574  0.2176 -0.6068
 5449SOL     OW20134  10.093   6.207   5.301 -0.2966 -0.1446  0.0173
 5449SOL    HW120135  10.130   6.136   5.250 -0.7936 -0.3039 -0.1216
 5449SOL    HW220136  10.137   6.286   5.267  0.5456 -0.4180  0.4460
 5450SOL     OW20137   1.556   4.203   5.329 -0.5807  0.3025 -0.1002
 5450SOL    HW120138   1.546   4.290   5.366  0.5447  0.7095 -0.6894
 5450SOL    HW220139   1.548   4.143   5.403 -1.4748  0.8965  0.2868
 5451SOL     OW20140   3.119   0.657   5.290 -0.0844  0.1062  0.5557
 5451SOL    HW120141   3.091   0.565   5.289  1.1872 -0.2897  0.3365
 5451SOL    HW220142   3.204   0.656   5.333 -1.0393  1.5094  2.5817
 5452SOL     OW20143   9.945   4.863   7.226  0.1778 -0.0859  0.3050
 5452SOL    HW120144   9.878   4.924   7.197  0.6832  0.1940 -0.2975
 5452SOL    HW220145  10.017   4.918   7.257 -0.4476 -0.3683  2.4102
 5453SOL     OW20146   6.812   6.508   3.450  0.4193 -0.1087  0.1353
 5453SOL    HW120147   6.789   6.547   3.534  1.1177  0.8594 -0.1034
 5453SOL    HW220148   6.770   6.422   3.451  0.0735  0.0574  1.2938
 5454SOL     OW20149   8.811   4.804   0.017 -0.3142 -0.0143 -0.2023
 5454SOL    HW120150   8.869   4.875   0.044 -1.4239  0.5042  0.8682
 5454SOL    HW220151   8.827   4.795  -0.077  1.2945  0.2867  0.0028
 5455SOL     OW20152   1.040   2.618   8.381  0.4981  0.4333 -0.1587
 5455SOL    HW120153   1.016   2.536   8.423 -0.7223 -0.1313 -1.8436
 5455SOL    HW220154   1.133   2.608   8.360  0.0565 -1.1360 -1.5690
 5456SOL     OW20155   9.341   9.853   8.653 -0.2820 -1.2934  0.2602
 5456SOL    HW120156   9.422   9.878   8.699 -1.2696 -0.6594  1.7182
 5456SOL    HW220157   9.301   9.936   8.628 -2.0545 -1.4213  2.4139
 5457SOL     OW20158   6.892  10.207   8.878  0.5039 -0.0603  0.5433
 5457SOL    HW120159   6.963  10.234   8.821 -0.4865  1.8872  0.1274
 5457SOL    HW220160   6.930  10.207   8.966  1.0406  0.9988  0.3322
 5458SOL     OW20161   6.469   4.631   0.396  0.8390  0.4394 -0.2150
 5458SOL    HW120162   6.421   4.693   0.451  0.1514  1.1310 -1.5352
 5458SOL    HW220163   6.498   4.563   0.457  0.7219  1.5176  1.1059
 5459SOL     OW20164   6.057  10.052  10.042  0.8669  0.2389 -0.2001
 5459SOL    HW120165   5.987  10.055  10.107  0.8297  1.5561 -0.2705
 5459SOL    HW220166   6.085   9.960  10.041  0.7921  0.1603  1.5923
 5460SOL     OW20167   2.328   6.274   5.128  0.0527 -0.0204  0.1819
 5460SOL    HW120168   2.315   6.358   5.172 -0.5865  0.1715 -0.3669
 5460SOL    HW220169   2.422   6.270   5.110  0.3812 -0.2136  1.7714
 5461SOL     OW20170   8.556   6.923   9.140 -0.1401  0.1073  0.3571
 5461SOL    HW120171   8.464   6.933   9.165 -0.2315  0.9080 -0.2742
 5461SOL    HW220172   8.556   6.928   9.045  0.5035 -0.4427  0.3175
 5462SOL     OW20173   3.445   6.365   7.530  0.4547 -0.1703  0.8171
 5462SOL    HW120174   3.444   6.304   7.456  0.4699 -2.4656  2.5714
 5462SOL    HW220175   3.360   6.353   7.572 -0.0529  2.0211  0.5562
 5463SOL     OW20176   6.692   5.482   4.055  0.1963 -0.2726  0.8826
 5463SOL    HW120177   6.740   5.459   3.975  1.0914 -0.1852  1.3749
 5463SOL    HW220178   6.653   5.399   4.084 -0.3700 -0.2513  0.2155
 5464SOL     OW20179   4.054   4.989   0.168 -0.4214  0.0004 -0.0506
 5464SOL    HW120180   3.983   5.037   0.210 -0.6803  0.6544 -1.2006
 5464SOL    HW220181   4.072   5.037   0.087  1.2974 -0.1875  0.1753
 5465SOL     OW20182   8.931   6.150   1.929 -0.1584  0.2800 -0.1224
 5465SOL    HW120183   9.021   6.165   1.959 -0.3432  1.6621 -0.1969
 5465SOL    HW220184   8.899   6.079   1.984  1.0433 -0.3730 -0.2288
 5466SOL     OW20185   8.857   6.176  10.215 -0.0046 -0.3910 -0.2475
 5466SOL    HW120186   8.851   6.217  10.301  0.2056  0.5944 -0.6896
 5466SOL    HW220187   8.848   6.249  10.153 -2.2258 -1.3025 -1.1102
 5467SOL     OW20188   1.651   0.585   4.038  0.4054  0.1471  0.2157
 5467SOL    HW120189   1.617   0.674   4.051 -0.8273 -0.1058 -0.9621
 5467SOL    HW220190   1.745   0.593   4.050  0.1070  1.1786  2.2511
 5468SOL     OW20191   4.456  10.307   5.951  0.2345 -0.0233 -0.0243
 5468SOL    HW120192   4.382  10.335   6.006 -1.5138 -3.1062 -0.5968
 5468SOL    HW220193   4.517  10.267   6.012 -0.3385 -0.8292  0.0250
 5469SOL     OW20194   5.882   3.944   2.414  0.5919  0.3446  0.1310
 5469SOL    HW120195   5.852   3.886   2.485  1.8212 -0.3011  0.1389
 5469SOL    HW220196   5.904   4.026   2.458 -1.1499  0.8653  0.1215
 5470SOL     OW20197   7.565   9.332   9.304 -0.8926  0.4285 -0.0428
 5470SOL    HW120198   7.656   9.346   9.278 -0.3066 -0.2678  1.5318
 5470SOL    HW220199   7.535   9.261   9.248 -0.7221  1.1481 -1.0809
 5471SOL     OW20200   3.078   4.602   8.029  0.0488 -0.4681  0.2724
 5471SOL    HW120201   3.056   4.682   7.982  1.0214 -0.5996 -0.4345
 5471SOL    HW220202   3.000   4.582   8.080 -1.3694 -0.8003 -1.9297
 5472SOL     OW20203   3.787   4.010   5.515  0.2027 -0.8867 -0.4300
 5472SOL    HW120204   3.798   3.933   5.459  0.0378 -0.9733 -0.3431
 5472SOL    HW220205   3.752   3.976   5.597 -0.6194 -0.6270 -0.6634
 5473SOL     OW20206   3.805   1.480   4.612  0.2475 -0.0968  0.1915
 5473SOL    HW120207   3.851   1.413   4.664  1.4667  0.5524 -0.0247
 5473SOL    HW220208   3.874   1.536   4.578 -0.6333  0.2565 -1.0888
 5474SOL     OW20209   8.107   0.249   0.094 -0.3141 -0.8099  0.3105
 5474SOL    HW120210   8.116   0.344   0.090 -0.5302 -0.6864  1.8746
 5474SOL    HW220211   8.194   0.218   0.120 -0.1866 -1.0663 -0.4034
 5475SOL     OW20212   2.660   6.760   4.561 -0.0327  0.7603 -0.3357
 5475SOL    HW120213   2.593   6.737   4.497 -1.9942  1.1466  1.4774
 5475SOL    HW220214   2.656   6.691   4.627  1.5807  0.6496 -0.2926
 5476SOL     OW20215   9.890   7.189   0.926  0.1532 -0.2475 -0.4438
 5476SOL    HW120216   9.947   7.206   1.001  1.2644  1.5057 -1.6225
 5476SOL    HW220217   9.857   7.100   0.940  0.6589 -0.1236  1.8846
 5477SOL     OW20218   4.653   7.236   9.651  0.2326 -0.0924  0.1032
 5477SOL    HW120219   4.707   7.305   9.691  1.5382 -1.2257  0.3493
 5477SOL    HW220220   4.565   7.272   9.653  1.0035  2.0454 -0.7661
 5478SOL     OW20221   7.415   9.276   8.050  0.0012  0.0047  0.8450
 5478SOL    HW120222   7.328   9.265   8.011  0.2986 -0.2200  0.2414
 5478SOL    HW220223   7.424   9.202   8.109  0.0832 -0.3870  0.3441
 5479SOL     OW20224   0.035   4.584   2.060 -0.5091  0.2870 -0.0029
 5479SOL    HW120225   0.062   4.675   2.070  0.9867 -0.1693  0.3230
 5479SOL    HW220226  -0.003   4.561   2.145 -0.2898  0.4213  0.1333
 5480SOL     OW20227   1.415   9.500   3.743  0.3232  0.0497 -1.0485
 5480SOL    HW120228   1.372   9.444   3.808  1.5720  0.0886 -0.1517
 5480SOL    HW220229   1.500   9.458   3.728  0.5824  0.7768 -1.6528
 5481SOL     OW20230   5.430   1.904   8.062  0.1805  0.3556  0.2330
 5481SOL    HW120231   5.354   1.931   8.010  0.9486  2.0664 -0.0550
 5481SOL    HW220232   5.492   1.872   7.996  0.8953  1.9037  0.1081
 5482SOL     OW20233   0.043   9.543   7.893  0.1670 -0.4348 -0.0251
 5482SOL    HW120234   0.063   9.565   7.984 -2.1680 -0.4538  0.5635
 5482SOL    HW220235   0.037   9.627   7.848  1.3155 -0.4258 -0.1948
 5483SOL     OW20236   7.655   2.037   0.814 -0.1192 -0.3244 -0.5363
 5483SOL    HW120237   7.568   2.020   0.852 -0.0184 -0.7568 -0.4953
 5483SOL    HW220238   7.680   2.122   0.849 -1.2485  0.5990 -1.8459
 5484SOL     OW20239   6.154   1.143   8.247 -0.3318 -0.6172  0.1125
 5484SOL    HW120240   6.202   1.068   8.213  0.4897  0.0806 -0.3067
 5484SOL    HW220241   6.078   1.151   8.190 -0.8006 -1.5263  0.5773
 5485SOL     OW20242   1.299   0.311   6.763 -0.6116 -0.2299 -0.2068
 5485SOL    HW120243   1.254   0.356   6.692 -0.7911  0.9623  0.6475
 5485SOL    HW220244   1.380   0.279   6.723  0.1703  2.0178 -0.5486
 5486SOL     OW20245   0.086   4.662   1.032  0.4071  0.1253  0.4914
 5486SOL    HW120246   0.040   4.596   1.083  0.9405 -1.1588 -0.6048
 5486SOL    HW220247   0.164   4.616   0.999  1.0390  1.4425  0.0691
 5487SOL     OW20248   5.819   6.890   0.905  0.0613 -0.4902  0.0036
 5487SOL    HW120249   5.777   6.822   0.852 -0.0648 -0.9396  0.6570
 5487SOL    HW220250   5.771   6.970   0.884 -1.0734 -0.9667  0.6386
 5488SOL     OW20251   8.419   5.053   6.393 -0.1247  0.1621  0.4740
 5488SOL    HW120252   8.438   5.142   6.421 -1.2435 -0.1215  2.3391
 5488SOL    HW220253   8.474   4.998   6.450 -0.8100 -0.3802  0.6282
 5489SOL     OW20254   7.632   2.442   4.313 -0.3570 -0.3541  0.4225
 5489SOL    HW120255   7.651   2.528   4.350  0.0290 -0.9872  1.7502
 5489SOL    HW220256   7.550   2.454   4.264  0.1164  0.9400 -0.0819
 5490SOL     OW20257   9.379   1.786   1.158  0.3941 -0.0136 -0.3401
 5490SOL    HW120258   9.322   1.759   1.230  0.1626 -0.2843 -0.6214
 5490SOL    HW220259   9.334   1.756   1.079  0.8618 -0.1141 -0.5730
 5491SOL     OW20260   4.531   0.091   1.260  0.5033  0.1429 -0.1483
 5491SOL    HW120261   4.625   0.081   1.275  0.8186 -1.0697 -2.4684
 5491SOL    HW220262   4.498   0.002   1.255 -0.6135  0.5529 -0.3076
 5492SOL     OW20263   3.587   9.307   4.134 -0.3888  0.0707  0.0241
 5492SOL    HW120264   3.558   9.308   4.043  1.2393  2.2824 -0.5455
 5492SOL    HW220265   3.545   9.384   4.173 -0.5563 -0.4943  1.0032
 5493SOL     OW20266   5.020   0.802   7.782  0.0612 -0.3362  0.2855
 5493SOL    HW120267   4.967   0.770   7.709  1.5939 -1.4466 -0.4004
 5493SOL    HW220268   5.094   0.741   7.787 -0.2129 -0.6033  3.0860
 5494SOL     OW20269   1.707   7.058   5.706  1.2838 -0.3196 -1.1231
 5494SOL    HW120270   1.684   7.071   5.614 -0.1310  0.2844 -0.7052
 5494SOL    HW220271   1.673   7.136   5.751  1.3751 -0.9088  0.0086
 5495SOL     OW20272   4.593   9.680   2.997 -0.5333  0.1276  0.2024
 5495SOL    HW120273   4.635   9.602   3.035  0.6347  0.8445  0.4411
 5495SOL    HW220274   4.606   9.670   2.903 -0.7666 -0.1786  0.2020
 5496SOL     OW20275   0.058   1.735   1.563  0.1955  0.0565  0.2719
 5496SOL    HW120276   0.072   1.776   1.649  0.6305  0.5076 -0.0087
 5496SOL    HW220277   0.097   1.796   1.501 -1.4444  0.4807 -0.4012
 5497SOL     OW20278   2.638   7.990   6.645  0.0336 -0.2013  0.3496
 5497SOL    HW120279   2.615   7.980   6.553  3.1698 -0.1832 -0.5444
 5497SOL    HW220280   2.614   7.907   6.685 -0.4809 -0.5694 -0.6849
 5498SOL     OW20281   0.579   4.381   0.722 -0.5066 -0.4395 -0.0855
 5498SOL    HW120282   0.603   4.349   0.809 -1.8399 -1.9306 -0.2135
 5498SOL    HW220283   0.637   4.455   0.707  0.8972 -1.1631  1.3906
 5499SOL     OW20284   7.364   3.107   7.487  0.1173 -0.0525 -0.0918
 5499SOL    HW120285   7.299   3.087   7.420  0.7683 -0.8420 -0.4995
 5499SOL    HW220286   7.380   3.201   7.477 -0.8324  0.1223 -0.0862
 5500SOL     OW20287   6.908   7.118   6.496 -0.1535  0.7323 -1.0123
 5500SOL    HW120288   6.892   7.059   6.422 -0.1792  0.4342 -0.7727
 5500SOL    HW220289   7.003   7.116   6.508 -0.1957  0.3742 -0.7121
 5501SOL     OW20290   4.885   8.139   2.878  0.8146  0.7865  0.0710
 5501SOL    HW120291   4.931   8.221   2.857  0.8672  1.2018  1.6448
 5501SOL    HW220292   4.899   8.128   2.972  0.3615 -0.7740 -0.0197
 5502SOL     OW20293   8.690   0.775   6.014  0.3985  0.0907  0.2948
 5502SOL    HW120294   8.661   0.786   5.924  0.0325  1.5900  0.5639
 5502SOL    HW220295   8.610   0.780   6.066  0.8084  1.3942  0.8404
 5503SOL     OW20296   1.513   2.966   2.342 -0.0714  0.0022 -0.3978
 5503SOL    HW120297   1.478   2.960   2.431 -2.6202  1.3583 -1.1827
 5503SOL    HW220298   1.471   2.894   2.295  0.1331  0.1673 -0.8346
 5504SOL     OW20299   7.225   0.815   7.052  0.1046  0.1649  0.5034
 5504SOL    HW120300   7.251   0.728   7.082  1.6505  1.1834  2.2652
 5504SOL    HW220301   7.245   0.815   6.958 -0.7359 -1.6390  0.2891
 5505SOL     OW20302   3.908   6.177   0.399 -0.7982  0.2017 -0.3206
 5505SOL    HW120303   3.850   6.146   0.329 -0.0866  0.3775 -1.0136
 5505SOL    HW220304   3.850   6.221   0.460 -1.3372  0.8902 -1.2940
 5506SOL     OW20305   3.969  10.139   2.940  0.0046  0.1857  0.3007
 5506SOL    HW120306   4.024  10.061   2.948 -0.7936 -0.3345  0.9804
 5506SOL    HW220307   3.973  10.162   2.848 -0.3241 -1.1030 -0.0547
 5507SOL     OW20308   7.694   5.938   3.989  0.2915  0.1201  0.2169
 5507SOL    HW120309   7.725   5.896   4.069  0.2354  0.8345  0.6277
 5507SOL    HW220310   7.624   5.997   4.019  0.4720  0.6135 -0.3103
 5508SOL     OW20311   3.225   5.196   5.465 -0.2859  0.2922  0.4215
 5508SOL    HW120312   3.226   5.250   5.386  3.9476 -2.1036 -1.5037
 5508SOL    HW220313   3.191   5.111   5.435 -1.2992  0.1393  1.9280
 5509SOL     OW20314   4.937   1.252   6.555 -0.2404  0.1054  0.2637
 5509SOL    HW120315   4.985   1.221   6.631  0.4376 -0.2775 -0.3096
 5509SOL    HW220316   4.992   1.229   6.480 -1.3046 -0.3405 -0.4181
 5510SOL     OW20317   4.604   0.553   6.386  0.0201  0.0058  0.5660
 5510SOL    HW120318   4.618   0.458   6.395  0.9023  0.2721  2.4922
 5510SOL    HW220319   4.676   0.583   6.330 -0.8835 -0.5795 -0.9696
 5511SOL     OW20320   1.060   7.928   9.592 -0.1339 -0.4280 -0.2527
 5511SOL    HW120321   0.978   7.892   9.625 -0.2192 -0.3512 -0.3842
 5511SOL    HW220322   1.128   7.879   9.640 -0.1468 -2.8633 -2.4783
 5512SOL     OW20323   1.387   4.836   8.672 -0.5389 -0.5391  0.2593
 5512SOL    HW120324   1.366   4.853   8.764  0.8902 -0.3115  0.5691
 5512SOL    HW220325   1.483   4.839   8.668 -0.5165 -1.7636 -1.0086
 5513SOL     OW20326   4.284   5.087   5.787  0.3987 -0.0149  0.2698
 5513SOL    HW120327   4.269   5.032   5.710 -1.7641 -0.5020  0.9766
 5513SOL    HW220328   4.242   5.170   5.766 -0.6222 -0.3090  1.0740
 5514SOL     OW20329   6.793   3.740   1.748  0.2520 -0.4064 -0.1899
 5514SOL    HW120330   6.877   3.779   1.725 -1.0809  3.5071  0.7283
 5514SOL    HW220331   6.751   3.721   1.664  0.8550  0.5018 -0.7094
 5515SOL     OW20332   9.135   9.311   1.246  0.4144  0.1113  0.3988
 5515SOL    HW120333   9.209   9.252   1.257  1.1030  0.7265 -0.7765
 5515SOL    HW220334   9.161   9.369   1.174 -0.2537  1.8275  1.4947
 5516SOL     OW20335   2.676   2.148   9.811 -0.1174  0.0572 -0.3501
 5516SOL    HW120336   2.601   2.176   9.863 -0.7097 -0.0393 -1.1218
 5516SOL    HW220337   2.637   2.118   9.728  0.8404  0.7345 -1.0573
 5517SOL     OW20338   5.773   2.981   1.382  0.1808 -0.2390 -0.3895
 5517SOL    HW120339   5.726   2.900   1.363 -0.0826 -0.7191  1.9179
 5517SOL    HW220340   5.863   2.952   1.396 -0.0673 -0.3216  1.2534
 5518SOL     OW20341   5.261   4.241   2.490  0.8636 -0.1179  0.3097
 5518SOL    HW120342   5.263   4.167   2.430  0.8440  0.0070  0.1535
 5518SOL    HW220343   5.172   4.242   2.525  0.5721  0.3912 -0.4000
 5519SOL     OW20344   0.888   9.743   9.757  0.0343 -0.2709 -0.3320
 5519SOL    HW120345   0.907   9.728   9.849  0.2563  1.5304 -0.0548
 5519SOL    HW220346   0.794   9.763   9.754 -0.1205 -0.9839 -0.6084
 5520SOL     OW20347   2.092   2.635   7.265 -0.2919  0.5089 -0.0046
 5520SOL    HW120348   2.124   2.567   7.324 -0.7176  0.6239  0.3636
 5520SOL    HW220349   2.071   2.588   7.184  1.6829  0.5622 -0.6024
 5521SOL     OW20350   1.563   1.285   0.435 -0.5090 -0.2784  0.4170
 5521SOL    HW120351   1.558   1.208   0.378 -0.6370 -0.3731  0.5552
 5521SOL    HW220352   1.647   1.277   0.479 -0.4160 -0.2127  0.2523
 5522SOL     OW20353   4.888   9.475   0.702 -0.3142  0.7442  0.9421
 5522SOL    HW120354   4.897   9.543   0.769  0.2761  0.4023  1.2212
 5522SOL    HW220355   4.932   9.511   0.625 -1.9971  1.6231  0.3397
 5523SOL     OW20356   9.613   1.364   8.193 -0.2512  0.1426  0.2862
 5523SOL    HW120357   9.673   1.437   8.208 -0.1624 -0.1706  1.5879
 5523SOL    HW220358   9.530   1.405   8.170  0.1222  0.6103 -0.2566
 5524SOL     OW20359   2.295   6.888   0.477 -0.4986 -0.5023  0.0098
 5524SOL    HW120360   2.386   6.911   0.498 -0.4144 -1.8108  1.2480
 5524SOL    HW220361   2.290   6.894   0.381  0.3220  1.5173  0.0531
 5525SOL     OW20362   5.938   7.026   8.829 -0.0258 -0.4604 -0.2640
 5525SOL    HW120363   5.997   6.978   8.887  0.0550  0.0287  0.0617
 5525SOL    HW220364   5.991   7.095   8.790 -0.4257  0.1230  0.2048
 5526SOL     OW20365   8.043   1.880   6.482 -0.8197  0.5255  0.0654
 5526SOL    HW120366   8.095   1.886   6.562 -0.0340  0.0091 -0.3895
 5526SOL    HW220367   8.103   1.904   6.412 -0.7973 -1.2674 -0.5954
 5527SOL     OW20368  10.141   3.776   1.100  0.2084  0.4494 -0.3814
 5527SOL    HW120369  10.100   3.737   1.177  2.2363 -0.1670  0.4502
 5527SOL    HW220370  10.148   3.704   1.038  2.3138 -0.1684  0.4771
 5528SOL     OW20371   4.498   2.117   8.725  0.6593 -0.7514  0.2840
 5528SOL    HW120372   4.436   2.064   8.776  0.9436 -1.8854 -0.4995
 5528SOL    HW220373   4.468   2.108   8.635  0.5883  0.6465  0.1458
 5529SOL     OW20374   5.300   7.885   1.626 -0.4091  0.5724 -0.4457
 5529SOL    HW120375   5.311   7.942   1.550 -1.6758 -0.0797 -1.1498
 5529SOL    HW220376   5.259   7.941   1.692  2.4881  1.7228  0.5711
 5530SOL     OW20377   1.376   7.023   3.089  0.3550  0.1758  0.0486
 5530SOL    HW120378   1.326   7.022   3.171 -1.5723 -0.1831 -1.0727
 5530SOL    HW220379   1.381   7.116   3.065  1.9422  0.4134  1.0959
 5531SOL     OW20380   2.692   2.686   3.430 -0.1583 -0.6817 -0.5980
 5531SOL    HW120381   2.681   2.606   3.481 -0.9755 -0.7973 -0.9465
 5531SOL    HW220382   2.671   2.660   3.340 -0.4000 -0.0848 -0.7157
 5532SOL     OW20383   0.317   2.558   7.366 -0.1593 -0.2762 -0.0615
 5532SOL    HW120384   0.323   2.652   7.383 -0.4111 -0.5697  1.9459
 5532SOL    HW220385   0.405   2.532   7.340  0.9636 -0.0733  3.1150
 5533SOL     OW20386   3.032   5.934   6.779 -0.0642 -0.5242  0.4881
 5533SOL    HW120387   3.128   5.928   6.772 -0.0133 -0.2835  0.9518
 5533SOL    HW220388   3.006   5.982   6.700  0.4098  1.2317  1.3333
 5534SOL     OW20389   2.914   2.727   4.653 -0.1893 -1.0165 -0.0622
 5534SOL    HW120390   2.946   2.640   4.631  0.7289 -1.1573  1.7066
 5534SOL    HW220391   2.948   2.783   4.583  0.0432 -1.9071 -0.6754
 5535SOL     OW20392   0.953   2.507   9.624  0.3127  0.7416 -0.2154
 5535SOL    HW120393   0.920   2.502   9.535 -1.5714 -0.4544  0.4960
 5535SOL    HW220394   0.907   2.580   9.663  0.5931  0.8092 -0.0050
 5536SOL     OW20395   3.704   7.909   0.307 -0.8567 -0.0213  0.4290
 5536SOL    HW120396   3.635   7.930   0.369  0.9809 -1.1233  3.0049
 5536SOL    HW220397   3.723   7.993   0.263 -3.4177  0.3896 -0.0302
 5537SOL     OW20398   4.935   8.148   4.201 -0.3916 -0.0463  0.1354
 5537SOL    HW120399   4.874   8.078   4.174 -0.4376 -1.3361  3.1368
 5537SOL    HW220400   5.007   8.101   4.244  1.1758  1.6391 -0.5403
 5538SOL     OW20401   2.141   4.045   6.083  0.1173 -0.1927 -0.0916
 5538SOL    HW120402   2.118   4.031   6.175 -0.6115 -1.0869 -0.4062
 5538SOL    HW220403   2.237   4.046   6.083  0.1483  1.5643  0.9231
 5539SOL     OW20404   3.933   6.180   3.731 -0.5817  0.0113  0.2114
 5539SOL    HW120405   3.896   6.262   3.697 -0.6920 -0.2326 -0.2662
 5539SOL    HW220406   4.021   6.204   3.761 -0.1864  0.0820 -0.9681
 5540SOL     OW20407   1.902   4.729   4.326  0.0290  0.3920 -0.2103
 5540SOL    HW120408   1.871   4.783   4.253 -1.0873  0.3848  0.2436
 5540SOL    HW220409   1.959   4.664   4.284  0.6012  1.3002 -0.8808
 5541SOL     OW20410   9.084  10.010   9.094 -0.8097  0.4289  0.1947
 5541SOL    HW120411   9.010  10.054   9.053 -1.3597 -0.7887 -0.1676
 5541SOL    HW220412   9.056   9.919   9.103  0.4177  0.0708  0.6094
 5542SOL     OW20413   1.634   5.648   5.698 -0.0551  0.5478  0.5775
 5542SOL    HW120414   1.660   5.718   5.639  0.3028  0.6266  0.8272
 5542SOL    HW220415   1.701   5.580   5.685 -1.6619 -0.7677 -1.4159
 5543SOL     OW20416   5.050   4.540   7.339 -0.1415 -0.1322 -0.0638
 5543SOL    HW120417   5.041   4.562   7.246 -0.4163 -2.7625 -0.7446
 5543SOL    HW220418   4.987   4.469   7.353  1.2874 -1.1513  1.6158
 5544SOL     OW20419   8.712   3.987   2.383  0.0175 -0.0827 -0.3919
 5544SOL    HW120420   8.703   4.018   2.293 -0.7245  0.4144 -0.1509
 5544SOL    HW220421   8.750   4.061   2.430 -0.0816 -0.1611 -0.1867
 5545SOL     OW20422   0.085   6.351   1.171  0.3137  0.0287  0.1298
 5545SOL    HW120423   0.134   6.388   1.097  2.1397 -2.6288 -0.1117
 5545SOL    HW220424   0.040   6.275   1.135  1.4108 -1.4515  1.7251
 5546SOL     OW20425   9.954   2.865   5.127  0.1883  0.1471 -0.0901
 5546SOL    HW120426  10.042   2.869   5.090 -0.0224  0.1399 -0.5979
 5546SOL    HW220427   9.898   2.842   5.053 -0.1525 -0.5251  0.3655
 5547SOL     OW20428   5.628   8.081   2.325 -0.3100  1.0633  0.6799
 5547SOL    HW120429   5.679   8.109   2.249  0.0596  1.7502  1.1622
 5547SOL    HW220430   5.626   7.986   2.319  1.0476  1.0177  0.6394
 5548SOL     OW20431   0.561   4.000   0.645  0.2748  0.2518 -0.0565
 5548SOL    HW120432   0.516   3.935   0.698  1.2821 -1.7505 -1.5194
 5548SOL    HW220433   0.492   4.060   0.616 -0.7095 -0.2278  1.2184
 5549SOL     OW20434   0.775   5.276   3.938 -0.5604  0.1704 -0.8399
 5549SOL    HW120435   0.848   5.269   3.877  0.7779 -0.3515  0.7440
 5549SOL    HW220436   0.698   5.253   3.886  0.2997  1.2843 -2.6972
 5550SOL     OW20437   5.207   1.972   7.241 -0.1497  0.7628 -0.2154
 5550SOL    HW120438   5.112   1.968   7.251 -0.0663 -0.2656  0.2141
 5550SOL    HW220439   5.238   1.886   7.269  1.0837  1.7316  1.5862
 5551SOL     OW20440   2.316   9.257   5.394  0.3845 -0.2799  0.3226
 5551SOL    HW120441   2.289   9.177   5.438  1.2182 -1.0384 -0.5157
 5551SOL    HW220442   2.238   9.314   5.398 -0.0615 -0.9423  1.3266
 5552SOL     OW20443   3.277   8.387   0.607 -0.4356  0.5988  0.4091
 5552SOL    HW120444   3.324   8.455   0.560 -0.8265 -0.1397 -1.1133
 5552SOL    HW220445   3.185   8.408   0.595 -0.5826 -0.5182 -0.6400
 5553SOL     OW20446   2.886   1.096   3.634  0.4370  0.3290 -0.5738
 5553SOL    HW120447   2.898   1.089   3.729 -0.1209  1.3091 -0.4142
 5553SOL    HW220448   2.915   1.011   3.600  1.2166  0.1757  0.4065
 5554SOL     OW20449  10.260   5.896   1.240 -0.1206  0.2841  0.0760
 5554SOL    HW120450  10.199   5.852   1.299  0.1794 -1.2361 -0.7019
 5554SOL    HW220451  10.342   5.899   1.289 -0.0649 -0.3038  0.0237
 5555SOL     OW20452   7.489  10.025   9.517  0.1452  0.0080  0.0926
 5555SOL    HW120453   7.409   9.981   9.488  1.5906 -2.7651 -0.1180
 5555SOL    HW220454   7.461  10.113   9.542 -3.0627 -1.0689  0.7607
 5556SOL     OW20455  10.344   3.513   8.117 -0.0395 -0.8096 -0.2483
 5556SOL    HW120456  10.322   3.425   8.147 -0.1934 -0.5885  0.2924
 5556SOL    HW220457  10.302   3.571   8.180  0.8624 -0.3594 -0.0551
 5557SOL     OW20458   4.448   4.052   3.807  0.0318 -0.0688 -0.3069
 5557SOL    HW120459   4.500   4.131   3.797  0.6151 -0.5080 -0.8075
 5557SOL    HW220460   4.398   4.066   3.888  2.1419 -0.3193  1.1209
 5558SOL     OW20461   5.743   6.797   4.590  1.0761 -0.6040  0.4605
 5558SOL    HW120462   5.781   6.744   4.520  1.3126 -0.3506  0.3911
 5558SOL    HW220463   5.652   6.768   4.597  0.1202  1.4239 -2.0242
 5559SOL     OW20464   6.708   2.845   1.574 -0.3094  0.9107  0.3640
 5559SOL    HW120465   6.721   2.873   1.665 -1.5520  0.8282  0.5816
 5559SOL    HW220466   6.652   2.912   1.536  1.5847  1.8911 -0.8885
 5560SOL     OW20467   5.840   7.921   5.647 -0.0060  0.6015  0.3446
 5560SOL    HW120468   5.862   7.936   5.739  0.0774  2.7612  0.0273
 5560SOL    HW220469   5.744   7.929   5.644  0.1070  2.0296  0.0354
 5561SOL     OW20470   6.157   1.903   0.697 -0.4926  0.2410  0.0813
 5561SOL    HW120471   6.116   1.857   0.624  1.2404  0.0959 -0.8686
 5561SOL    HW220472   6.094   1.897   0.769 -0.8035 -2.7122 -0.3148
 5562SOL     OW20473   4.192   8.675   0.804  0.6068 -0.0535  0.6574
 5562SOL    HW120474   4.127   8.740   0.831 -0.8750 -0.5160 -1.5743
 5562SOL    HW220475   4.258   8.678   0.873  0.7833  4.0242  0.5628
 5563SOL     OW20476   1.646   7.478   6.373  0.0490  0.2530 -0.0675
 5563SOL    HW120477   1.721   7.531   6.348  1.3466 -0.7074  1.5860
 5563SOL    HW220478   1.681   7.389   6.379 -0.6793  0.0729  2.7103
 5564SOL     OW20479   7.118   8.934   1.595 -0.0328  0.3833 -0.2944
 5564SOL    HW120480   7.026   8.961   1.595 -0.9516 -2.3955 -0.5639
 5564SOL    HW220481   7.136   8.911   1.686  0.3656  0.8405 -0.2586
 5565SOL     OW20482   6.326   5.234   5.992 -0.6107 -0.2466  0.1637
 5565SOL    HW120483   6.259   5.172   5.963 -0.9303  0.6044 -0.9595
 5565SOL    HW220484   6.342   5.290   5.916 -1.0018  1.6549  1.4144
 5566SOL     OW20485   9.578   6.291   1.615 -0.8409 -0.2278 -0.5436
 5566SOL    HW120486   9.486   6.312   1.599 -1.0096 -0.0892  0.4764
 5566SOL    HW220487   9.594   6.322   1.705  0.0424 -0.7697 -0.4977
 5567SOL     OW20488   6.080   5.058   6.262 -0.3892  0.5954  0.3383
 5567SOL    HW120489   6.144   5.069   6.192 -1.2147  1.7305 -0.2533
 5567SOL    HW220490   6.115   5.109   6.335 -0.0809  0.3203  0.3851
 5568SOL     OW20491   4.264   7.352   3.947 -0.2832  0.1120 -0.2430
 5568SOL    HW120492   4.275   7.257   3.943 -1.9044 -0.2635  2.2197
 5568SOL    HW220493   4.170   7.366   3.939 -0.2835  1.3254  1.3975
 5569SOL     OW20494   3.889   5.815   8.701  0.2412 -0.4583 -0.3361
 5569SOL    HW120495   3.937   5.892   8.671 -0.3660  0.2175  0.3636
 5569SOL    HW220496   3.827   5.796   8.630 -0.5776  0.5823  0.0648
 5570SOL     OW20497   4.434   2.501   9.438 -0.3190  0.3534 -0.0139
 5570SOL    HW120498   4.452   2.487   9.532  1.2843 -1.0611 -0.4734
 5570SOL    HW220499   4.357   2.448   9.420 -1.0691  1.1865  0.6245
 5571SOL     OW20500   3.827   6.155   6.971 -0.2742  1.0264 -0.9272
 5571SOL    HW120501   3.813   6.192   6.884 -0.3939  2.3313 -0.3728
 5571SOL    HW220502   3.874   6.073   6.955 -1.4868  0.5520 -2.2976
 5572SOL     OW20503   3.657   6.862   8.293 -0.2865  0.9674 -0.0441
 5572SOL    HW120504   3.596   6.876   8.365  1.4363  0.5382  1.5696
 5572SOL    HW220505   3.732   6.818   8.333  0.6197  0.4689 -2.1670
 5573SOL     OW20506  10.221   7.685   0.307  0.3516  0.2332  0.5794
 5573SOL    HW120507  10.300   7.631   0.307 -0.4622 -1.0822 -1.3410
 5573SOL    HW220508  10.185   7.675   0.219 -1.2791  1.8394  0.9871
 5574SOL     OW20509   1.278   5.181  10.130  0.4829  0.4935  0.0923
 5574SOL    HW120510   1.247   5.246  10.193  2.6466  2.5958 -0.8544
 5574SOL    HW220511   1.282   5.228  10.047  1.1100 -1.1930 -0.8846
 5575SOL     OW20512   6.803   7.471   3.729 -0.0059  0.1798 -0.6160
 5575SOL    HW120513   6.729   7.450   3.786 -0.9961 -0.2578 -2.0048
 5575SOL    HW220514   6.840   7.386   3.707  1.7315  0.4456  1.0477
 5576SOL     OW20515   8.572   6.139   8.501  0.0291 -0.0143  0.1436
 5576SOL    HW120516   8.630   6.092   8.561 -0.6588  0.4815  1.2373
 5576SOL    HW220517   8.527   6.070   8.452 -0.3908 -0.4981  1.1710
 5577SOL     OW20518   3.333   8.821   3.277  0.0726 -0.1851 -0.0224
 5577SOL    HW120519   3.298   8.876   3.347 -0.1371 -0.7650  0.3355
 5577SOL    HW220520   3.328   8.876   3.198 -0.0570  0.3301  0.3380
 5578SOL     OW20521   5.211   8.325   3.395 -0.0114 -0.0696  0.0706
 5578SOL    HW120522   5.192   8.418   3.402 -0.5247 -0.1802  0.1792
 5578SOL    HW220523   5.276   8.318   3.326 -1.4288  0.1764 -1.3397
 5579SOL     OW20524   6.475   9.578   7.620  0.5514 -0.1688 -0.4260
 5579SOL    HW120525   6.560   9.550   7.654 -0.9888 -2.0585  2.3015
 5579SOL    HW220526   6.437   9.631   7.691 -0.7344  0.2170 -1.3580
 5580SOL     OW20527   7.270   9.616   9.540 -0.3383 -0.4822 -0.2730
 5580SOL    HW120528   7.249   9.698   9.495 -1.5355  0.0797  1.2351
 5580SOL    HW220529   7.192   9.596   9.591  0.6745 -1.5227  0.9211
 5581SOL     OW20530   1.812   0.397   0.943  0.1781 -0.0161  0.0310
 5581SOL    HW120531   1.839   0.457   1.012  0.4207  0.4688 -0.4762
 5581SOL    HW220532   1.872   0.415   0.871  0.3158 -0.9378 -0.0986
 5582SOL     OW20533   6.531   7.300   8.085 -0.1534 -0.9870  0.1079
 5582SOL    HW120534   6.536   7.339   8.172 -2.2729  1.4392 -0.7235
 5582SOL    HW220535   6.607   7.334   8.038 -0.1640 -0.5814  0.3855
 5583SOL     OW20536   7.005   4.262   2.543  0.4505 -0.6738 -0.3647
 5583SOL    HW120537   6.913   4.268   2.568  0.2939 -1.3367 -0.7467
 5583SOL    HW220538   7.039   4.351   2.553  0.4825 -0.9289  2.4495
 5584SOL     OW20539   7.648   3.977   1.022  0.0241  0.4824  0.0412
 5584SOL    HW120540   7.677   4.061   0.986  0.5612  0.3064  0.0593
 5584SOL    HW220541   7.698   3.967   1.103 -0.2725  0.2908  0.2055
 5585SOL     OW20542   0.764   6.387   1.025 -0.0466 -0.4835 -0.2771
 5585SOL    HW120543   0.730   6.376   1.113 -2.2879 -0.5397 -1.0890
 5585SOL    HW220544   0.835   6.323   1.018 -0.8035 -1.5123  0.9998
 5586SOL     OW20545   3.199   0.305   7.244 -0.2033 -0.4405 -0.5784
 5586SOL    HW120546   3.239   0.386   7.212 -1.1329  1.0835  1.8667
 5586SOL    HW220547   3.105   0.323   7.239 -0.4058 -1.1975  0.4316
 5587SOL     OW20548   7.836   1.989   5.853  0.0212 -0.0208  0.2319
 5587SOL    HW120549   7.752   2.018   5.887 -0.5030 -1.5175  0.2928
 5587SOL    HW220550   7.851   2.042   5.775 -0.9260  0.3358  0.2875
 5588SOL     OW20551   7.737  10.148   7.281  0.7209  0.4311  0.0795
 5588SOL    HW120552   7.786  10.184   7.208 -1.0080  1.2181 -0.7679
 5588SOL    HW220553   7.703  10.064   7.249 -0.6117  1.0924 -0.3203
 5589SOL     OW20554   2.690   2.686   5.741  0.0928 -0.5649 -0.3542
 5589SOL    HW120555   2.719   2.774   5.765 -2.0780  0.0653  0.2418
 5589SOL    HW220556   2.692   2.685   5.646  1.1704 -0.2608 -0.3462
 5590SOL     OW20557   6.795   0.175   8.625 -0.2753 -0.0945 -0.1227
 5590SOL    HW120558   6.767   0.111   8.690 -1.4510 -1.3346 -1.7673
 5590SOL    HW220559   6.730   0.168   8.555  1.1302  0.9171 -1.6033
 5591SOL     OW20560   0.046   0.612   3.742 -0.7106  0.2059  0.9263
 5591SOL    HW120561  -0.003   0.686   3.777 -0.9191  0.6826 -0.3158
 5591SOL    HW220562   0.087   0.645   3.662 -1.3072 -1.1729 -0.0037
 5592SOL     OW20563   2.451   8.951   9.541  0.2314 -0.4185  0.4413
 5592SOL    HW120564   2.368   8.991   9.515 -0.7053 -1.4021  1.7785
 5592SOL    HW220565   2.477   8.899   9.465  0.3957  1.0123 -0.5259
 5593SOL     OW20566   1.139   2.748   0.119  0.3656 -0.1708  0.2471
 5593SOL    HW120567   1.149   2.823   0.177 -0.0761  0.5354 -0.5591
 5593SOL    HW220568   1.106   2.678   0.176 -0.8271  0.7298  0.7080
 5594SOL     OW20569   5.451   1.538   5.437 -0.3674  0.0982 -0.0469
 5594SOL    HW120570   5.388   1.565   5.371 -1.3958 -1.3936  0.2900
 5594SOL    HW220571   5.406   1.552   5.520 -0.0688 -0.5018  0.2188
 5595SOL     OW20572   6.181   1.051   0.865  0.3607  0.0086  0.2202
 5595SOL    HW120573   6.250   0.987   0.884 -1.4204 -2.1882 -0.1832
 5595SOL    HW220574   6.117   1.040   0.936 -0.7277  0.1784 -0.6915
 5596SOL     OW20575   3.243   2.352   1.011  0.6368  0.5539 -0.1612
 5596SOL    HW120576   3.281   2.264   1.018 -1.7407 -0.5375 -0.1545
 5596SOL    HW220577   3.211   2.357   0.921 -2.8925 -0.2649  0.9131
 5597SOL     OW20578   8.364   8.102   8.164  0.8766  0.0275  0.2194
 5597SOL    HW120579   8.381   8.074   8.254  0.1907  0.3733  0.4579
 5597SOL    HW220580   8.273   8.130   8.163  1.6004  2.6263  0.1099
 5598SOL     OW20581   5.089   6.541   6.446 -0.4931  0.3431  0.1778
 5598SOL    HW120582   5.148   6.530   6.371 -1.8646  1.1768 -1.0708
 5598SOL    HW220583   5.076   6.635   6.453 -0.6718  0.2531  1.2570
 5599SOL     OW20584   7.833   2.488   2.381  0.2496 -0.9113  0.2836
 5599SOL    HW120585   7.799   2.458   2.297 -1.0595  0.2375  0.3591
 5599SOL    HW220586   7.755   2.515   2.430  1.0571 -0.8211  1.5675
 5600SOL     OW20587   7.535   2.864   9.218  0.1974 -0.2365 -0.1907
 5600SOL    HW120588   7.496   2.951   9.224  0.4039  0.0004 -1.7973
 5600SOL    HW220589   7.607   2.865   9.281 -0.7784  0.1929  0.9556
 5601SOL     OW20590   8.749   3.754   5.953  0.1112 -0.1713 -0.3303
 5601SOL    HW120591   8.802   3.793   5.884 -1.8275  1.1506 -1.1633
 5601SOL    HW220592   8.770   3.660   5.950  1.9472  0.2194 -0.9480
 5602SOL     OW20593   6.389   5.724   8.224  0.5876  0.3608  0.5635
 5602SOL    HW120594   6.353   5.796   8.171 -0.1705  0.5738  1.3347
 5602SOL    HW220595   6.342   5.731   8.307  1.4900 -0.1905  1.1341
 5603SOL     OW20596   0.045   1.128   3.574  0.5257 -0.1510 -0.4895
 5603SOL    HW120597   0.126   1.094   3.612  1.7730  0.8389 -2.1014
 5603SOL    HW220598   0.038   1.084   3.490 -0.0798  0.4992 -0.7871
 5604SOL     OW20599   7.284   5.960   5.113  0.2912  0.4248  0.1392
 5604SOL    HW120600   7.212   5.901   5.093  0.8468 -0.0099 -0.6511
 5604SOL    HW220601   7.350   5.940   5.046  1.7265 -0.1999  1.6534
 5605SOL     OW20602   7.096   5.897   0.282  0.3571  0.3484 -0.7393
 5605SOL    HW120603   7.153   5.892   0.205  0.2153  0.2330 -0.8365
 5605SOL    HW220604   7.151   5.866   0.354 -0.1379 -1.6063 -1.1307
 5606SOL     OW20605   7.824   1.390   8.456  0.5681  0.5256  0.3422
 5606SOL    HW120606   7.754   1.446   8.423  0.2036 -0.9429 -1.5671
 5606SOL    HW220607   7.779   1.328   8.514  0.7087  1.1131  1.0976
 5607SOL     OW20608  10.008   9.944   1.977 -0.5782 -0.2423 -0.1115
 5607SOL    HW120609   9.962   9.966   1.896 -0.2188 -1.5908 -0.7121
 5607SOL    HW220610   9.971  10.003   2.043 -0.2921  1.4337 -1.4064
 5608SOL     OW20611   7.963   3.350   0.494  0.1438  0.0326 -0.4577
 5608SOL    HW120612   7.929   3.260   0.488  1.2436 -0.5351  1.1234
 5608SOL    HW220613   7.965   3.368   0.587 -0.7229  2.0113 -0.7770
 5609SOL     OW20614   9.342   9.930   6.292  0.0876 -0.1337  0.3110
 5609SOL    HW120615   9.430   9.891   6.292 -0.6189 -1.8167  0.7509
 5609SOL    HW220616   9.285   9.860   6.322 -1.6441  0.4512 -1.4522
 5610SOL     OW20617   6.518   4.377   5.873  0.5676  0.4519 -0.5035
 5610SOL    HW120618   6.550   4.405   5.959 -2.9394  2.7445  0.2586
 5610SOL    HW220619   6.551   4.443   5.812  0.4991  0.5989 -0.3824
 5611SOL     OW20620   2.370   0.307   9.386  0.1242 -0.4101  0.3436
 5611SOL    HW120621   2.325   0.227   9.360 -1.5730  0.4290  0.5381
 5611SOL    HW220622   2.314   0.378   9.354  0.2023  0.6832  2.4165
 5612SOL     OW20623   3.445   8.038   9.579  0.2010 -0.2305 -0.2447
 5612SOL    HW120624   3.458   8.090   9.500  0.0782 -0.7367 -0.6033
 5612SOL    HW220625   3.386   8.090   9.634  0.2328  0.0897 -0.5162
 5613SOL     OW20626   0.353   0.943   0.482  0.1979  0.3040  0.3335
 5613SOL    HW120627   0.434   0.903   0.513  0.3372 -0.5059 -0.9905
 5613SOL    HW220628   0.288   0.921   0.548  1.1009  1.2819  1.6145
 5614SOL     OW20629   1.793   9.661   8.056 -0.1702 -1.0990  0.1247
 5614SOL    HW120630   1.730   9.611   8.109 -2.4126 -0.3023 -1.6492
 5614SOL    HW220631   1.803   9.744   8.103 -2.3048 -0.3122 -0.7033
 5615SOL     OW20632   5.464   4.388   4.984  0.0501 -0.5546  0.4553
 5615SOL    HW120633   5.531   4.328   4.952  0.1763  0.1398 -0.6525
 5615SOL    HW220634   5.513   4.465   5.013 -0.1797 -0.5427  0.8072
 5616SOL     OW20635   9.714   6.020   4.614  0.1486  0.0560  0.3254
 5616SOL    HW120636   9.705   5.960   4.689  0.8240  1.3348  1.4697
 5616SOL    HW220637   9.750   6.100   4.652 -0.0298  0.9358 -1.2984
 5617SOL     OW20638   1.438   7.848   1.617 -0.4077 -0.1600  0.1242
 5617SOL    HW120639   1.373   7.918   1.629  0.6433  0.6102  1.6168
 5617SOL    HW220640   1.457   7.850   1.523 -2.1589 -0.0835 -0.2693
 5618SOL     OW20641   6.181   8.342   7.183 -0.4116 -0.1314  0.3593
 5618SOL    HW120642   6.262   8.295   7.166 -0.6749 -0.3896 -0.2110
 5618SOL    HW220643   6.139   8.349   7.098 -1.5588 -1.0539  0.8187
 5619SOL     OW20644   9.669   8.792   2.816 -0.2799 -0.1595  0.0507
 5619SOL    HW120645   9.667   8.788   2.911  0.0960 -2.7153  0.0283
 5619SOL    HW220646   9.580   8.769   2.788 -0.2517  0.0571 -0.2341
 5620SOL     OW20647   3.749   1.997   3.785  0.2270  0.1862 -0.0975
 5620SOL    HW120648   3.673   1.939   3.793  0.4993 -0.3944 -1.4689
 5620SOL    HW220649   3.756   2.015   3.692  2.0660 -0.1629 -0.0679
 5621SOL     OW20650   1.229   3.144   3.369 -0.1413 -0.4104 -0.1813
 5621SOL    HW120651   1.149   3.194   3.355  0.2018  0.1204 -0.2759
 5621SOL    HW220652   1.243   3.146   3.464 -1.2170 -2.0541  0.0490
 5622SOL     OW20653   2.096   4.367   7.626  0.3518  0.4591 -0.1080
 5622SOL    HW120654   2.181   4.334   7.596 -0.5638 -0.9664 -1.2783
 5622SOL    HW220655   2.071   4.308   7.698 -0.4149 -0.2442 -0.9264
 5623SOL     OW20656   0.269   4.935   6.850 -0.2513 -0.2655  0.2286
 5623SOL    HW120657   0.364   4.921   6.853 -0.1128  0.3321 -0.8681
 5623SOL    HW220658   0.250   4.989   6.926  0.1233 -1.2195  1.0244
 5624SOL     OW20659   7.961   2.051   9.640  0.2633  0.0485  0.4544
 5624SOL    HW120660   7.873   2.073   9.611  0.5141  0.4222 -0.0186
 5624SOL    HW220661   7.988   2.124   9.696 -0.0764 -0.4945  1.3461
 5625SOL     OW20662   6.563   7.007   1.401 -0.0767 -0.5906  0.2405
 5625SOL    HW120663   6.506   6.964   1.465 -0.9248  0.8870  0.5395
 5625SOL    HW220664   6.503   7.061   1.349  0.7202 -1.1071 -1.2520
 5626SOL     OW20665   2.459   6.191   8.310 -0.1175  0.1954 -0.2722
 5626SOL    HW120666   2.520   6.131   8.268  1.7839  0.5282  1.8512
 5626SOL    HW220667   2.406   6.135   8.367  0.5680  0.3140  0.4924
 5627SOL     OW20668   1.081   4.915   6.203 -0.3881 -0.8224 -0.2807
 5627SOL    HW120669   1.096   4.970   6.280  0.2786  0.8508 -1.5384
 5627SOL    HW220670   0.987   4.900   6.202 -0.5606  0.1350  0.2248
 5628SOL     OW20671   3.430   8.497   4.680  0.3332  0.1903  0.0853
 5628SOL    HW120672   3.466   8.413   4.706  0.5030  0.7272  1.7463
 5628SOL    HW220673   3.477   8.520   4.600  1.4600 -0.5554  0.5059
 5629SOL     OW20674   8.969   4.942   7.015  0.0805 -0.0444 -0.2032
 5629SOL    HW120675   9.006   4.854   7.003  0.4136  0.1003 -0.2389
 5629SOL    HW220676   9.028   5.000   6.967  0.5032  0.3336  0.7524
 5630SOL     OW20677   5.664   0.265   8.153  0.3057 -0.4552 -0.4518
 5630SOL    HW120678   5.759   0.257   8.164  0.0415 -0.7510  2.4936
 5630SOL    HW220679   5.629   0.182   8.185 -1.0170  0.4511  0.5860
 5631SOL     OW20680   7.979   6.651   8.381 -0.3559  0.3463 -0.3529
 5631SOL    HW120681   8.062   6.610   8.355  0.4803 -0.3986  3.0838
 5631SOL    HW220682   7.992   6.744   8.360  0.0480 -0.1687 -2.7265
 5632SOL     OW20683  10.008   2.219   5.417 -0.1009  0.9750  0.0202
 5632SOL    HW120684  10.021   2.272   5.495 -0.4144 -0.1891  0.9023
 5632SOL    HW220685   9.958   2.143   5.448 -0.5834  0.6798 -1.3923
 5633SOL     OW20686   2.995   7.648   1.600 -0.0762 -0.0512  0.1272
 5633SOL    HW120687   2.907   7.676   1.623  0.2284  1.0292  0.0511
 5633SOL    HW220688   2.998   7.555   1.622 -1.2749 -0.1348 -0.0178
 5634SOL     OW20689   0.741   0.901   4.905  0.6176  0.0908  0.3499
 5634SOL    HW120690   0.658   0.943   4.886  0.6956  0.8488  1.5857
 5634SOL    HW220691   0.752   0.837   4.835 -0.4313  0.7890 -0.4855
 5635SOL     OW20692  10.324   4.998   6.182  0.3927  0.4059 -0.4806
 5635SOL    HW120693  10.346   4.919   6.132  0.9991 -1.5199  2.5638
 5635SOL    HW220694  10.407   5.025   6.221  0.0569  2.2199 -0.9198
 5636SOL     OW20695   2.478   9.434   6.597 -0.6480  0.5378  0.0856
 5636SOL    HW120696   2.512   9.462   6.682  0.5765 -0.9785  0.1535
 5636SOL    HW220697   2.406   9.493   6.579 -1.2012  0.6562  2.3831
 5637SOL     OW20698   1.770   7.422   4.818  0.0465 -0.0168  0.2439
 5637SOL    HW120699   1.749   7.394   4.729 -0.5809 -1.5864  0.8336
 5637SOL    HW220700   1.693   7.471   4.847  0.2596  0.5089 -0.0914
 5638SOL     OW20701   2.991   8.609   3.348  0.3223 -0.4351 -0.0360
 5638SOL    HW120702   2.903   8.581   3.376  0.6069 -0.5670  0.7464
 5638SOL    HW220703   3.045   8.531   3.358  0.6821 -0.1602  0.1607
 5639SOL     OW20704   2.883   7.666   9.460 -0.5949  0.4777 -0.7599
 5639SOL    HW120705   2.849   7.680   9.549 -1.9163 -0.1595 -1.1397
 5639SOL    HW220706   2.929   7.582   9.466  2.1844  1.9301  0.0707
 5640SOL     OW20707   0.634   0.994   4.057  0.1633 -0.0014 -0.1529
 5640SOL    HW120708   0.646   1.018   3.965 -2.2940 -1.2431 -0.9044
 5640SOL    HW220709   0.585   0.912   4.053 -1.2075  0.6152  2.2778
 5641SOL     OW20710   7.502   4.052   2.911  0.4216 -0.0930 -0.3393
 5641SOL    HW120711   7.510   3.987   2.841  0.3987 -0.4698  0.0094
 5641SOL    HW220712   7.489   4.001   2.990  1.2489  0.3000  0.0675
 5642SOL     OW20713  10.194   3.734   4.683 -0.5759  0.2825 -0.1781
 5642SOL    HW120714  10.180   3.657   4.738 -0.7936  0.3023 -0.2041
 5642SOL    HW220715  10.289   3.741   4.674 -0.5523  0.0817 -0.0844
 5643SOL     OW20716  10.012   3.858   8.579 -0.3001 -0.0613  0.8520
 5643SOL    HW120717   9.980   3.918   8.512 -0.0058  1.2023  1.8190
 5643SOL    HW220718  10.042   3.914   8.651  0.2784 -1.3447  1.6616
 5644SOL     OW20719   7.401   5.929   9.413  0.3618  0.3890  0.1912
 5644SOL    HW120720   7.436   5.893   9.331 -0.4218  0.2293 -0.0819
 5644SOL    HW220721   7.306   5.933   9.399  0.2285  0.4714  1.0480
 5645SOL     OW20722   2.012   5.706   6.223 -0.3684 -0.7544  0.8063
 5645SOL    HW120723   2.000   5.775   6.158 -1.6487 -1.5173  0.1865
 5645SOL    HW220724   1.998   5.749   6.308 -1.1648 -0.2596  0.4271
 5646SOL     OW20725   2.131   9.686   4.081  0.0086  0.2102 -0.1163
 5646SOL    HW120726   2.045   9.721   4.103 -0.4019 -0.8384  0.0187
 5646SOL    HW220727   2.131   9.597   4.117  1.0422  0.0956 -0.3592
 5647SOL     OW20728   3.394   0.707   0.004  0.2031 -0.0538 -0.2619
 5647SOL    HW120729   3.415   0.775  -0.059 -0.9178  0.0413 -0.5504
 5647SOL    HW220730   3.329   0.652  -0.040  1.3308 -1.5209 -0.1691
 5648SOL     OW20731   7.929   6.267   7.242  0.0053  0.1911  0.6712
 5648SOL    HW120732   7.842   6.228   7.241  0.0994 -0.0422  1.1642
 5648SOL    HW220733   7.912   6.361   7.255 -0.1707  0.1402  0.8164
 5649SOL     OW20734   7.782   7.280   4.747 -0.0267 -0.4410 -0.3057
 5649SOL    HW120735   7.803   7.213   4.682  1.3592 -1.5544  1.2021
 5649SOL    HW220736   7.848   7.349   4.732 -0.8263  0.1666 -1.1953
 5650SOL     OW20737   0.781   6.041   7.946 -0.1002  0.1267 -0.3105
 5650SOL    HW120738   0.747   6.128   7.963 -2.6636 -0.3151 -2.4909
 5650SOL    HW220739   0.703   5.987   7.930  1.4726 -1.4905 -3.5982
 5651SOL     OW20740   0.779   4.726   9.937 -0.3566  0.2733  0.2029
 5651SOL    HW120741   0.814   4.664   9.873 -0.3568  0.6581 -0.1731
 5651SOL    HW220742   0.767   4.674  10.017 -0.2353 -0.1799 -0.0705
 5652SOL     OW20743   0.837   7.399   1.965 -0.1904 -0.2841  0.2454
 5652SOL    HW120744   0.867   7.415   2.055 -2.5576 -0.7306  1.1778
 5652SOL    HW220745   0.776   7.470   1.947 -2.1989 -1.9322  0.2412
 5653SOL     OW20746   7.698   7.167   9.603 -0.5465  0.6029 -0.7148
 5653SOL    HW120747   7.726   7.137   9.516  1.5521  0.2426  0.0500
 5653SOL    HW220748   7.726   7.098   9.663 -2.4584  0.5859  0.2428
 5654SOL     OW20749   7.797   6.858   6.992 -0.2451 -0.3959  0.1238
 5654SOL    HW120750   7.731   6.853   7.061 -0.7013 -0.3475 -0.3062
 5654SOL    HW220751   7.851   6.934   7.016  0.5603 -1.2818  1.2624
 5655SOL     OW20752   5.078   9.787   3.491 -0.0553 -0.2848 -0.0029
 5655SOL    HW120753   5.093   9.863   3.547 -0.2977  0.4931 -0.9640
 5655SOL    HW220754   5.159   9.737   3.496  0.2659  0.2577  0.3075
 5656SOL     OW20755   1.498  10.139   1.340 -0.1789 -0.6838  1.3624
 5656SOL    HW120756   1.581  10.147   1.293  0.2764 -1.4350  2.0126
 5656SOL    HW220757   1.456  10.224   1.328  0.2326 -0.6223  0.1922
 5657SOL     OW20758   8.919  10.147   5.785 -0.0351 -0.0529 -0.1575
 5657SOL    HW120759   9.011  10.166   5.808  0.2906  0.6152 -1.8605
 5657SOL    HW220760   8.907  10.055   5.808  1.6907 -0.7207 -1.6447
 5658SOL     OW20761   5.523   9.976   4.597 -0.1462 -0.0947 -0.6192
 5658SOL    HW120762   5.525  10.060   4.643 -0.7947  0.3579 -1.3967
 5658SOL    HW220763   5.496   9.912   4.664  0.7743  0.2337  0.0795
 5659SOL     OW20764   9.752   0.624   8.784  0.1800  0.2028 -0.0143
 5659SOL    HW120765   9.677   0.578   8.745  0.5474  0.6983 -1.3537
 5659SOL    HW220766   9.712   0.689   8.843 -0.3561 -1.6263  1.7693
 5660SOL     OW20767   0.207   8.592   3.161 -0.2084  0.4388 -0.3298
 5660SOL    HW120768   0.214   8.527   3.231  1.0514 -0.1305 -0.9475
 5660SOL    HW220769   0.176   8.671   3.205  0.5763  0.1022  0.8841
 5661SOL     OW20770   9.672   0.021   8.364  0.1749 -0.1888  0.5033
 5661SOL    HW120771   9.637  -0.065   8.341 -1.4357  0.7486 -0.7126
 5661SOL    HW220772   9.755   0.001   8.408  1.7618 -2.2659 -3.0442
 5662SOL     OW20773   7.651   1.664   6.989  0.6909  0.3391 -0.1912
 5662SOL    HW120774   7.605   1.670   6.905  0.5994  0.6369 -0.1220
 5662SOL    HW220775   7.728   1.610   6.971  0.4435  0.0450 -0.3653
 5663SOL     OW20776   9.129   3.647   5.679 -0.1665 -0.1829  0.0787
 5663SOL    HW120777   9.089   3.563   5.657  0.7054 -0.4304 -0.6323
 5663SOL    HW220778   9.199   3.658   5.615  2.2470 -0.7253  2.4220
 5664SOL     OW20779   4.935   4.568   9.545 -0.4989  0.1856  0.0395
 5664SOL    HW120780   4.860   4.624   9.562 -0.0685  0.6941  0.2969
 5664SOL    HW220781   4.925   4.541   9.454 -0.1072  1.6405 -0.4609
 5665SOL     OW20782   4.578   2.148   1.133  0.4287 -0.0098 -0.8347
 5665SOL    HW120783   4.648   2.122   1.192 -0.0374 -0.4746 -0.4698
 5665SOL    HW220784   4.621   2.167   1.050  1.0516  0.3237 -0.4384
 5666SOL     OW20785   2.891   6.221   3.193 -0.2939  0.0468 -0.3305
 5666SOL    HW120786   2.809   6.183   3.163 -0.2223 -0.9107  0.6286
 5666SOL    HW220787   2.871   6.255   3.280  0.5915 -1.2408  0.4031
 5667SOL     OW20788   5.141   1.744   8.598  0.2701 -0.3602  0.2351
 5667SOL    HW120789   5.103   1.736   8.511  0.8601 -1.3490  0.0535
 5667SOL    HW220790   5.079   1.701   8.656 -0.5442  1.0502  0.4469
 5668SOL     OW20791   2.690   7.832   0.498  0.7940  0.0645 -0.1626
 5668SOL    HW120792   2.604   7.811   0.534  0.4770 -0.4620 -1.1817
 5668SOL    HW220793   2.673   7.896   0.429  1.2008 -0.0999 -0.4269
 5669SOL     OW20794   4.463   5.900  10.038 -0.3258  0.5424  0.0314
 5669SOL    HW120795   4.496   5.984  10.007 -1.8277  0.5607 -1.6827
 5669SOL    HW220796   4.409   5.921  10.114  1.1557  0.8356  1.0272
 5670SOL     OW20797   1.071   7.763   6.672  0.0355 -0.0330 -0.3239
 5670SOL    HW120798   1.141   7.702   6.646  1.3781 -0.0482  2.8391
 5670SOL    HW220799   1.117   7.833   6.718 -1.9551  0.6526  0.7148
 5671SOL     OW20800   1.648  10.052   8.086  0.0224  0.2196 -0.1102
 5671SOL    HW120801   1.587  10.116   8.122 -0.1050  1.0756 -1.7632
 5671SOL    HW220802   1.703  10.102   8.027  0.4873 -1.0445 -0.7861
 5672SOL     OW20803   6.390   7.310   1.584 -0.2931  0.1172 -0.5359
 5672SOL    HW120804   6.381   7.397   1.622 -0.7379  0.8537 -2.2248
 5672SOL    HW220805   6.477   7.280   1.611 -1.1386 -0.0843  2.2613
 5673SOL     OW20806   6.017   0.544   7.078  0.2329  0.0459 -0.3421
 5673SOL    HW120807   5.964   0.560   7.000  1.7604 -2.7060 -2.1055
 5673SOL    HW220808   5.955   0.543   7.150 -1.2888  2.3076 -1.5073
 5674SOL     OW20809   9.999   2.255   2.057 -0.5392 -0.2502 -0.1029
 5674SOL    HW120810   9.939   2.193   2.016 -2.7187  0.8451  1.2664
 5674SOL    HW220811   9.988   2.240   2.151  0.9512  0.3659  0.1975
 5675SOL     OW20812   8.759   1.836   7.558  0.5813 -0.0722  0.3944
 5675SOL    HW120813   8.671   1.865   7.532  0.3134  0.0254  1.3737
 5675SOL    HW220814   8.769   1.868   7.648  1.7210  0.1231  0.2048
 5676SOL     OW20815   3.424   5.820   2.397 -0.1674 -0.2250 -0.0541
 5676SOL    HW120816   3.393   5.875   2.468  1.3627 -0.4340  0.8189
 5676SOL    HW220817   3.379   5.852   2.319  0.4901  2.0988  0.4689
 5677SOL     OW20818   7.334  10.337   5.354 -0.3081  0.1165  0.0484
 5677SOL    HW120819   7.414  10.287   5.370  0.7097  1.6630  0.0723
 5677SOL    HW220820   7.268  10.271   5.334  0.7272 -1.2707  1.0006
 5678SOL     OW20821   0.714   5.160  10.096 -0.6489 -0.0947 -0.5004
 5678SOL    HW120822   0.713   5.212  10.177 -0.9208 -1.4087  0.3819
 5678SOL    HW220823   0.782   5.200  10.042  0.5550 -0.0418  0.9820
 5679SOL     OW20824   4.411   5.228   2.480  0.3823  0.0182 -0.4867
 5679SOL    HW120825   4.473   5.209   2.551  0.5027 -0.1926 -0.6462
 5679SOL    HW220826   4.372   5.312   2.505 -0.6936 -0.7758  0.6057
 5680SOL     OW20827   4.026   2.393   8.244 -0.2567 -0.7128 -0.2981
 5680SOL    HW120828   3.937   2.365   8.225 -1.3550  1.0285  1.8432
 5680SOL    HW220829   4.054   2.337   8.316  0.2915 -1.0286 -0.7404
 5681SOL     OW20830   7.676   9.763   4.937 -0.2955 -0.2234  0.1188
 5681SOL    HW120831   7.693   9.734   4.847  2.3273  0.9723  0.1426
 5681SOL    HW220832   7.603   9.824   4.929 -1.1172 -1.3038 -0.9516
 5682SOL     OW20833   9.252   3.726   1.296  0.9360  0.4869  0.4744
 5682SOL    HW120834   9.279   3.794   1.358  0.3580  0.3505  0.8869
 5682SOL    HW220835   9.201   3.665   1.349  0.5229  0.3093 -0.1221
 5683SOL     OW20836   6.051   3.367   6.148 -0.0486  0.6205 -0.4099
 5683SOL    HW120837   6.089   3.304   6.088 -0.7414  0.3304 -0.5454
 5683SOL    HW220838   6.059   3.326   6.234  0.6827  0.9128 -0.3353
 5684SOL     OW20839   8.889   1.487   5.141 -0.3255  0.0499 -0.5046
 5684SOL    HW120840   8.914   1.395   5.151  1.3981  0.5259  0.0206
 5684SOL    HW220841   8.908   1.526   5.226 -1.4531  0.8075 -0.5882
 5685SOL     OW20842   0.875   4.010   9.014 -0.6993  0.3026  0.0719
 5685SOL    HW120843   0.913   4.047   8.935 -0.2362 -0.6917 -0.1927
 5685SOL    HW220844   0.787   3.982   8.988 -0.2785 -0.7154 -0.3223
 5686SOL     OW20845   9.977   4.986   0.261  0.2597  0.0101  0.7483
 5686SOL    HW120846  10.055   4.988   0.317 -0.1041  0.7334  1.2399
 5686SOL    HW220847   9.979   4.899   0.221 -0.0810 -0.9941  2.7524
 5687SOL     OW20848   5.341   5.633   9.142 -0.2230 -0.1111 -0.0446
 5687SOL    HW120849   5.318   5.661   9.054  0.3237  0.0933 -0.1244
 5687SOL    HW220850   5.257   5.616   9.185 -0.5235  0.8136 -0.2651
 5688SOL     OW20851   8.540   5.476   6.863 -0.2768  0.5265 -0.2225
 5688SOL    HW120852   8.486   5.469   6.941  2.1144  0.8517  1.5829
 5688SOL    HW220853   8.498   5.544   6.810 -1.9469  0.3082  0.7751
 5689SOL     OW20854   8.257   6.904   8.328 -0.0997 -0.5145  0.3364
 5689SOL    HW120855   8.189   6.901   8.261  0.7314  3.1222 -0.8775
 5689SOL    HW220856   8.337   6.874   8.283  0.1184  0.2922  0.1736
 5690SOL     OW20857   9.383   9.176   9.129 -0.1817  0.2540  0.2029
 5690SOL    HW120858   9.349   9.139   9.211  0.0244  0.4692  0.3857
 5690SOL    HW220859   9.478   9.176   9.140 -0.0837 -0.7777 -0.4988
 5691SOL     OW20860   0.362   2.599   6.791  0.1906  0.4005 -0.0175
 5691SOL    HW120861   0.439   2.615   6.736  0.0836 -0.6369 -0.4999
 5691SOL    HW220862   0.378   2.650   6.870  2.1627 -1.0270  0.5915
 5692SOL     OW20863   5.224   9.659   7.347  0.0275  0.8094  0.5816
 5692SOL    HW120864   5.278   9.737   7.333 -0.8709  1.6487  1.6672
 5692SOL    HW220865   5.170   9.680   7.423  1.2091 -1.6491  2.2358
 5693SOL     OW20866   7.804   4.335   9.343 -0.3862  0.0081  0.8350
 5693SOL    HW120867   7.857   4.302   9.416 -0.3470  0.2715  0.9272
 5693SOL    HW220868   7.776   4.423   9.372  0.1779  0.3830  0.2471
 5694SOL     OW20869   1.905   5.311   0.727 -0.4276 -0.1097  0.1485
 5694SOL    HW120870   1.994   5.333   0.698 -0.1512 -1.1112  0.1816
 5694SOL    HW220871   1.905   5.215   0.733 -1.4750 -0.1150  0.2764
 5695SOL     OW20872   6.979   1.579   8.373  0.3002  0.0521 -0.0795
 5695SOL    HW120873   7.043   1.650   8.370 -0.3115  0.7086  1.4230
 5695SOL    HW220874   7.019   1.513   8.429 -0.4692  0.6642  1.2552
 5696SOL     OW20875   3.249   9.393   2.378  0.2883  0.1144  0.2004
 5696SOL    HW120876   3.295   9.461   2.428 -0.3705  0.0391  0.9277
 5696SOL    HW220877   3.308   9.373   2.305  0.7747  1.0072  0.3354
 5697SOL     OW20878   6.827   8.779   9.127 -0.2168 -0.6136 -0.2872
 5697SOL    HW120879   6.767   8.714   9.164  0.5011 -0.5547  1.0180
 5697SOL    HW220880   6.901   8.728   9.093  1.1220 -0.4503  2.1849
 5698SOL     OW20881   9.969   6.833   7.988 -0.2386 -0.4455 -0.8740
 5698SOL    HW120882   9.912   6.901   8.024 -0.0026 -0.8579  0.3069
 5698SOL    HW220883  10.024   6.806   8.061 -0.8174 -2.4123 -1.1047
 5699SOL     OW20884   6.416   2.123   1.576 -0.1363  0.4399  0.1964
 5699SOL    HW120885   6.499   2.112   1.623 -0.3141 -0.1106  0.3814
 5699SOL    HW220886   6.405   2.218   1.569  1.5944  0.5591 -1.7693
 5700SOL     OW20887   4.228   1.646   7.373 -0.0003  0.0281  0.6018
 5700SOL    HW120888   4.260   1.620   7.459  1.6148 -0.9063 -0.2385
 5700SOL    HW220889   4.139   1.612   7.369  1.1944 -3.4609  0.4921
 5701SOL     OW20890   6.563  10.059   2.279  0.1516 -0.2056 -0.2516
 5701SOL    HW120891   6.505  10.056   2.355 -1.8230  1.3330 -1.6007
 5701SOL    HW220892   6.554   9.972   2.239  0.0503 -0.5259  0.4599
 5702SOL     OW20893   4.398   5.588   3.057  0.0452 -0.3540 -0.2922
 5702SOL    HW120894   4.334   5.534   3.011 -0.5534 -1.0150  1.2531
 5702SOL    HW220895   4.346   5.651   3.107  0.5971 -0.6762  0.7155
 5703SOL     OW20896   7.411   0.125   8.393 -0.1336 -0.2413 -0.4311
 5703SOL    HW120897   7.355   0.082   8.329 -0.6638 -1.1517  0.6000
 5703SOL    HW220898   7.351   0.162   8.457  0.4107 -1.3576  0.7785
 5704SOL     OW20899   0.300   5.695   1.353  1.2523 -0.4386 -0.3901
 5704SOL    HW120900   0.382   5.718   1.398  1.0717 -1.9672  0.8108
 5704SOL    HW220901   0.309   5.602   1.332  0.0384 -0.5022 -0.7094
 5705SOL     OW20902   9.129   7.983   8.376  0.0931 -0.0102  0.1671
 5705SOL    HW120903   9.198   8.013   8.436  1.4275 -3.1276  0.3443
 5705SOL    HW220904   9.088   7.910   8.422 -1.1370 -0.3305 -1.3691
 5706SOL     OW20905   5.915   3.664   1.721 -0.2693  0.2849 -0.0062
 5706SOL    HW120906   5.825   3.643   1.696 -0.2693  0.6949 -0.3491
 5706SOL    HW220907   5.906   3.710   1.805 -0.3813  0.3660 -0.0627
 5707SOL     OW20908   9.250   0.482   0.744  0.1758  0.0600  0.1871
 5707SOL    HW120909   9.225   0.509   0.832  2.0781  1.1534  0.4382
 5707SOL    HW220910   9.308   0.407   0.757  0.3893  0.1644 -0.1550
 5708SOL     OW20911   2.601   2.277   1.917  0.6555  0.4387 -0.5049
 5708SOL    HW120912   2.596   2.225   1.837 -0.7752 -0.7604  0.3010
 5708SOL    HW220913   2.509   2.300   1.936  0.8855  0.0841  1.1573
 5709SOL     OW20914   6.024   7.060  10.302  0.1955 -0.1539 -0.3899
 5709SOL    HW120915   6.049   7.031  10.390 -1.7474 -1.8588 -0.3475
 5709SOL    HW220916   6.070   7.000  10.243 -0.2077 -0.4052 -0.4532
 5710SOL     OW20917   7.265   2.046   3.917 -0.0968 -0.0845  0.3876
 5710SOL    HW120918   7.173   2.046   3.943 -0.4146  0.8187 -0.6727
 5710SOL    HW220919   7.263   2.044   3.821  1.0197 -1.9685  0.3536
 5711SOL     OW20920   4.634   4.733   0.719 -0.1798 -0.0356  0.1591
 5711SOL    HW120921   4.722   4.745   0.685 -0.0892 -0.7464  0.1329
 5711SOL    HW220922   4.631   4.641   0.747 -1.4252 -0.5124 -1.3868
 5712SOL     OW20923   8.964   9.813   0.638  0.4471 -0.1584 -0.2176
 5712SOL    HW120924   9.019   9.779   0.567  0.8960 -2.5248  1.1377
 5712SOL    HW220925   8.997   9.901   0.654  0.8754  0.1290 -2.3445
 5713SOL     OW20926   9.632   9.038   2.272 -0.0390  0.2601  0.0018
 5713SOL    HW120927   9.650   8.961   2.218  1.5578  0.6297 -0.0629
 5713SOL    HW220928   9.715   9.056   2.316 -0.2034  2.2597 -0.3990
 5714SOL     OW20929   7.306   0.073   4.286  0.2288  0.1960 -0.3362
 5714SOL    HW120930   7.278   0.050   4.197  1.4087 -1.0129 -0.4298
 5714SOL    HW220931   7.376   0.011   4.305  0.0152  0.4598  1.4411
 5715SOL     OW20932   2.199   5.918   7.951 -0.2366  0.4828  0.1385
 5715SOL    HW120933   2.291   5.901   7.927  0.1356  1.4896  0.7720
 5715SOL    HW220934   2.150   5.899   7.871  0.6246  0.7263 -0.4727
 5716SOL     OW20935   7.401   8.454   2.105 -0.4595 -0.3162 -0.2946
 5716SOL    HW120936   7.341   8.379   2.107 -1.5367  0.5178  0.3704
 5716SOL    HW220937   7.367   8.510   2.035  1.0638 -0.9787 -1.6190
 5717SOL     OW20938   7.690   1.237   3.105 -0.5146  0.3627  0.6971
 5717SOL    HW120939   7.681   1.314   3.050 -0.2849 -0.6519 -0.8212
 5717SOL    HW220940   7.606   1.229   3.150 -0.4922  1.5506  0.9953
 5718SOL     OW20941   6.945   5.263   5.065 -0.3975 -0.1439 -0.5121
 5718SOL    HW120942   6.937   5.342   5.119  2.2580 -0.5956  0.7280
 5718SOL    HW220943   6.928   5.191   5.126  0.6842 -0.6083 -0.7331
 5719SOL     OW20944  10.186   9.271   1.650 -0.2166 -0.1233  0.2790
 5719SOL    HW120945  10.223   9.336   1.590 -0.1032 -0.0930  0.3809
 5719SOL    HW220946  10.249   9.199   1.650  0.0417  0.0925  0.7468
 5720SOL     OW20947   0.618   4.304   4.793 -0.2423 -0.8374  0.7603
 5720SOL    HW120948   0.609   4.250   4.871  1.4232  0.0858  1.6444
 5720SOL    HW220949   0.679   4.255   4.737 -0.5131 -0.9395  0.5521
 5721SOL     OW20950   0.555   1.551   6.843 -0.5494  0.1727  0.1626
 5721SOL    HW120951   0.518   1.463   6.834 -0.8958  0.4451 -1.3034
 5721SOL    HW220952   0.643   1.544   6.808 -0.3515  0.2691  0.6367
 5722SOL     OW20953   2.583   5.656   6.289  0.3785  0.2937 -0.4235
 5722SOL    HW120954   2.633   5.679   6.210  0.0354  0.9492 -0.4653
 5722SOL    HW220955   2.494   5.687   6.270  0.7178  2.3750  1.0091
 5723SOL     OW20956   5.893   1.522   5.198 -0.3099  0.1799  0.2571
 5723SOL    HW120957   5.821   1.536   5.260 -0.7310  2.4358 -0.6458
 5723SOL    HW220958   5.965   1.576   5.232 -0.2970  0.8338 -0.7580
 5724SOL     OW20959   1.986   6.275   2.553  0.2991 -0.3658 -0.3980
 5724SOL    HW120960   2.046   6.209   2.520  0.7589  0.1203 -0.5568
 5724SOL    HW220961   1.966   6.248   2.643  1.3696 -0.1338 -0.0706
 5725SOL     OW20962   0.828   7.401   8.441  0.2575 -0.2151 -0.4404
 5725SOL    HW120963   0.760   7.460   8.409  0.6701  0.4238 -0.1453
 5725SOL    HW220964   0.779   7.324   8.472 -0.1702 -0.7252 -2.2631
 5726SOL     OW20965   8.059   0.647   8.093  0.1448 -0.4826 -0.0176
 5726SOL    HW120966   8.107   0.709   8.149 -0.1567 -1.7463  1.7429
 5726SOL    HW220967   8.003   0.703   8.039 -0.6638  0.8394  2.0208
 5727SOL     OW20968   7.256   7.556   8.293 -0.6005 -0.0072 -0.0078
 5727SOL    HW120969   7.299   7.638   8.313 -1.4044  0.6290 -0.7980
 5727SOL    HW220970   7.188   7.548   8.360 -0.0793 -0.3853  0.4842
 5728SOL     OW20971   5.773   0.315   4.337  0.1423 -0.1440  0.4020
 5728SOL    HW120972   5.867   0.300   4.343  0.0579 -0.5180  0.8194
 5728SOL    HW220973   5.763   0.410   4.348  0.3931 -0.2205  1.3875
 5729SOL     OW20974   2.239   0.482   3.566 -0.1536 -0.1147  0.1457
 5729SOL    HW120975   2.160   0.505   3.517 -0.1717 -2.2086 -0.9032
 5729SOL    HW220976   2.308   0.474   3.500  0.1329 -1.6594  0.5806
 5730SOL     OW20977   9.956   9.509   3.719 -0.0479  0.2027  0.1015
 5730SOL    HW120978   9.862   9.498   3.728 -0.5048  0.9658 -2.8086
 5730SOL    HW220979   9.983   9.443   3.656  1.1605  0.7797 -0.0228
 5731SOL     OW20980   9.794  10.001   4.630 -0.3052 -0.5425 -0.4335
 5731SOL    HW120981   9.800   9.907   4.651 -0.6887 -0.8727 -1.7307
 5731SOL    HW220982   9.885  10.027   4.614 -0.0402 -0.3629  1.1828
 5732SOL     OW20983   4.149   5.134   8.685 -0.6771  0.0990  0.0291
 5732SOL    HW120984   4.080   5.069   8.703 -0.0498 -0.5966 -0.0291
 5732SOL    HW220985   4.138   5.156   8.593 -1.8052  1.1825  0.3884
 5733SOL     OW20986   8.017   4.629   3.575 -0.3033  0.6067 -0.3246
 5733SOL    HW120987   8.067   4.660   3.499  0.9519  2.3220  1.1243
 5733SOL    HW220988   7.948   4.694   3.587 -1.1349 -0.2118 -0.5828
 5734SOL     OW20989   7.704   8.243   2.225 -0.3365 -0.1640 -0.0859
 5734SOL    HW120990   7.711   8.338   2.216 -0.7765  0.0970  1.7430
 5734SOL    HW220991   7.659   8.231   2.309  0.9275 -2.0021  0.3795
 5735SOL     OW20992   2.756   2.715   4.205 -0.1164 -0.6585 -0.0502
 5735SOL    HW120993   2.781   2.663   4.281 -0.6968 -2.1848 -0.8536
 5735SOL    HW220994   2.678   2.671   4.171 -0.2246  0.3526 -1.1674
 5736SOL     OW20995   1.985   3.806  10.260 -0.2330  0.4791 -0.0700
 5736SOL    HW120996   2.051   3.872  10.283  0.8391  0.2217 -2.2249
 5736SOL    HW220997   1.933   3.797  10.340  2.1727  0.8430  1.6588
 5737SOL     OW20998   9.387   0.616   5.741  0.0809  0.1697  0.0233
 5737SOL    HW120999   9.374   0.710   5.729  0.4445  0.2953  0.5461
 5737SOL    HW221000   9.406   0.606   5.835 -0.0479 -0.4351 -0.0091
 5738SOL     OW21001   3.861   3.948   4.363 -0.1501 -1.0616  0.2746
 5738SOL    HW121002   3.918   3.873   4.350 -1.7826 -2.1112 -1.3723
 5738SOL    HW221003   3.773   3.911   4.374 -0.7114  0.5256  1.6858
 5739SOL     OW21004   0.947   2.892   4.776 -0.5504  0.1193 -0.4392
 5739SOL    HW121005   0.995   2.950   4.716  0.6119 -1.9155 -1.5640
 5739SOL    HW221006   0.887   2.844   4.720  0.6061 -1.8781 -0.0366
 5740SOL     OW21007   1.898   7.708   6.756  0.8589  0.1127 -0.0694
 5740SOL    HW121008   1.812   7.728   6.719  1.5166  0.5112 -1.4747
 5740SOL    HW221009   1.951   7.784   6.733  1.9287 -0.7144 -0.3902
 5741SOL     OW21010   8.945   4.154   3.153  0.2358 -0.2770 -0.2483
 5741SOL    HW121011   8.871   4.198   3.111 -0.3719 -0.4073  0.6573
 5741SOL    HW221012   8.987   4.223   3.205 -0.3972 -0.6188  0.7475
 5742SOL     OW21013   5.570   5.949   6.129 -0.3065 -0.4276  0.0919
 5742SOL    HW121014   5.523   6.030   6.111  0.2296 -0.1858 -0.2320
 5742SOL    HW221015   5.557   5.934   6.223  0.5104  0.6284  0.3883
 5743SOL     OW21016   3.868   3.650   1.642 -0.4018  0.2215  0.2445
 5743SOL    HW121017   3.923   3.727   1.626  0.4316 -0.6976 -1.5114
 5743SOL    HW221018   3.787   3.686   1.678  0.0581  1.8972 -0.3046
 5744SOL     OW21019   4.029   1.599   6.769 -0.1683  0.2890 -0.2622
 5744SOL    HW121020   4.123   1.591   6.757 -0.0634  0.4224  0.4391
 5744SOL    HW221021   3.995   1.511   6.753  0.2040 -0.0125  0.5213
 5745SOL     OW21022   9.479   9.058   1.794  0.1121  0.3579 -0.2127
 5745SOL    HW121023   9.468   8.965   1.815 -1.3881  0.7030  0.6065
 5745SOL    HW221024   9.413   9.103   1.846  0.7511  1.8918 -0.6756
 5746SOL     OW21025   4.621   1.642   4.571  0.1631 -0.3506  0.0941
 5746SOL    HW121026   4.544   1.660   4.624  0.3978  0.7590  0.0895
 5746SOL    HW221027   4.695   1.656   4.630  0.5086  2.4583 -0.8304
 5747SOL     OW21028   8.404   2.645   9.088 -0.5260 -0.0771  0.2065
 5747SOL    HW121029   8.490   2.672   9.121 -0.2718 -0.0935 -0.4367
 5747SOL    HW221030   8.355   2.623   9.167  0.1246 -0.2587  0.5717
 5748SOL     OW21031   9.474   3.827   7.585  0.6485 -0.3913 -0.0918
 5748SOL    HW121032   9.416   3.816   7.660 -2.3025 -0.6990 -2.2498
 5748SOL    HW221033   9.479   3.739   7.546  0.8328  0.0795 -1.1555
 5749SOL     OW21034   9.737   3.816   3.526 -0.1468  0.0987  0.4956
 5749SOL    HW121035   9.737   3.813   3.622 -0.7934 -1.4937  0.4822
 5749SOL    HW221036   9.655   3.860   3.503 -0.8519 -1.0489  0.6972
 5750SOL     OW21037   4.827   1.485   2.550  0.5143  0.1146 -0.3236
 5750SOL    HW121038   4.886   1.512   2.479  0.0686 -0.0944 -0.7791
 5750SOL    HW221039   4.855   1.395   2.572  0.8588  0.2946 -0.0083
 5751SOL     OW21040   0.698   1.828   6.554  0.4362 -0.9699  0.4560
 5751SOL    HW121041   0.654   1.875   6.484  1.0068  0.4085  0.9818
 5751SOL    HW221042   0.687   1.735   6.533  0.4318 -0.5826 -1.3347
 5752SOL     OW21043   6.500  10.311   6.794  0.2736 -0.3132  0.6815
 5752SOL    HW121044   6.537  10.332   6.708  1.4081 -2.2474  0.6371
 5752SOL    HW221045   6.523  10.386   6.849  1.1584  0.1087 -0.2319
 5753SOL     OW21046   2.883   5.503   1.266 -0.2981 -0.5930  0.5341
 5753SOL    HW121047   2.955   5.454   1.225  0.5675  0.2970  0.9730
 5753SOL    HW221048   2.923   5.549   1.339 -0.6774  2.2175 -0.8988
 5754SOL     OW21049   4.716   1.830   8.710 -0.1831 -0.5290 -0.0978
 5754SOL    HW121050   4.761   1.909   8.740  0.3101 -1.2503  1.1090
 5754SOL    HW221051   4.623   1.849   8.721 -0.2616  0.8871 -2.3900
 5755SOL     OW21052   6.282   4.403   5.049  0.8893  0.6290  0.3266
 5755SOL    HW121053   6.232   4.475   5.011  0.1458  0.3332  0.7337
 5755SOL    HW221054   6.300   4.430   5.139 -0.5753 -0.2489  0.9220
 5756SOL     OW21055   8.489   1.143   2.299  0.0061  0.6715  0.1493
 5756SOL    HW121056   8.541   1.084   2.354 -0.5842  1.5469  1.7269
 5756SOL    HW221057   8.410   1.159   2.350 -0.4012  1.8447 -0.8053
 5757SOL     OW21058   0.842   3.994   2.611 -0.2672 -0.1748 -0.2152
 5757SOL    HW121059   0.879   3.910   2.638  0.2877  0.4860  1.1427
 5757SOL    HW221060   0.749   3.975   2.596 -0.4415 -0.7721  1.4042
 5758SOL     OW21061   4.862   3.315  10.193  0.2954  0.5738 -0.0532
 5758SOL    HW121062   4.790   3.363  10.152 -0.3286 -0.7076 -0.4872
 5758SOL    HW221063   4.938   3.371  10.179  0.0022  0.4617 -2.4967
 5759SOL     OW21064   5.819   5.556  10.128  0.2008  0.6025  0.1651
 5759SOL    HW121065   5.813   5.470  10.085  1.0618  1.0931 -0.9967
 5759SOL    HW221066   5.841   5.616  10.057 -0.9058  1.8900  0.8692
 5760SOL     OW21067   1.572   4.720   0.714 -0.1940 -0.0704  0.2109
 5760SOL    HW121068   1.489   4.706   0.760  0.8717 -1.6117  1.7441
 5760SOL    HW221069   1.638   4.725   0.783  1.2107 -0.3783 -1.0569
 5761SOL     OW21070   8.857   7.086   6.331  0.0268  0.0525 -0.4456
 5761SOL    HW121071   8.836   7.018   6.267 -0.0552  0.3567 -0.7468
 5761SOL    HW221072   8.866   7.039   6.414  1.2177 -0.4953 -0.8594
 5762SOL     OW21073   9.960   1.383   6.392  0.5532  0.1763  0.4087
 5762SOL    HW121074   9.879   1.379   6.443 -0.0008 -1.3345 -0.5058
 5762SOL    HW221075   9.994   1.472   6.406 -0.4173  0.3202  2.0681
 5763SOL     OW21076   2.744   1.535   6.054  0.4948 -0.0975 -0.0621
 5763SOL    HW121077   2.789   1.599   6.109  1.1592  0.9839 -1.7952
 5763SOL    HW221078   2.732   1.579   5.970 -0.5527 -1.6678 -0.7872
 5764SOL     OW21079   9.686   6.648   0.501 -0.1678  0.0692 -0.1374
 5764SOL    HW121080   9.619   6.703   0.540  0.3300 -0.2513  1.2410
 5764SOL    HW221081   9.769   6.684   0.534  0.2120 -0.8874 -0.0048
 5765SOL     OW21082   7.542   0.432   6.791  0.0388  0.0687 -0.3912
 5765SOL    HW121083   7.635   0.451   6.791  0.0204  0.2245  0.6195
 5765SOL    HW221084   7.514   0.446   6.700  0.7504  1.1956 -0.4549
 5766SOL     OW21085   6.804   6.978   6.753 -0.2652 -0.2298 -0.0254
 5766SOL    HW121086   6.851   7.014   6.677 -3.0590  0.0087 -1.7948
 5766SOL    HW221087   6.741   7.046   6.776 -2.2041 -1.9078 -0.1326
 5767SOL     OW21088   6.588   9.569   9.303 -1.0456 -0.1734 -0.4267
 5767SOL    HW121089   6.529   9.603   9.236  1.2547  2.2259 -1.4347
 5767SOL    HW221090   6.650   9.514   9.256 -0.4757  0.0783  0.0147
 5768SOL     OW21091   2.068   7.465   6.813 -0.0054  0.3632  0.4652
 5768SOL    HW121092   2.036   7.542   6.765  0.1633 -0.5561 -1.2216
 5768SOL    HW221093   1.990   7.425   6.849  0.0764  2.5132  3.4005
 5769SOL     OW21094   8.234   7.551   0.113 -0.0756  0.6974  0.3235
 5769SOL    HW121095   8.233   7.629   0.058  1.1244  0.3993 -0.1453
 5769SOL    HW221096   8.311   7.562   0.169  0.0655 -0.1147  0.3013
 5770SOL     OW21097   6.873   6.753   6.424 -0.2639  0.3856 -0.2677
 5770SOL    HW121098   6.880   6.750   6.329  1.4886 -0.5386 -0.1570
 5770SOL    HW221099   6.951   6.801   6.452 -1.4313  1.8381  0.6717
 5771SOL     OW21100   8.054   2.348   5.589  0.0534  0.2446 -0.1286
 5771SOL    HW121101   8.066   2.346   5.684  0.7416  1.5701 -0.1640
 5771SOL    HW221102   7.995   2.274   5.571  0.9455 -0.8450  1.1621
 5772SOL     OW21103   6.756   6.407   2.778 -0.2699 -0.2744 -0.6756
 5772SOL    HW121104   6.843   6.418   2.739  0.2379 -3.3537 -0.6729
 5772SOL    HW221105   6.709   6.350   2.717 -1.2674 -1.0175  0.7162
 5773SOL     OW21106   4.284   9.626   2.128  0.0933 -0.0219  0.0472
 5773SOL    HW121107   4.234   9.558   2.081  2.0943 -1.7902  0.3140
 5773SOL    HW221108   4.229   9.649   2.203 -0.6787 -1.2951 -0.0974
 5774SOL     OW21109   9.406   0.842   0.492 -0.4063  0.4408 -0.2182
 5774SOL    HW121110   9.407   0.937   0.497 -1.0373  0.4268  0.5418
 5774SOL    HW221111   9.498   0.816   0.488 -0.2335  1.0819 -0.3655
 5775SOL     OW21112   7.655  10.149   2.035  0.6150  0.0097 -0.1664
 5775SOL    HW121113   7.707  10.081   2.079  0.2025  0.2292  0.6755
 5775SOL    HW221114   7.700  10.231   2.055 -1.2830  0.5281  2.6450
 5776SOL     OW21115   3.495   1.118   3.562  0.0721 -0.3315  0.2205
 5776SOL    HW121116   3.557   1.066   3.511  0.3333 -0.6035  0.8115
 5776SOL    HW221117   3.409   1.088   3.532  0.2062 -1.6754  1.1061
 5777SOL     OW21118   9.786   9.341   4.373 -0.2499 -0.0123  0.3176
 5777SOL    HW121119   9.747   9.305   4.294  2.7330  0.4476 -1.5041
 5777SOL    HW221120   9.785   9.436   4.360 -1.2223  0.1957  1.6494
 5778SOL     OW21121   8.727   3.395   4.854 -0.0113 -0.5290 -0.6539
 5778SOL    HW121122   8.705   3.469   4.910 -1.1709 -1.6096  0.3641
 5778SOL    HW221123   8.815   3.414   4.822  0.1231  0.7757  0.4300
 5779SOL     OW21124   0.290   4.791   7.443  0.4185 -0.2169  0.2155
 5779SOL    HW121125   0.374   4.765   7.482  0.5166  0.1096  0.2253
 5779SOL    HW221126   0.314   4.832   7.359  0.1165 -2.3682 -0.9793
 5780SOL     OW21127   5.762   6.956   3.450  0.5164 -0.0640  0.1991
 5780SOL    HW121128   5.786   6.938   3.541 -0.2243 -1.3925  0.1589
 5780SOL    HW221129   5.764   6.870   3.408  2.7512  0.7452 -1.5426
 5781SOL     OW21130   0.329   6.057   1.886  0.1968 -0.4318  0.0822
 5781SOL    HW121131   0.269   6.033   1.815  1.3108 -1.4785 -0.5403
 5781SOL    HW221132   0.318   6.152   1.896 -1.0273 -0.5045 -0.5014
 5782SOL     OW21133   6.302   4.426   8.014 -0.0244 -0.7129 -0.2833
 5782SOL    HW121134   6.263   4.373   8.084  0.6189  1.4584  1.8828
 5782SOL    HW221135   6.230   4.477   7.979 -0.0753 -0.6600 -0.1028
 5783SOL     OW21136  10.005   0.019   0.289 -0.7645  0.1769  0.4625
 5783SOL    HW121137  10.070   0.031   0.358  0.3976 -1.5565 -0.2372
 5783SOL    HW221138  10.052   0.042   0.208 -1.0450 -0.8941 -0.0287
 5784SOL     OW21139   8.865   7.577   8.135  0.4728  0.0879 -0.1555
 5784SOL    HW121140   8.900   7.605   8.050  3.0257  0.9734  1.1136
 5784SOL    HW221141   8.797   7.641   8.155  1.3031  1.1416 -0.5987
 5785SOL     OW21142   5.097   5.493   9.207  0.5564  0.0762 -0.0697
 5785SOL    HW121143   5.045   5.497   9.288  1.1625 -0.9555  0.3945
 5785SOL    HW221144   5.031   5.489   9.137 -0.2317 -4.5680  0.6270
 5786SOL     OW21145   1.373   7.652   3.153  0.1437  0.2668 -0.1170
 5786SOL    HW121146   1.449   7.604   3.185  0.4356 -1.6234 -3.2420
 5786SOL    HW221147   1.409   7.734   3.120  0.0560  1.5007  2.6220
 5787SOL     OW21148   6.521   1.859   9.040 -0.3168  0.3035  0.6461
 5787SOL    HW121149   6.491   1.931   9.095  0.9637  0.5068  1.0904
 5787SOL    HW221150   6.492   1.780   9.086  2.5958  0.3734  2.8360
 5788SOL     OW21151   6.189   2.531   1.583 -0.1026  0.4030 -0.5524
 5788SOL    HW121152   6.118   2.494   1.530  0.5271  0.2532 -1.3069
 5788SOL    HW221153   6.169   2.625   1.587 -0.7803  0.2452 -0.0692
 5789SOL     OW21154   6.453   2.910   2.141 -0.1205  0.3652  0.2887
 5789SOL    HW121155   6.401   2.844   2.095  0.7954 -0.4901  0.4662
 5789SOL    HW221156   6.479   2.868   2.223  0.8025  0.7908  0.2285
 5790SOL     OW21157   5.649   3.108   8.476 -0.3401  0.0872 -0.3431
 5790SOL    HW121158   5.654   3.081   8.384  0.1426 -2.1752  0.2680
 5790SOL    HW221159   5.556   3.117   8.494 -0.4600  0.0061 -0.9106
 5791SOL     OW21160  10.087   7.871   4.422 -0.4668 -0.2533 -0.3664
 5791SOL    HW121161  10.132   7.895   4.341  0.0820  1.1325  0.3104
 5791SOL    HW221162  10.146   7.807   4.463  0.6055  1.0209  0.1734
 5792SOL     OW21163   8.451   2.181   5.215 -0.4476 -0.0765  0.0353
 5792SOL    HW121164   8.409   2.168   5.300  1.0363 -0.2498  0.7617
 5792SOL    HW221165   8.379   2.208   5.157 -2.3031 -3.8181  0.3117
 5793SOL     OW21166   8.737  10.116   6.586 -0.2943 -0.1811  0.2859
 5793SOL    HW121167   8.674  10.090   6.518  1.9474 -0.3888 -1.8639
 5793SOL    HW221168   8.711  10.204   6.611 -1.6440 -0.3964 -0.2826
 5794SOL     OW21169   2.038   2.276   3.651 -0.0426 -0.7446  0.3449
 5794SOL    HW121170   2.014   2.318   3.568 -0.5494 -0.3890  0.6733
 5794SOL    HW221171   1.957   2.236   3.682 -0.7933  2.0505  2.4168
 5795SOL     OW21172   9.064   0.557   9.514  0.1182 -0.0805 -0.6921
 5795SOL    HW121173   9.149   0.553   9.556  0.4119 -0.5214 -1.3102
 5795SOL    HW221174   9.081   0.600   9.430 -0.3252  0.1296 -0.6753
 5796SOL     OW21175   5.316   0.807   5.348 -0.3149 -0.4081 -0.2804
 5796SOL    HW121176   5.336   0.722   5.308 -0.7643 -0.3379 -0.6640
 5796SOL    HW221177   5.340   0.797   5.440 -1.1207 -1.2221 -0.1449
 5797SOL     OW21178   8.774   6.604   0.366 -0.1781  0.2678 -0.1250
 5797SOL    HW121179   8.773   6.527   0.422 -3.5285  0.2644  0.0268
 5797SOL    HW221180   8.864   6.611   0.336  0.9003 -1.9283  2.2304
 5798SOL     OW21181   2.238   2.656   3.940 -0.1345  0.0002 -0.0019
 5798SOL    HW121182   2.244   2.601   3.862  0.3921 -0.6588  0.5026
 5798SOL    HW221183   2.320   2.642   3.987 -0.8142 -0.3151  1.1366
 5799SOL     OW21184   4.392   0.952   3.128  0.5171 -0.0775  0.2720
 5799SOL    HW121185   4.348   1.019   3.180  0.2559 -1.0105  1.2924
 5799SOL    HW221186   4.433   0.894   3.193  2.4406  0.2075 -0.6216
 5800SOL     OW21187   2.510   3.427   6.761  0.0634 -0.1271 -0.4185
 5800SOL    HW121188   2.568   3.358   6.793  1.3194  0.4377 -1.3680
 5800SOL    HW221189   2.422   3.389   6.765  0.0718 -0.1241  3.5210
 5801SOL     OW21190   8.714   7.428   0.224 -0.4765  0.5781 -0.1200
 5801SOL    HW121191   8.775   7.502   0.217 -0.7020  0.7603 -0.1736
 5801SOL    HW221192   8.730   7.392   0.311  1.4059 -0.8719 -0.9952
 5802SOL     OW21193   6.298   4.182   8.457  0.2891 -0.0148  0.7087
 5802SOL    HW121194   6.253   4.123   8.518  0.0990  0.2999  0.8754
 5802SOL    HW221195   6.383   4.141   8.441  0.2379 -0.2257  0.9859
 5803SOL     OW21196   3.863   2.765   0.175 -0.1927 -0.2476  0.3862
 5803SOL    HW121197   3.898   2.790   0.261 -0.7994  0.5743  0.4082
 5803SOL    HW221198   3.835   2.848   0.136 -0.1700 -0.6498 -0.4983
 5804SOL     OW21199   3.275   5.258   1.681 -0.2717 -0.2403 -0.3766
 5804SOL    HW121200   3.369   5.242   1.695  0.1757  1.5335 -1.0667
 5804SOL    HW221201   3.240   5.273   1.768  0.1741 -0.4650 -0.1522
 5805SOL     OW21202   1.996   4.998   6.345  0.3437  0.4178  0.2837
 5805SOL    HW121203   1.969   4.908   6.332  0.5448  0.3595  0.2626
 5805SOL    HW221204   1.915   5.049   6.342  0.3554  0.3893 -0.9878
 5806SOL     OW21205   5.003   4.590   1.940  0.2591 -0.2090 -0.0440
 5806SOL    HW121206   4.991   4.635   1.857  0.2602 -1.3962 -0.7059
 5806SOL    HW221207   4.966   4.650   2.005  0.0847  0.6496 -0.9099
 5807SOL     OW21208   7.885   9.225   5.555  0.3026 -0.4091  1.0105
 5807SOL    HW121209   7.858   9.307   5.515  0.0012 -0.5254  0.9731
 5807SOL    HW221210   7.842   9.224   5.640 -1.6768 -1.6304  0.0644
 5808SOL     OW21211   9.952   1.484   5.420 -0.3062  0.1081 -0.0023
 5808SOL    HW121212   9.901   1.417   5.374  0.9380 -0.6081 -0.3859
 5808SOL    HW221213   9.951   1.455   5.511 -0.5920  0.1088 -0.0027
 5809SOL     OW21214   0.769   1.347   6.175  0.4779 -0.9227  0.1647
 5809SOL    HW121215   0.679   1.359   6.144  1.3019  0.6316 -1.8925
 5809SOL    HW221216   0.790   1.429   6.219  0.8733 -1.3283  0.7463
 5810SOL     OW21217   1.758   9.842   7.725  0.1830  0.3183 -0.4031
 5810SOL    HW121218   1.732   9.765   7.675  1.6281 -0.3402 -0.1906
 5810SOL    HW221219   1.676   9.885   7.747 -0.6714 -1.2603 -0.3660
 5811SOL     OW21220   5.004   1.431   0.767  0.5445 -0.1464 -0.4182
 5811SOL    HW121221   4.982   1.462   0.855  1.5980 -0.7988  0.0910
 5811SOL    HW221222   4.926   1.383   0.738 -0.0395  0.5902 -0.0992
 5812SOL     OW21223   4.939   5.237   4.347 -0.1935 -0.1596 -0.5096
 5812SOL    HW121224   4.958   5.322   4.310 -0.6392 -0.4737 -1.4947
 5812SOL    HW221225   5.024   5.199   4.367  0.0220  0.3071 -0.5409
 5813SOL     OW21226   4.703   5.791   4.198 -0.1044 -0.2358 -0.3213
 5813SOL    HW121227   4.639   5.858   4.221 -1.2274 -0.9592 -1.1747
 5813SOL    HW221228   4.669   5.711   4.238  0.6670 -0.4950 -0.1663
 5814SOL     OW21229   8.224   8.419   7.239 -0.0149  0.6321 -0.7659
 5814SOL    HW121230   8.166   8.443   7.167 -1.2033  0.7493  0.2029
 5814SOL    HW221231   8.166   8.381   7.305  1.1349 -0.0668 -0.1220
 5815SOL     OW21232   9.042   8.849   2.852 -0.3191 -0.3469  0.1408
 5815SOL    HW121233   9.092   8.894   2.783  0.2748 -2.4503 -0.8833
 5815SOL    HW221234   8.951   8.869   2.833 -0.1543 -0.7896 -1.2026
 5816SOL     OW21235   4.142   1.043   9.635  0.3213 -0.5136  0.2685
 5816SOL    HW121236   4.064   1.020   9.686 -0.2195  0.3088 -0.1701
 5816SOL    HW221237   4.201   1.083   9.699  0.4698 -1.2888  0.6351
 5817SOL     OW21238   5.276   5.607   1.693 -0.2584 -0.0473  0.5876
 5817SOL    HW121239   5.254   5.675   1.756 -0.1228  0.2149  0.3500
 5817SOL    HW221240   5.297   5.530   1.747 -0.7260  0.0014  0.8468
 5818SOL     OW21241   8.628  10.237   6.965  0.4438  0.5155 -0.1398
 5818SOL    HW121242   8.629  10.305   7.032  0.1590 -0.5974  1.0388
 5818SOL    HW221243   8.702  10.257   6.908  0.6227  1.5436  0.4419
 5819SOL     OW21244   3.680   6.126   5.557  0.0885  0.0003  0.1454
 5819SOL    HW121245   3.696   6.207   5.606 -0.6200  0.0833  0.2527
 5819SOL    HW221246   3.687   6.056   5.622  0.9377 -0.0536  0.0068
 5820SOL     OW21247   4.132   8.726   2.792  0.2933  0.2201 -0.1733
 5820SOL    HW121248   4.037   8.730   2.807  0.3261  1.4931 -0.2141
 5820SOL    HW221249   4.140   8.702   2.700 -0.0255  1.8135 -0.6397
 5821SOL     OW21250   8.977   5.549   1.040 -0.2486 -0.4910 -0.1672
 5821SOL    HW121251   8.924   5.628   1.050 -0.7326 -0.7859 -0.3624
 5821SOL    HW221252   9.067   5.578   1.052 -0.4177  0.1079 -0.3483
 5822SOL     OW21253   3.836   3.853   6.928  0.2548 -0.8070  0.0923
 5822SOL    HW121254   3.818   3.847   7.022  1.7843 -1.3651  0.3900
 5822SOL    HW221255   3.847   3.946   6.912 -0.0335 -0.7034  0.4673
 5823SOL     OW21256   2.842   8.769   0.138 -0.1644 -0.2642  0.3621
 5823SOL    HW121257   2.925   8.787   0.094 -0.3376 -0.6121 -0.1117
 5823SOL    HW221258   2.816   8.683   0.107 -2.1802  1.0153 -1.8467
 5824SOL     OW21259   6.036   6.060   0.157  0.4783 -0.0231  0.1100
 5824SOL    HW121260   5.969   6.055   0.225  1.3036  1.1615  1.0611
 5824SOL    HW221261   5.993   6.028   0.078 -0.4419 -1.6843  1.2166
 5825SOL     OW21262   9.074   3.693   6.319  0.1469 -0.1685  0.3100
 5825SOL    HW121263   9.122   3.776   6.328 -2.0858  1.1377  0.8872
 5825SOL    HW221264   8.995   3.705   6.372 -0.7615 -2.2798 -0.4553
 5826SOL     OW21265   4.075   1.899   4.632  0.1398  0.1327  0.4328
 5826SOL    HW121266   4.069   1.902   4.727 -1.1153  1.6725  0.3499
 5826SOL    HW221267   4.137   1.969   4.610  0.6109 -0.3762  0.1180
 5827SOL     OW21268   7.053   3.561   8.927 -0.3398 -1.2873 -0.3833
 5827SOL    HW121269   7.091   3.478   8.897  0.4259 -0.8473 -0.6525
 5827SOL    HW221270   7.005   3.538   9.006 -0.0423 -1.9718 -0.3951
 5828SOL     OW21271   3.256   4.597   8.830 -0.4927 -0.3662  0.6357
 5828SOL    HW121272   3.233   4.616   8.921 -1.4668 -0.0727  0.3433
 5828SOL    HW221273   3.261   4.501   8.826 -1.9915 -0.4728  0.6652
 5829SOL     OW21274   4.650   6.062   4.540 -0.1477  0.5592  0.4636
 5829SOL    HW121275   4.570   6.011   4.525 -0.3919  0.6991  1.2186
 5829SOL    HW221276   4.644   6.136   4.479 -1.6986  1.7867  2.0029
 5830SOL     OW21277   0.037  10.300   6.132 -0.1340 -0.2437  0.1637
 5830SOL    HW121278   0.079  10.341   6.207 -0.0574  0.0295 -0.0287
 5830SOL    HW221279  -0.003  10.220   6.167 -1.0502  0.4475  0.7120
 5831SOL     OW21280  10.159   7.993   3.410 -0.1815 -0.5488  0.0892
 5831SOL    HW121281  10.194   8.055   3.474 -2.1832 -1.3374  2.0703
 5831SOL    HW221282  10.072   8.028   3.388  0.8099  0.2439 -3.0757
 5832SOL     OW21283   9.491   7.925   8.829  0.0450 -0.2746  0.1452
 5832SOL    HW121284   9.578   7.936   8.866 -0.0551 -1.4916  0.8041
 5832SOL    HW221285   9.500   7.951   8.737  1.2657 -0.9947  0.0407
 5833SOL     OW21286   4.866   3.850   7.585 -0.4029  0.7275 -0.4535
 5833SOL    HW121287   4.807   3.925   7.577 -2.4166 -0.7016  0.1271
 5833SOL    HW221288   4.908   3.861   7.670  0.3753  1.8730 -0.9618
 5834SOL     OW21289   1.836   3.039   6.959 -0.0066 -0.1536  0.4780
 5834SOL    HW121290   1.741   3.038   6.946 -0.3032  0.5005  2.3144
 5834SOL    HW221291   1.847   3.058   7.052  1.9170 -1.4618  0.5653
 5835SOL     OW21292   4.274   2.104   1.491 -0.1199  0.3780  0.5859
 5835SOL    HW121293   4.197   2.117   1.436  0.1838 -0.2361 -0.0075
 5835SOL    HW221294   4.343   2.157   1.450  0.6341 -1.5549 -0.8037
 5836SOL     OW21295   7.280   7.840   8.286 -0.1117 -0.9950 -0.4591
 5836SOL    HW121296   7.363   7.887   8.297  0.3458 -2.1367  1.6971
 5836SOL    HW221297   7.218   7.906   8.255  1.4246  0.0317 -1.5109
 5837SOL     OW21298   1.110   8.657   6.268 -0.6288 -0.0206 -0.4321
 5837SOL    HW121299   1.048   8.727   6.247  0.9842  1.1508 -1.5798
 5837SOL    HW221300   1.190   8.682   6.221  0.1943 -2.3410 -0.3713
 5838SOL     OW21301   0.200   6.002   2.350 -0.4949 -0.0126  0.5444
 5838SOL    HW121302   0.293   5.999   2.328 -0.5582  1.2353 -0.0222
 5838SOL    HW221303   0.177   5.912   2.372  0.6149 -0.5268 -0.2999
 5839SOL     OW21304   0.027   8.051   4.046  0.2172  0.3828  0.2514
 5839SOL    HW121305   0.117   8.040   4.018  0.7103 -1.5203  2.2556
 5839SOL    HW221306   0.031   8.117   4.115  0.4082 -0.8098  1.4355
 5840SOL     OW21307   3.266   7.096   5.591 -0.3065  0.7023 -0.5995
 5840SOL    HW121308   3.272   7.093   5.496  2.1193 -0.1060 -0.4854
 5840SOL    HW221309   3.337   7.040   5.622 -1.1093  0.8329  1.6994
 5841SOL     OW21310   1.598   6.804   3.165  0.1385 -0.2974  0.4698
 5841SOL    HW121311   1.643   6.834   3.244 -0.8475  2.0844  0.2127
 5841SOL    HW221312   1.526   6.866   3.154 -1.6865 -2.4439 -0.5624
 5842SOL     OW21313   5.677   0.770   9.466  0.7122  0.3951  0.2512
 5842SOL    HW121314   5.742   0.708   9.501  1.6266  1.0963 -0.1758
 5842SOL    HW221315   5.652   0.824   9.541 -1.2046 -1.3649  1.0008
 5843SOL     OW21316   7.173   9.168   2.451 -0.0789  0.0141 -0.8068
 5843SOL    HW121317   7.165   9.112   2.528 -0.6841 -0.7522 -1.4082
 5843SOL    HW221318   7.083   9.187   2.426  0.1177  1.7454 -0.2877
 5844SOL     OW21319   7.445   0.233   3.998  0.3682 -0.1331  0.2191
 5844SOL    HW121320   7.386   0.159   4.003 -0.3965  0.5406  2.1549
 5844SOL    HW221321   7.427   0.284   4.077  0.8815  2.0992 -1.0060
 5845SOL     OW21322   9.517   0.099   5.529  0.1101  0.0248 -0.7167
 5845SOL    HW121323   9.512   0.048   5.449  1.3415 -1.9331  0.3934
 5845SOL    HW221324   9.609   0.120   5.540 -0.2547  1.8171 -0.6800
 5846SOL     OW21325   2.203   0.053   9.410 -0.3075 -0.4195  0.2902
 5846SOL    HW121326   2.160   0.050   9.325  0.1545  1.0758 -0.0414
 5846SOL    HW221327   2.153   0.119   9.459 -0.1877 -0.8147  0.9453
 5847SOL     OW21328   3.349   4.798   8.347  0.3696  0.6687 -0.8297
 5847SOL    HW121329   3.265   4.842   8.330  0.3446  0.7409 -0.5190
 5847SOL    HW221330   3.352   4.787   8.442  1.2583  1.7381 -0.7235
 5848SOL     OW21331   8.732   5.841   5.599 -0.5495  0.0654  0.5212
 5848SOL    HW121332   8.765   5.860   5.511 -1.3912  2.5492  0.6854
 5848SOL    HW221333   8.802   5.790   5.639  1.4208  1.8463 -0.4404
 5849SOL     OW21334   3.093   0.334   1.426 -0.1532 -0.0524 -0.1792
 5849SOL    HW121335   3.106   0.340   1.331  0.7547  0.2012 -0.0484
 5849SOL    HW221336   3.175   0.366   1.463 -0.5472 -0.0431  0.6970
 5850SOL     OW21337   1.116   8.332   1.889  0.0582  0.1669 -0.2631
 5850SOL    HW121338   1.182   8.364   1.951  0.8280 -0.7992 -0.5526
 5850SOL    HW221339   1.116   8.396   1.818  0.3091  0.4444 -0.0156
 5851SOL     OW21340   5.764   6.713   8.356 -0.3627 -0.4800 -0.0734
 5851SOL    HW121341   5.738   6.681   8.270  0.1737 -0.2253 -0.3396
 5851SOL    HW221342   5.857   6.734   8.346 -0.2692 -0.5550  0.5996
 5852SOL     OW21343   9.794   3.453   6.750  0.4804  0.3940 -0.3061
 5852SOL    HW121344   9.872   3.501   6.722  0.1765  1.0376 -0.0794
 5852SOL    HW221345   9.822   3.362   6.753  0.6537  0.3234 -2.2949
 5853SOL     OW21346   9.898   0.384   1.051  0.0175 -0.1179 -0.1022
 5853SOL    HW121347   9.957   0.359   0.980 -0.5846  0.6124 -0.8629
 5853SOL    HW221348   9.920   0.475   1.070  0.0008 -0.2321  0.4834
 5854SOL     OW21349   3.959   7.605   1.840  0.3578  0.0014 -0.8011
 5854SOL    HW121350   3.866   7.626   1.837 -0.1003 -1.4297  1.1764
 5854SOL    HW221351   3.996   7.646   1.762 -1.7709  1.2945 -1.2003
 5855SOL     OW21352   3.758   9.046   4.570 -0.6927  0.2125 -0.1485
 5855SOL    HW121353   3.752   8.951   4.558 -3.2775  0.2920 -0.0688
 5855SOL    HW221354   3.852   9.064   4.575 -0.1376 -2.4806  0.9793
 5856SOL     OW21355   8.655   6.474   8.746  0.1033 -0.2901 -0.4427
 5856SOL    HW121356   8.599   6.533   8.696 -2.9788 -1.5732  1.1687
 5856SOL    HW221357   8.595   6.405   8.776  2.5022 -1.5622  1.8462
 5857SOL     OW21358   4.011   9.741  10.171  0.0030 -0.1419  0.2315
 5857SOL    HW121359   4.010   9.699  10.257 -1.5837 -0.8225 -0.0840
 5857SOL    HW221360   3.958   9.820  10.182  0.9552  0.5186  0.2079
 5858SOL     OW21361   7.162   4.977   0.280 -0.8671  1.0060  0.3727
 5858SOL    HW121362   7.191   4.923   0.206 -0.8521  0.7312  0.5787
 5858SOL    HW221363   7.141   4.914   0.349  1.8887  1.3306  1.6328
 5859SOL     OW21364   0.471   6.910   3.395 -0.2158  0.0005  0.0159
 5859SOL    HW121365   0.482   6.842   3.329  0.2558 -1.1375  1.2069
 5859SOL    HW221366   0.539   6.974   3.376  0.6429 -0.8805  0.0368
 5860SOL     OW21367   2.246   6.526   5.211  0.0989  0.7449 -0.1087
 5860SOL    HW121368   2.337   6.519   5.240 -0.3936 -0.5007  1.2535
 5860SOL    HW221369   2.212   6.602   5.256 -0.4557 -0.7636  2.1659
 5861SOL     OW21370   6.621   2.375   0.897  0.0396 -0.4091 -0.1546
 5861SOL    HW121371   6.578   2.407   0.976  0.9579  1.0877 -0.2323
 5861SOL    HW221372   6.571   2.413   0.824  0.5180  0.0035 -0.2664
 5862SOL     OW21373   1.296   3.604   4.615  0.5353 -0.1479 -0.1017
 5862SOL    HW121374   1.389   3.612   4.636  0.8245 -0.2868 -1.2518
 5862SOL    HW221375   1.292   3.536   4.547 -0.5262 -0.9041  0.6889
 5863SOL     OW21376   2.699   3.300   7.845  0.4396  0.0739 -0.4370
 5863SOL    HW121377   2.714   3.330   7.756  1.2191 -0.1471 -0.3865
 5863SOL    HW221378   2.648   3.370   7.886  1.2725  0.8225 -0.6473
 5864SOL     OW21379   0.172   8.703   2.100  0.3681  0.3426 -0.3584
 5864SOL    HW121380   0.230   8.689   2.175 -0.1386  1.0129  0.1634
 5864SOL    HW221381   0.084   8.692   2.135  0.1638 -1.3561 -1.2891
 5865SOL     OW21382   8.126   3.727   6.982  0.2919  0.5149 -0.4791
 5865SOL    HW121383   8.091   3.804   7.028  0.6644  0.5371 -0.2314
 5865SOL    HW221384   8.054   3.699   6.925 -0.8858 -0.6039  1.4254
 5866SOL     OW21385   7.921   2.012   0.285  0.2490  0.3242  0.2748
 5866SOL    HW121386   7.847   1.955   0.305 -0.0715  0.5161 -0.3348
 5866SOL    HW221387   7.948   1.987   0.197 -0.4574  1.6828 -0.3687
 5867SOL     OW21388   7.627   0.853   4.065  0.2317  0.0278  0.0064
 5867SOL    HW121389   7.685   0.912   4.113 -0.4166  0.8949 -0.2675
 5867SOL    HW221390   7.542   0.862   4.108 -0.1601  0.1940 -0.7930
 5868SOL     OW21391   5.739   3.862   5.943 -0.1217  0.0290 -0.0224
 5868SOL    HW121392   5.773   3.879   6.031 -0.0698 -1.5426  0.2890
 5868SOL    HW221393   5.730   3.949   5.903 -1.0854  0.8502  1.8731
 5869SOL     OW21394   4.821   1.683   4.294  0.3199 -0.0060  0.2374
 5869SOL    HW121395   4.729   1.683   4.319  0.2585 -2.3152  0.2180
 5869SOL    HW221396   4.832   1.604   4.241  2.1161  0.7369 -0.6067
 5870SOL     OW21397   3.659   9.109   8.753  0.2211 -0.1918 -0.1141
 5870SOL    HW121398   3.724   9.047   8.723  0.2524 -0.2515  0.0786
 5870SOL    HW221399   3.683   9.192   8.711  0.2406 -0.2843 -0.2856
 5871SOL     OW21400   7.905   0.768   9.173 -0.0077  0.4728 -0.0205
 5871SOL    HW121401   7.890   0.678   9.205 -0.8460 -0.1602 -2.0489
 5871SOL    HW221402   7.951   0.756   9.090 -1.4723  1.8306 -1.0822
 5872SOL     OW21403   3.075   5.532   6.085 -0.1005  0.5528 -0.2039
 5872SOL    HW121404   3.036   5.611   6.123 -1.1427 -0.3191  0.6022
 5872SOL    HW221405   3.031   5.521   6.001 -1.2973 -0.1453  0.4797
 5873SOL     OW21406   1.815   3.751   7.805  0.7271  0.6656 -0.1873
 5873SOL    HW121407   1.778   3.730   7.719  1.6205 -1.9697 -0.0263
 5873SOL    HW221408   1.778   3.837   7.826 -4.0813 -0.9207 -0.7204
 5874SOL     OW21409   4.494   1.752   5.461 -0.2866 -0.4598  0.0109
 5874SOL    HW121410   4.483   1.800   5.379  0.3335  0.0968  0.2368
 5874SOL    HW221411   4.408   1.716   5.481 -0.8699  0.8678  0.0085
 5875SOL     OW21412   9.272   0.024   7.577 -0.1681  0.0276  0.5563
 5875SOL    HW121413   9.273   0.103   7.523 -0.9465 -0.0928  0.3495
 5875SOL    HW221414   9.363  -0.004   7.580 -0.2152 -0.5158 -1.5238
 5876SOL     OW21415   1.985   7.270   5.935 -0.0117 -0.3430 -0.2067
 5876SOL    HW121416   1.895   7.291   5.957  0.0490 -1.4254  1.1830
 5876SOL    HW221417   2.033   7.352   5.949 -0.6328 -0.0053 -0.0490
 5877SOL     OW21418   7.617   3.046   2.461 -0.5533 -0.4846 -0.0546
 5877SOL    HW121419   7.562   3.124   2.452  0.1901 -0.1667 -2.2896
 5877SOL    HW221420   7.664   3.059   2.544 -1.6628  0.6222  0.4285
 5878SOL     OW21421   4.964   3.601   9.427 -0.8231 -0.4102  0.2624
 5878SOL    HW121422   5.009   3.679   9.394 -1.4175 -0.5038 -0.8250
 5878SOL    HW221423   5.003   3.585   9.513  0.3311  0.2280 -0.1234
 5879SOL     OW21424   8.193   7.071   4.139  0.0911 -0.6300  0.1735
 5879SOL    HW121425   8.269   7.073   4.198  1.9905  0.1583 -2.1256
 5879SOL    HW221426   8.219   7.127   4.066 -2.4184 -1.0375 -1.1271
 5880SOL     OW21427   4.708   1.862   8.046 -0.2249 -0.3105  0.0399
 5880SOL    HW121428   4.800   1.864   8.018 -0.0785 -2.0558  0.2535
 5880SOL    HW221429   4.668   1.938   8.003  0.6811 -1.0913 -2.3654
 5881SOL     OW21430   8.521   3.949   1.684 -0.4381  0.1149 -0.0625
 5881SOL    HW121431   8.539   4.017   1.620 -0.4834 -2.3114 -2.8830
 5881SOL    HW221432   8.605   3.934   1.727  0.4246 -0.2292 -1.7665
 5882SOL     OW21433   2.433   7.745   9.271 -0.0289 -0.4520  0.3418
 5882SOL    HW121434   2.372   7.792   9.329 -2.8932 -0.7974 -2.1108
 5882SOL    HW221435   2.377   7.681   9.226  2.6851 -2.4325 -0.4207
 5883SOL     OW21436   7.986   9.191   4.780 -0.3224  0.8015  0.2634
 5883SOL    HW121437   8.046   9.182   4.706  0.7305  0.9757  1.0588
 5883SOL    HW221438   7.903   9.218   4.741 -0.5978 -1.7312 -1.1045
 5884SOL     OW21439   4.354   5.774   1.340 -0.4212 -0.3177 -0.1444
 5884SOL    HW121440   4.324   5.829   1.267  1.4820 -0.0273 -0.7664
 5884SOL    HW221441   4.285   5.708   1.350  0.3351 -1.9875 -3.9960
 5885SOL     OW21442   0.742   5.772   2.883 -0.5851  0.0423  0.2792
 5885SOL    HW121443   0.705   5.832   2.948 -1.2415  1.0041 -0.9466
 5885SOL    HW221444   0.829   5.807   2.866 -1.6017  1.7945 -1.7485
 5886SOL     OW21445   8.694   9.447   6.750 -0.0061 -0.1670  0.0839
 5886SOL    HW121446   8.664   9.537   6.736  1.3501  0.2319 -0.4192
 5886SOL    HW221447   8.709   9.441   6.844 -2.1508 -0.5654  0.4496
 5887SOL     OW21448   0.678   0.214   5.936  0.0930  0.0674  0.0759
 5887SOL    HW121449   0.675   0.307   5.961  1.3521 -0.1025  0.9611
 5887SOL    HW221450   0.756   0.207   5.881 -0.8611 -0.1908 -1.2669
 5888SOL     OW21451   1.278   4.202   6.965  0.0851  0.4028  0.2608
 5888SOL    HW121452   1.274   4.223   7.059  0.1200 -1.0906  0.6244
 5888SOL    HW221453   1.255   4.283   6.921 -0.5119  0.9801  1.5880
 5889SOL     OW21454   5.103   8.965   0.368  0.7125 -0.3072  0.2075
 5889SOL    HW121455   5.151   8.997   0.445 -1.2145 -0.2729  1.4705
 5889SOL    HW221456   5.028   9.025   0.360 -0.3076 -1.6085 -0.3431
 5890SOL     OW21457   7.655   7.782   9.922  0.2350  0.2391  0.3043
 5890SOL    HW121458   7.609   7.705   9.888  0.7921 -0.2351  0.6115
 5890SOL    HW221459   7.652   7.845   9.850  1.1408 -0.6481 -0.5507
 5891SOL     OW21460   9.091   4.429   6.732 -0.0102 -0.3231 -0.1090
 5891SOL    HW121461   9.132   4.343   6.721  0.9305  0.2645 -1.5255
 5891SOL    HW221462   9.009   4.423   6.684  0.0887 -0.4201 -0.2680
 5892SOL     OW21463   6.560   7.686   3.386  0.2580  0.0921  0.2945
 5892SOL    HW121464   6.648   7.694   3.424  0.7633 -1.9439 -0.2817
 5892SOL    HW221465   6.520   7.614   3.435 -0.7716  0.4231 -0.0410
 5893SOL     OW21466   3.507   4.044   2.263 -0.1826 -0.5549 -0.1103
 5893SOL    HW121467   3.438   4.040   2.197  0.2001  0.0299 -0.5519
 5893SOL    HW221468   3.512   4.136   2.288 -1.0778 -0.9025  1.5582
 5894SOL     OW21469   2.969   3.023   3.593  0.0081  0.2432 -0.4796
 5894SOL    HW121470   3.045   2.992   3.641 -0.5904 -2.1823 -0.9887
 5894SOL    HW221471   2.997   3.106   3.555  2.1541 -0.2502 -0.0749
 5895SOL     OW21472   1.149   3.992   0.699 -0.1278  0.4486  0.1333
 5895SOL    HW121473   1.095   4.071   0.709 -0.7517  0.0416  0.0621
 5895SOL    HW221474   1.239   4.023   0.707 -0.0230  1.8907 -4.0803
 5896SOL     OW21475   4.749   5.270   9.480 -0.0802  0.1644  0.2729
 5896SOL    HW121476   4.814   5.253   9.548  0.5809 -1.6087 -0.7213
 5896SOL    HW221477   4.765   5.201   9.415 -2.1656  0.4298 -0.5849
 5897SOL     OW21478   1.105   9.534   7.495  0.2319  0.0688  0.4850
 5897SOL    HW121479   1.041   9.571   7.556  0.6578  1.2924  0.2254
 5897SOL    HW221480   1.072   9.446   7.476 -0.8928  0.3489  1.0386
 5898SOL     OW21481   9.883   0.216   7.813  0.1940 -0.2308  0.0584
 5898SOL    HW121482   9.851   0.186   7.898 -0.1717  3.0090  1.2052
 5898SOL    HW221483   9.809   0.205   7.753  0.7298 -3.3738 -0.1809
 5899SOL     OW21484   0.282   5.189   6.798 -0.4836 -0.1450  0.2440
 5899SOL    HW121485   0.274   5.107   6.750 -2.4148  1.0178 -1.5882
 5899SOL    HW221486   0.248   5.170   6.885  1.7226 -1.9317  0.8052
 5900SOL     OW21487   8.969   9.101   7.704 -0.7184  0.3638 -0.0462
 5900SOL    HW121488   9.030   9.123   7.774 -0.4871 -0.1031 -0.1021
 5900SOL    HW221489   8.898   9.165   7.714 -0.3845  0.6993  0.2185
 5901SOL     OW21490   5.745   7.806   1.409 -0.0304  0.1555  0.2642
 5901SOL    HW121491   5.705   7.749   1.343  0.2891 -0.4220  0.5640
 5901SOL    HW221492   5.832   7.825   1.374 -0.1385  0.4648  0.1630
 5902SOL     OW21493  10.032   7.841   8.265 -0.6313 -0.3227  0.0765
 5902SOL    HW121494   9.971   7.809   8.200  1.2175 -2.2580 -0.8377
 5902SOL    HW221495  10.042   7.934   8.245 -2.2766 -0.2503 -0.5297
 5903SOL     OW21496   1.675   1.918   0.619 -0.5892  0.1136 -0.1085
 5903SOL    HW121497   1.621   1.962   0.553 -1.8774  0.0206  0.8627
 5903SOL    HW221498   1.624   1.841   0.645  0.3084 -0.3409  0.3634
 5904SOL     OW21499   1.581   3.073   0.179 -0.2591 -0.4230  0.3111
 5904SOL    HW121500   1.654   3.092   0.120 -0.2602 -0.1557  0.3951
 5904SOL    HW221501   1.616   3.008   0.240  0.5021  1.0460  1.5022
 5905SOL     OW21502   4.293   1.535   4.486  0.8022  0.0321  0.1997
 5905SOL    HW121503   4.338   1.499   4.563  1.3143 -0.4569 -0.3091
 5905SOL    HW221504   4.309   1.470   4.417 -2.3670 -1.1889  0.4568
 5906SOL     OW21505   2.336   8.670   9.416 -0.2357  0.1029  0.1108
 5906SOL    HW121506   2.346   8.588   9.367 -1.4185 -0.3703  0.6138
 5906SOL    HW221507   2.324   8.737   9.349 -0.9107 -0.3972 -0.2820
 5907SOL     OW21508   3.155   1.282   0.494  0.0496 -0.1623 -0.1789
 5907SOL    HW121509   3.188   1.323   0.574  1.4824 -1.9277  0.2014
 5907SOL    HW221510   3.070   1.246   0.519 -0.1521  0.5002  0.1265
 5908SOL     OW21511   1.586   1.719   1.926  0.1139  0.4161  0.5339
 5908SOL    HW121512   1.576   1.769   2.007 -1.7949  2.0690 -0.6251
 5908SOL    HW221513   1.496   1.703   1.896  0.7483 -1.1480 -0.6865
 5909SOL     OW21514   3.023   8.950   2.663  0.4047  0.2876 -0.5296
 5909SOL    HW121515   3.046   8.978   2.574 -0.7697 -1.3371 -1.4063
 5909SOL    HW221516   3.077   8.872   2.677  1.6024  1.2950  0.7771
 5910SOL     OW21517   6.294   0.228   8.235  0.3729 -0.1900  0.0931
 5910SOL    HW121518   6.268   0.264   8.320  1.3327 -1.0997  0.8111
 5910SOL    HW221519   6.294   0.302   8.176 -0.1844  0.4936  0.9223
 5911SOL     OW21520   7.375   6.741   4.387 -0.1697  0.0187  0.4471
 5911SOL    HW121521   7.378   6.780   4.299  2.4218  0.6230  0.7173
 5911SOL    HW221522   7.326   6.803   4.440 -0.0009  0.6432 -0.1200
 5912SOL     OW21523   1.644   4.560   9.375 -0.1245  0.3684  0.2524
 5912SOL    HW121524   1.708   4.608   9.322  0.9612 -0.9106  0.3505
 5912SOL    HW221525   1.608   4.494   9.315  0.4396 -0.4876  0.8247
 5913SOL     OW21526   4.196   0.029   6.933 -0.0229 -0.4054  0.0547
 5913SOL    HW121527   4.262  -0.039   6.947  1.0729  0.8328  1.2305
 5913SOL    HW221528   4.118  -0.003   6.979 -0.1215 -1.6713 -0.9489
 5914SOL     OW21529   6.338   9.444   2.112 -0.0635  0.5957 -0.0837
 5914SOL    HW121530   6.267   9.401   2.064 -0.8005  0.3913  1.1349
 5914SOL    HW221531   6.406   9.458   2.047 -0.4002 -1.0658 -0.8454
 5915SOL     OW21532   7.002   3.213   8.834 -0.1458  0.5661  0.1188
 5915SOL    HW121533   7.056   3.152   8.884  0.0179  0.0728 -0.6422
 5915SOL    HW221534   7.045   3.218   8.748 -1.6330 -0.3059 -0.7087
 5916SOL     OW21535   3.159   5.451   7.192  0.0800 -0.2306 -0.4806
 5916SOL    HW121536   3.183   5.518   7.129 -1.3129  0.2762 -0.5006
 5916SOL    HW221537   3.070   5.425   7.167 -0.9727  0.8068  1.9390
 5917SOL     OW21538   9.093   0.041  10.064  0.0744  0.1493 -0.3739
 5917SOL    HW121539   9.015   0.095  10.049 -1.0175 -1.2105  0.2263
 5917SOL    HW221540   9.106  -0.007   9.983 -0.8932 -1.0420  0.1385
 5918SOL     OW21541   3.663   1.763   6.688 -0.1160 -0.2629  0.1050
 5918SOL    HW121542   3.603   1.759   6.613 -0.1607  0.4128  0.1043
 5918SOL    HW221543   3.659   1.675   6.725 -1.7082 -0.0482  0.5572
 5919SOL     OW21544   0.524   0.324   3.006  0.6157  0.0328 -0.2447
 5919SOL    HW121545   0.562   0.326   2.918  1.6105 -1.0970  0.1400
 5919SOL    HW221546   0.598   0.316   3.065 -0.0369  0.8813  0.7254
 5920SOL     OW21547   1.792   9.180   6.909  0.1193 -0.1781  0.2515
 5920SOL    HW121548   1.864   9.198   6.969 -0.1018 -0.0654  0.4852
 5920SOL    HW221549   1.834   9.146   6.830  0.3735 -0.9632  0.7127
 5921SOL     OW21550   3.015   9.332   1.132 -0.3038  0.2927  0.0809
 5921SOL    HW121551   2.959   9.267   1.090 -0.2595 -0.5179  1.2121
 5921SOL    HW221552   2.971   9.352   1.215  1.7100 -1.5009  1.7216
 5922SOL     OW21553   1.014   2.947   7.688 -0.0557 -0.1172 -0.0951
 5922SOL    HW121554   1.063   2.887   7.632  0.1397  0.2422 -0.3117
 5922SOL    HW221555   1.080   3.010   7.719 -0.4900  0.7673 -0.9214
 5923SOL     OW21556   7.867   6.020   3.267 -0.1849  0.0005 -0.2787
 5923SOL    HW121557   7.832   5.966   3.196 -1.1483  1.1958 -0.7646
 5923SOL    HW221558   7.808   6.003   3.340 -0.7674  0.6974 -0.5689
 5924SOL     OW21559   7.517  10.271   4.798 -0.4488 -0.4950  0.1846
 5924SOL    HW121560   7.547  10.205   4.736  0.0516 -0.4074  0.3236
 5924SOL    HW221561   7.573  10.259   4.875 -2.0068 -1.5633  1.2039
 5925SOL     OW21562   6.944   5.761   0.841  0.5582  0.5267 -0.2189
 5925SOL    HW121563   6.969   5.673   0.871  0.2796  1.3288  2.6001
 5925SOL    HW221564   6.946   5.754   0.745  2.8592 -1.8807 -0.1270
 5926SOL     OW21565   2.205   1.774   4.777 -0.0325 -0.0204  0.5584
 5926SOL    HW121566   2.273   1.823   4.823  1.4980 -1.4299 -0.0535
 5926SOL    HW221567   2.149   1.739   4.846  0.2204  0.6814  1.1251
 5927SOL     OW21568   2.193  10.232   1.048  0.2886  0.2671 -0.5926
 5927SOL    HW121569   2.287  10.247   1.036  0.1326  1.0141 -1.0012
 5927SOL    HW221570   2.152  10.280   0.976 -0.2695 -2.8213 -2.5250
 5928SOL     OW21571   5.183   0.979   2.276  0.4409  0.6268  0.1354
 5928SOL    HW121572   5.116   0.944   2.217  1.2086  2.4186 -1.9095
 5928SOL    HW221573   5.140   1.052   2.320  0.8440  1.4640 -0.8131
 5929SOL     OW21574   4.761   9.588   9.692  0.1825  0.2501  0.0667
 5929SOL    HW121575   4.700   9.515   9.682 -1.8088  1.8702 -0.2241
 5929SOL    HW221576   4.799   9.599   9.604  1.8131 -1.4223  0.4795
 5930SOL     OW21577   4.650   9.422   0.240 -0.1781 -0.3287  0.6326
 5930SOL    HW121578   4.640   9.345   0.295 -1.4615  0.9150  2.2423
 5930SOL    HW221579   4.727   9.467   0.275  1.5658 -1.5824 -1.3138
 5931SOL     OW21580   1.088   8.577   0.790  0.3641  0.5893 -0.1446
 5931SOL    HW121581   1.127   8.655   0.751  0.7415  0.2532 -0.4482
 5931SOL    HW221582   1.015   8.610   0.841  0.6260  1.1609 -0.1289
 5932SOL     OW21583   8.104   6.255   9.906 -0.1175 -0.3057 -0.2594
 5932SOL    HW121584   8.130   6.212   9.825  0.3410 -1.4520  0.4800
 5932SOL    HW221585   8.182   6.302   9.935 -0.4267  0.5157 -0.7252
 5933SOL     OW21586   4.238   4.046   3.629 -0.3867  0.1439 -0.0433
 5933SOL    HW121587   4.270   4.090   3.550 -0.0291  2.0553  1.0994
 5933SOL    HW221588   4.315   4.039   3.685 -0.3725 -2.2638 -0.2496
 5934SOL     OW21589   0.342   3.166   2.722 -0.4435 -0.2127 -0.3373
 5934SOL    HW121590   0.403   3.218   2.668 -0.5422  0.6670  0.3882
 5934SOL    HW221591   0.397   3.132   2.793 -0.7454  0.4013  0.1961
 5935SOL     OW21592   2.888   7.538   5.878  0.0655  0.0907 -0.5070
 5935SOL    HW121593   2.847   7.618   5.844 -0.0892  0.3073  0.1761
 5935SOL    HW221594   2.902   7.484   5.800 -0.5833  0.4398 -0.8806
 5936SOL     OW21595   4.333   4.519   7.175  0.1201  0.4325 -0.5270
 5936SOL    HW121596   4.345   4.573   7.097 -0.0104 -1.2697 -1.7860
 5936SOL    HW221597   4.240   4.528   7.196  0.2649  1.3189 -0.2248
 5937SOL     OW21598   9.993   1.559   6.137 -0.1236  0.0476  0.4817
 5937SOL    HW121599   9.967   1.644   6.101  1.6665 -0.2277 -1.7088
 5937SOL    HW221600   9.911   1.516   6.160 -1.3013  1.0270 -1.6423
 5938SOL     OW21601   1.192   0.682   8.947 -0.5535 -0.0598  0.0973
 5938SOL    HW121602   1.164   0.623   9.017 -0.3281 -2.0159 -1.3628
 5938SOL    HW221603   1.287   0.682   8.952 -0.5347 -0.2380 -0.2113
 5939SOL     OW21604   4.966  10.315   6.926  0.2064 -0.1232  0.2268
 5939SOL    HW121605   4.883  10.361   6.913 -1.2493 -2.7452 -0.5450
 5939SOL    HW221606   4.985  10.324   7.019  0.0841  2.0346  0.1029
 5940SOL     OW21607   6.078   1.769   6.486  0.2182  0.3714 -0.0675
 5940SOL    HW121608   5.987   1.756   6.514  0.6946  0.3703  1.6117
 5940SOL    HW221609   6.081   1.860   6.455 -1.0579 -0.5545 -3.2869
 5941SOL     OW21610  10.273   9.609   9.592 -0.9514  0.2337 -0.5318
 5941SOL    HW121611  10.197   9.658   9.623 -0.4262  1.1424 -0.6726
 5941SOL    HW221612  10.303   9.560   9.669 -1.3915  0.2396 -0.3544
 5942SOL     OW21613   4.709  10.158   8.387  0.5123 -0.3720 -0.2985
 5942SOL    HW121614   4.803  10.157   8.408  0.5338 -0.8503 -0.4101
 5942SOL    HW221615   4.666  10.137   8.470  0.4950 -0.0196 -0.2163
 5943SOL     OW21616   4.541   1.782   0.549 -0.1307  0.0407 -0.0527
 5943SOL    HW121617   4.635   1.799   0.542 -0.3521  0.7626 -1.4343
 5943SOL    HW221618   4.517   1.816   0.635  0.8425 -0.0681  0.2786
 5944SOL     OW21619   3.432   5.958   7.636 -0.6745  0.1183 -0.3278
 5944SOL    HW121620   3.521   5.925   7.628 -0.3619  0.9132 -0.1956
 5944SOL    HW221621   3.388   5.896   7.694 -0.2875 -0.4305 -0.6171
 5945SOL     OW21622   5.616   5.629   4.868  0.3331 -0.4137  0.2664
 5945SOL    HW121623   5.685   5.691   4.843  0.2130 -0.9377 -1.4938
 5945SOL    HW221624   5.634   5.551   4.817 -2.6608  0.0945 -1.8661
 5946SOL     OW21625   6.693   5.293   2.199  0.9610  0.7790 -0.1234
 5946SOL    HW121626   6.710   5.200   2.214  2.5111  0.9146 -0.8395
 5946SOL    HW221627   6.599   5.297   2.183  0.8969 -0.7104 -0.3183
 5947SOL     OW21628   7.006   4.212   6.102  0.4462  0.2397  0.4612
 5947SOL    HW121629   7.008   4.188   6.195  2.5381 -0.8984  0.1601
 5947SOL    HW221630   7.095   4.200   6.072  0.5506  3.5804 -0.9967
 5948SOL     OW21631   6.390   1.131   6.332 -0.3456 -0.1908 -0.7920
 5948SOL    HW121632   6.328   1.127   6.259 -2.4228  1.7133  0.7034
 5948SOL    HW221633   6.411   1.224   6.341  1.1298 -0.5689  0.0611
 5949SOL     OW21634   9.520   4.196   7.226  0.1161  0.2089  0.4864
 5949SOL    HW121635   9.544   4.104   7.232  0.1307  0.2399  0.9905
 5949SOL    HW221636   9.506   4.223   7.317  0.1191  0.7059  0.3437
 5950SOL     OW21637   2.586   8.935   1.303 -0.2258 -0.0099  0.6531
 5950SOL    HW121638   2.658   8.895   1.255  0.5995  0.7654  1.1994
 5950SOL    HW221639   2.523   8.962   1.236 -0.1408 -0.9363  0.1939
 5951SOL     OW21640   0.288   7.206   5.067  0.4193 -0.3196  0.3398
 5951SOL    HW121641   0.329   7.172   4.988  0.0095  0.9016 -0.4072
 5951SOL    HW221642   0.285   7.130   5.126  0.3035 -1.3663 -0.9648
 5952SOL     OW21643   6.961   3.107   1.332 -0.2595  0.6332 -0.1244
 5952SOL    HW121644   6.915   3.058   1.263 -0.3070  0.4940  0.0067
 5952SOL    HW221645   6.893   3.158   1.375 -0.1502  1.1412 -0.5298
 5953SOL     OW21646   7.671   4.914   2.524  0.5385 -0.6558 -0.1708
 5953SOL    HW121647   7.691   4.846   2.459  1.0813  0.7916 -1.5719
 5953SOL    HW221648   7.630   4.984   2.474 -0.2318 -0.0226  1.2922
 5954SOL     OW21649   7.989   7.611   4.158 -0.2327  1.2593 -0.0115
 5954SOL    HW121650   7.917   7.605   4.221  1.1258  1.2676  1.6499
 5954SOL    HW221651   8.035   7.692   4.183  1.3741  0.3239  0.1924
 5955SOL     OW21652   2.983   5.531   7.931 -0.2300 -0.2252 -0.1404
 5955SOL    HW121653   2.913   5.524   7.995  0.5969  2.3593  1.2147
 5955SOL    HW221654   3.046   5.464   7.956 -0.1898  0.3766  1.4202
 5956SOL     OW21655   9.289   5.291   2.132 -0.0274 -0.1994 -0.4644
 5956SOL    HW121656   9.271   5.235   2.057  1.7696 -0.4015 -0.7882
 5956SOL    HW221657   9.239   5.253   2.204 -2.4926  0.5058 -1.7053
 5957SOL     OW21658   7.675   4.541  10.171 -0.4829 -0.0797 -0.0989
 5957SOL    HW121659   7.619   4.465  10.157 -0.2359  0.0329 -1.9589
 5957SOL    HW221660   7.663   4.595  10.093  1.7720  0.2006 -0.3349
 5958SOL     OW21661   5.887   9.706   0.039 -0.1282 -0.0038  0.0840
 5958SOL    HW121662   5.834   9.746   0.108  2.3746  0.6947  1.7358
 5958SOL    HW221663   5.834   9.633   0.008 -1.8134  0.3090  1.9961
 5959SOL     OW21664   8.154   8.464   4.788 -0.1086  0.0614  0.2113
 5959SOL    HW121665   8.092   8.397   4.817 -1.9237  1.0565 -1.1962
 5959SOL    HW221666   8.155   8.456   4.692 -1.2417  2.7045 -0.1117
 5960SOL     OW21667   4.470   4.413   5.570 -0.6783 -0.0003  0.0892
 5960SOL    HW121668   4.408   4.356   5.525 -0.1368 -0.8733  0.4267
 5960SOL    HW221669   4.424   4.441   5.649 -0.8390 -0.2244  0.0770
 5961SOL     OW21670   9.051   2.274   3.749  0.1685  0.4744  0.3738
 5961SOL    HW121671   8.992   2.202   3.725  0.1703 -0.2402  2.3097
 5961SOL    HW221672   9.126   2.231   3.790  0.7272  1.5275  0.5032
 5962SOL     OW21673   7.204   7.609   3.027  0.1485  0.4721 -0.1761
 5962SOL    HW121674   7.110   7.626   3.022 -0.2193 -1.1060  0.7060
 5962SOL    HW221675   7.222   7.605   3.121  0.7927 -0.7546 -0.3384
 5963SOL     OW21676   2.657   9.802   2.180 -0.3942 -0.6434 -0.0545
 5963SOL    HW121677   2.596   9.863   2.138  1.4680  0.0708 -1.9256
 5963SOL    HW221678   2.717   9.776   2.109  1.2480 -1.5857  1.6024
 5964SOL     OW21679   6.346   3.926   7.047  0.1409  0.6574 -0.0851
 5964SOL    HW121680   6.259   3.920   7.087  0.8664 -2.1416  1.3465
 5964SOL    HW221681   6.403   3.959   7.116  0.4223  1.5399 -0.7138
 5965SOL     OW21682   3.156   3.327   2.304 -0.2696 -0.5219  0.0245
 5965SOL    HW121683   3.251   3.317   2.300 -0.2562 -0.1836 -0.6477
 5965SOL    HW221684   3.122   3.254   2.251 -0.2626  1.1530 -2.4367
 5966SOL     OW21685   5.800   5.431   5.358  0.3375  0.1918 -0.3468
 5966SOL    HW121686   5.839   5.439   5.445 -0.1035 -3.2770  0.2845
 5966SOL    HW221687   5.710   5.463   5.369  0.0491 -0.9073  0.7118
 5967SOL     OW21688   1.492   3.719   9.299 -0.8014 -0.2938  0.1150
 5967SOL    HW121689   1.445   3.649   9.254 -0.2286 -0.2230 -0.6037
 5967SOL    HW221690   1.584   3.699   9.284 -0.6336  1.3050 -1.1974
 5968SOL     OW21691   1.089   2.136   9.641  0.2732 -0.0864  0.1352
 5968SOL    HW121692   0.994   2.141   9.641  0.3158  1.0181  0.8064
 5968SOL    HW221693   1.114   2.142   9.549 -0.2170  2.0930  0.0974
 5969SOL     OW21694   7.934   9.119   2.818  0.1045  0.1710  0.2926
 5969SOL    HW121695   7.993   9.181   2.775  0.0007 -0.9429 -1.5528
 5969SOL    HW221696   7.872   9.175   2.866 -0.5121  1.5775 -1.9821
 5970SOL     OW21697   8.090   0.681   3.288 -0.2843 -0.6449 -0.2062
 5970SOL    HW121698   8.115   0.591   3.309 -0.2552 -0.5574  0.1428
 5970SOL    HW221699   8.136   0.700   3.207  0.2167 -0.7314  0.0515
 5971SOL     OW21700   6.068  10.095   0.120 -0.2311  0.3215 -0.2328
 5971SOL    HW121701   6.051  10.137   0.204  1.5752 -1.5788  1.2013
 5971SOL    HW221702   6.147  10.137   0.087 -0.0250 -0.0276 -0.1863
 5972SOL     OW21703   7.990   8.850   5.521  0.1142  0.4050  0.1856
 5972SOL    HW121704   8.025   8.772   5.564 -0.3112  0.6751  1.0461
 5972SOL    HW221705   8.045   8.921   5.553 -0.4807  0.6681  0.6417
 5973SOL     OW21706  10.012   1.111   2.828  0.2247  0.1762 -0.4814
 5973SOL    HW121707  10.027   1.020   2.802 -1.5008 -0.4715  0.6113
 5973SOL    HW221708  10.010   1.159   2.746 -1.1256 -1.1705 -1.2893
 5974SOL     OW21709   9.758   2.290   2.926  0.0608 -0.2286  0.1109
 5974SOL    HW121710   9.854   2.285   2.928  0.1579 -1.6234 -2.7059
 5974SOL    HW221711   9.740   2.371   2.879 -0.1917  0.2740  1.0505
 5975SOL     OW21712   6.081   2.274   9.042 -0.8964  0.0744  0.2930
 5975SOL    HW121713   6.148   2.209   9.021 -1.5909 -1.2591  2.0001
 5975SOL    HW221714   6.066   2.320   8.960  1.0332 -0.5822 -0.4846
 5976SOL     OW21715   7.889   3.181   2.078 -0.1931  0.2063  0.1891
 5976SOL    HW121716   7.955   3.241   2.043  0.0329 -0.2863 -0.2251
 5976SOL    HW221717   7.816   3.238   2.102 -0.6861  0.4876 -1.8139
 5977SOL     OW21718   2.537   7.146   2.379 -0.2596 -0.5940 -0.9367
 5977SOL    HW121719   2.490   7.108   2.305 -0.1220 -2.6923 -0.0123
 5977SOL    HW221720   2.629   7.130   2.360 -0.0831  0.5909 -1.1882
 5978SOL     OW21721   0.211   0.830   2.357  0.1589 -0.0678 -0.1699
 5978SOL    HW121722   0.300   0.820   2.392  0.8331 -1.7661 -2.0987
 5978SOL    HW221723   0.161   0.761   2.400 -0.1912  0.7361  0.7388
 5979SOL     OW21724   9.675   2.764   9.863 -0.2481 -0.3570  0.2045
 5979SOL    HW121725   9.649   2.848   9.825  0.3776  1.0516  2.6978
 5979SOL    HW221726   9.593   2.719   9.881 -0.7366  0.9613  1.4115
 5980SOL     OW21727   1.788  10.176   9.392 -0.3681 -0.3184 -0.0841
 5980SOL    HW121728   1.845  10.242   9.432 -0.2506  0.9665 -2.1699
 5980SOL    HW221729   1.710  10.174   9.447  0.3067  0.3955  0.9194
 5981SOL     OW21730  10.308   7.273   2.404 -0.1554 -0.3627 -0.2641
 5981SOL    HW121731  10.247   7.329   2.452 -0.2132 -0.0317 -0.7103
 5981SOL    HW221732  10.366   7.237   2.471 -0.6249 -0.4092  0.1235
 5982SOL     OW21733   1.243   2.099   5.031  0.1050 -0.2174  0.1309
 5982SOL    HW121734   1.219   2.017   5.073  0.3661  0.0411  0.7954
 5982SOL    HW221735   1.321   2.128   5.078  1.0990 -0.5044 -1.2805
 5983SOL     OW21736   4.676   2.563   5.397 -0.1696  0.6236 -0.1666
 5983SOL    HW121737   4.748   2.626   5.407  0.2255  0.4795 -1.7737
 5983SOL    HW221738   4.618   2.603   5.332 -1.5304  0.6899  1.0320
 5984SOL     OW21739   0.086   9.253   6.891 -0.3433  0.4361 -0.0890
 5984SOL    HW121740   0.046   9.303   6.820  0.5620 -0.9497 -1.6470
 5984SOL    HW221741   0.176   9.283   6.895 -0.4959  0.8081  0.7912
 5985SOL     OW21742   7.015   2.606   5.924  0.2085 -0.4285 -0.2696
 5985SOL    HW121743   6.926   2.636   5.946  1.1447  1.4450  1.2352
 5985SOL    HW221744   7.021   2.520   5.965  0.2169  0.9326  2.8813
 5986SOL     OW21745   6.039   3.435   9.317  0.1241  0.1134  0.3527
 5986SOL    HW121746   6.063   3.377   9.389 -0.4001 -0.1332  0.3317
 5986SOL    HW221747   6.007   3.376   9.249 -0.3948  0.4267  0.3250
 5987SOL     OW21748   3.877   6.742   2.612 -0.2505 -0.3769 -0.2599
 5987SOL    HW121749   3.785   6.726   2.591 -0.5901  1.6274 -0.4574
 5987SOL    HW221750   3.879   6.752   2.707 -0.2475 -0.3652 -0.2611
 5988SOL     OW21751   6.700   6.365  10.084  0.5001 -0.3075  0.1777
 5988SOL    HW121752   6.779   6.394  10.039 -0.6744 -0.6243 -2.2422
 5988SOL    HW221753   6.671   6.442  10.133 -0.4461  1.5391 -3.0378
 5989SOL     OW21754   2.691   9.938   3.166  0.3711  0.4661 -1.0267
 5989SOL    HW121755   2.693  10.033   3.153  2.2322  0.7659  0.9442
 5989SOL    HW221756   2.601   9.919   3.191  0.6988  2.2871  1.9278
 5990SOL     OW21757  10.155   9.259   2.821 -0.3484  0.4893 -0.0863
 5990SOL    HW121758  10.117   9.181   2.780  1.2797  0.9090 -2.6027
 5990SOL    HW221759  10.080   9.315   2.842 -1.4406 -1.1313  0.5465
 5991SOL     OW21760   6.040   0.055   7.580  0.1541  0.8619  0.1269
 5991SOL    HW121761   6.059   0.041   7.673 -1.2904  0.7351  0.4306
 5991SOL    HW221762   5.949   0.084   7.579  0.6966  2.6526 -1.1141
 5992SOL     OW21763   0.146   0.127   6.334 -0.2576 -0.0671  0.2942
 5992SOL    HW121764   0.192   0.205   6.303  0.5152 -0.7091 -0.2272
 5992SOL    HW221765   0.214   0.060   6.339 -0.7131 -0.4474  1.7166
 5993SOL     OW21766   6.853   1.562   4.457 -0.0033 -0.5577 -0.0107
 5993SOL    HW121767   6.882   1.552   4.547 -2.2357 -3.2006  0.5536
 5993SOL    HW221768   6.932   1.549   4.405  1.1543  0.0729  1.5107
 5994SOL     OW21769   8.122   5.086   2.587 -0.0441  0.4711  1.1673
 5994SOL    HW121770   8.031   5.085   2.615 -0.5789 -0.2959 -0.4582
 5994SOL    HW221771   8.144   4.994   2.572 -0.7819  0.8207 -3.5689
 5995SOL     OW21772   2.979   3.704   6.704  0.7617 -0.7812 -0.4835
 5995SOL    HW121773   2.986   3.720   6.610 -0.8677 -0.6053 -0.6006
 5995SOL    HW221774   2.940   3.783   6.740  0.8912 -1.0444  0.2676
 5996SOL     OW21775   6.432   5.756   3.127  0.2195 -0.2920 -0.4026
 5996SOL    HW121776   6.350   5.761   3.177  0.9445  1.4933  0.7349
 5996SOL    HW221777   6.479   5.682   3.165  0.4834  0.6545  1.2460
 5997SOL     OW21778   2.057   1.794   0.025  0.4595 -0.5362 -0.6382
 5997SOL    HW121779   1.975   1.826  -0.013  1.1818  0.9921 -0.9902
 5997SOL    HW221780   2.032   1.716   0.074 -1.5194  0.8334  0.6862
 5998SOL     OW21781   6.846   8.386   1.046 -0.0441 -0.1818  0.2320
 5998SOL    HW121782   6.811   8.379   1.135  1.2801  0.8698  0.8678
 5998SOL    HW221783   6.940   8.378   1.056  0.1687  0.4911 -1.0037
 5999SOL     OW21784   0.776   3.533   4.418 -0.0469 -0.0751  0.3114
 5999SOL    HW121785   0.705   3.469   4.418  0.0876 -0.2238  0.2023
 5999SOL    HW221786   0.851   3.486   4.382 -0.1553  0.3707 -0.5389
 6000SOL     OW21787   6.851   7.518   8.278  0.1153  0.4389 -0.0965
 6000SOL    HW121788   6.790   7.561   8.338 -0.1754  0.1595 -0.1876
 6000SOL    HW221789   6.874   7.587   8.215  0.2059  0.6540  0.1687
 6001SOL     OW21790   6.273   9.176   3.308 -0.0929 -0.4054  0.5140
 6001SOL    HW121791   6.279   9.175   3.212 -1.4475 -1.2867  0.4058
 6001SOL    HW221792   6.329   9.104   3.336  0.4699 -0.0161  0.4057
 6002SOL     OW21793   0.937   8.895   3.955  0.2253 -0.0170 -0.0366
 6002SOL    HW121794   0.963   8.981   3.922 -2.2718  1.9526  2.5526
 6002SOL    HW221795   0.855   8.876   3.910  0.2873 -0.6035  0.0895
 6003SOL     OW21796   2.065   6.577   5.996  0.0895  0.1975 -0.2472
 6003SOL    HW121797   2.058   6.493   5.951 -0.5471  0.3844 -0.5105
 6003SOL    HW221798   2.106   6.556   6.080 -1.8452 -0.7023  0.5388
 6004SOL     OW21799   7.299   0.955   5.214 -0.3797  0.1482  0.4151
 6004SOL    HW121800   7.208   0.926   5.209 -0.5698  0.7420  0.3559
 6004SOL    HW221801   7.315   0.999   5.130 -0.3989  1.0616  0.8787
 6005SOL     OW21802   3.169   2.178   4.283 -0.3407  0.2162  0.2071
 6005SOL    HW121803   3.171   2.132   4.199  1.3299  0.4445  0.0761
 6005SOL    HW221804   3.233   2.248   4.273 -1.4649  1.4057  1.0620
 6006SOL     OW21805   1.150   5.714   1.824  0.5397  0.1882 -0.4520
 6006SOL    HW121806   1.102   5.646   1.872  0.8318  0.1499 -0.2140
 6006SOL    HW221807   1.085   5.783   1.809  0.7893  0.8489  1.2595
 6007SOL     OW21808   6.261   8.099   9.864  0.1835  0.1759 -0.1967
 6007SOL    HW121809   6.330   8.122   9.802  0.2149  0.5680 -0.0169
 6007SOL    HW221810   6.297   8.123   9.949  0.0185 -0.0799 -0.0524
 6008SOL     OW21811   9.788   1.511   3.845  0.3311 -0.0405  0.5193
 6008SOL    HW121812   9.811   1.467   3.927  1.6529  1.0059  0.7339
 6008SOL    HW221813   9.817   1.601   3.856 -0.1570  0.3138 -0.8203
 6009SOL     OW21814   0.282   3.267   6.506 -0.3356 -0.1012  0.3769
 6009SOL    HW121815   0.343   3.339   6.495  0.6308 -0.9166  0.2947
 6009SOL    HW221816   0.314   3.220   6.583  0.9211 -2.2258 -1.3260
 6010SOL     OW21817   6.033   2.524   3.309 -0.1476 -0.3561 -0.6874
 6010SOL    HW121818   5.976   2.452   3.335  0.4456 -0.9535 -1.0056
 6010SOL    HW221819   5.983   2.571   3.242 -0.8963  0.0610  0.1506
 6011SOL     OW21820   6.781   9.959   8.824  0.2149  0.5254 -0.3886
 6011SOL    HW121821   6.818   9.902   8.757  0.6721 -0.4235  0.6470
 6011SOL    HW221822   6.826  10.042   8.813  0.4111  0.3242 -1.1422
 6012SOL     OW21823   2.150   7.386   4.316  0.0713  0.2259 -0.2183
 6012SOL    HW121824   2.181   7.464   4.269 -0.7581 -0.3705 -1.8117
 6012SOL    HW221825   2.064   7.368   4.279  0.4039 -1.6784 -0.1399
 6013SOL     OW21826   8.465   4.232   0.517  0.2296  0.3707 -0.1693
 6013SOL    HW121827   8.478   4.161   0.580 -0.3295 -1.2321 -1.7829
 6013SOL    HW221828   8.434   4.306   0.570  1.1026 -0.4664  1.5934
 6014SOL     OW21829   0.910   0.729   7.677 -0.1795  0.5281 -0.1775
 6014SOL    HW121830   0.845   0.770   7.620  0.9757 -0.3846 -2.2784
 6014SOL    HW221831   0.861   0.664   7.726 -0.6240 -1.7469 -3.3541
 6015SOL     OW21832  10.236   0.673   7.018  0.6536  0.2306  0.1160
 6015SOL    HW121833  10.214   0.739   7.085  2.0598  1.2013 -0.3282
 6015SOL    HW221834  10.261   0.725   6.941 -1.3655 -0.8653 -1.3624
 6016SOL     OW21835   6.219   7.426   0.786  0.1002  0.1507 -0.6380
 6016SOL    HW121836   6.126   7.418   0.763 -0.1760 -1.4965  0.7842
 6016SOL    HW221837   6.264   7.436   0.703 -1.2637 -0.1623 -1.4415
 6017SOL     OW21838   2.653   6.706   0.479 -0.6206 -0.3342 -0.4966
 6017SOL    HW121839   2.580   6.668   0.528 -0.7969  1.8235  1.0047
 6017SOL    HW221840   2.618   6.788   0.444  1.3246  1.2320  1.0708
 6018SOL     OW21841   4.906   1.286   1.640  0.5158 -0.0357 -0.2235
 6018SOL    HW121842   4.871   1.363   1.686 -0.6258 -0.6365 -0.0548
 6018SOL    HW221843   4.829   1.245   1.599  0.7137 -2.2607  1.4394
 6019SOL     OW21844   0.128   0.701   7.994 -0.0584  0.2822  0.0119
 6019SOL    HW121845   0.170   0.645   8.058  0.2670  0.3969 -0.0979
 6019SOL    HW221846   0.102   0.642   7.923  2.0844  0.5211 -1.0358
 6020SOL     OW21847   2.779   0.554   5.828  0.0811  0.4116  0.2642
 6020SOL    HW121848   2.787   0.573   5.922  0.7288  0.6356  0.1739
 6020SOL    HW221849   2.687   0.568   5.808 -0.3820 -1.1084  1.1732
 6021SOL     OW21850   6.343   4.513   0.132 -0.0773 -0.4491 -0.1699
 6021SOL    HW121851   6.410   4.573   0.163  0.5593 -2.2493  2.2963
 6021SOL    HW221852   6.354   4.435   0.187 -3.3692 -1.3114 -0.5149
 6022SOL     OW21853   7.057   9.258   3.026  0.3539 -0.1931  0.1227
 6022SOL    HW121854   7.143   9.295   3.044  0.7853 -0.9733 -0.2756
 6022SOL    HW221855   7.025   9.228   3.111  1.0402 -1.0733  0.0738
 6023SOL     OW21856   4.853   4.976   0.171  0.2189 -0.2311  0.2197
 6023SOL    HW121857   4.802   4.895   0.171  0.0505 -0.1247  0.6881
 6023SOL    HW221858   4.932   4.956   0.221 -0.1072  0.0709  0.8620
 6024SOL     OW21859   8.020   7.745   4.929 -0.2931 -0.6234 -0.3777
 6024SOL    HW121860   8.063   7.722   5.011 -1.2353  1.3849  0.7568
 6024SOL    HW221861   7.967   7.822   4.950  0.8255  1.1186 -3.2726
 6025SOL     OW21862   8.743   8.943   7.991  0.5107  0.4575  0.0262
 6025SOL    HW121863   8.703   9.015   8.040  3.0124  0.5286  2.1736
 6025SOL    HW221864   8.686   8.868   8.008 -0.4999  1.2405  0.2131
 6026SOL     OW21865   8.533   5.139   8.442  0.0076  0.6175  0.0162
 6026SOL    HW121866   8.475   5.087   8.386 -1.3125 -1.5926  3.1813
 6026SOL    HW221867   8.621   5.117   8.411 -0.5095 -3.3132  0.8374
 6027SOL     OW21868   8.443   2.117   3.000 -0.1381  0.4905  0.2243
 6027SOL    HW121869   8.390   2.177   3.053 -0.9126 -0.9023  1.0922
 6027SOL    HW221870   8.517   2.094   3.056  0.0137  0.4385  0.0018
 6028SOL     OW21871   3.943   3.345   3.987 -0.0627 -0.2503  0.3210
 6028SOL    HW121872   3.912   3.433   3.965  0.7258 -0.6224 -2.7287
 6028SOL    HW221873   3.867   3.288   3.973  0.5212 -0.5345 -2.2864
 6029SOL     OW21874   7.897   9.807   0.604 -0.6798 -0.0773 -0.0514
 6029SOL    HW121875   7.858   9.875   0.658  0.7758  2.1321 -1.6066
 6029SOL    HW221876   7.919   9.851   0.522  0.7729 -2.3033 -0.9617
 6030SOL     OW21877   9.201   1.108   5.752 -0.1445  0.4779 -0.7793
 6030SOL    HW121878   9.210   1.156   5.834 -0.7609  0.0545 -0.4625
 6030SOL    HW221879   9.108   1.086   5.746  0.5444 -3.9203  0.9945
 6031SOL     OW21880   2.739   4.733   9.247  0.1766  0.6911 -0.2717
 6031SOL    HW121881   2.712   4.643   9.227  0.1596  1.0472 -1.9805
 6031SOL    HW221882   2.755   4.732   9.341  1.1532 -1.3699 -0.3897
 6032SOL     OW21883   9.046   3.885   5.513  0.0394  0.1430 -1.0152
 6032SOL    HW121884   9.077   3.818   5.574 -0.9790  1.0428  0.5579
 6032SOL    HW221885   9.123   3.939   5.495  0.3663 -0.1736 -0.5798
 6033SOL     OW21886   3.685   2.034   9.622  0.2802 -0.0686  1.1189
 6033SOL    HW121887   3.722   2.009   9.537 -0.3603  0.3576  0.7057
 6033SOL    HW221888   3.711   1.964   9.681 -1.4260 -1.7272  0.0049
 6034SOL     OW21889   2.412   5.305   8.565 -0.4390  0.0324  0.1068
 6034SOL    HW121890   2.355   5.236   8.531  0.5882 -2.1667  2.4431
 6034SOL    HW221891   2.486   5.308   8.504 -0.7515 -0.5644 -0.3096
 6035SOL     OW21892   8.266   1.572   6.396  0.2849  0.3224  0.8033
 6035SOL    HW121893   8.327   1.646   6.404  0.6891 -0.0217  0.9368
 6035SOL    HW221894   8.298   1.508   6.459 -0.0658  0.0331  0.6871
 6036SOL     OW21895   3.062   0.623   5.771 -0.4315  0.0570 -0.0626
 6036SOL    HW121896   3.128   0.633   5.703 -1.1581  2.4951 -0.4814
 6036SOL    HW221897   2.980   0.608   5.724 -0.9355  1.7321  0.2209
 6037SOL     OW21898   8.257   3.464   1.221 -0.0182  0.2030 -0.6401
 6037SOL    HW121899   8.309   3.454   1.301 -0.4612 -1.8325 -0.5651
 6037SOL    HW221900   8.308   3.525   1.167  1.5699 -0.3841  0.1325
 6038SOL     OW21901   1.300   1.573   2.875 -0.1382  0.1870  0.2934
 6038SOL    HW121902   1.258   1.638   2.819 -0.0088 -1.1870 -1.4685
 6038SOL    HW221903   1.393   1.593   2.870 -0.0329 -0.5071 -0.7909
 6039SOL     OW21904   8.652   0.011   6.604 -0.7843 -0.2407 -0.0924
 6039SOL    HW121905   8.565   0.025   6.641 -0.7388  0.4511 -0.2349
 6039SOL    HW221906   8.649   0.054   6.519  0.1931  1.2008  0.5596
 6040SOL     OW21907   4.620   0.989   1.749 -0.0052 -0.3540 -0.4349
 6040SOL    HW121908   4.565   0.930   1.799 -0.0019 -1.0145 -1.1955
 6040SOL    HW221909   4.563   1.064   1.729 -0.5854 -0.9543 -1.0696
 6041SOL     OW21910   5.334   2.970   6.321 -0.1380 -0.1850 -0.3264
 6041SOL    HW121911   5.268   2.948   6.255 -0.2833  0.0795 -0.2703
 6041SOL    HW221912   5.325   2.902   6.388  0.8142 -1.1546 -1.1394
 6042SOL     OW21913   9.224   7.644   4.097 -0.1922  0.0719 -0.1084
 6042SOL    HW121914   9.266   7.624   4.181 -0.2099  2.7300  0.6427
 6042SOL    HW221915   9.274   7.593   4.033  1.3087 -0.2965  1.2692
 6043SOL     OW21916   4.437   3.158   2.073 -0.1058 -0.5276 -0.1492
 6043SOL    HW121917   4.374   3.229   2.084  0.5939 -0.0018  0.5888
 6043SOL    HW221918   4.474   3.171   1.986  0.8743  0.7315  0.4391
 6044SOL     OW21919   6.872   1.960   9.589  0.1408 -0.0730  0.6161
 6044SOL    HW121920   6.933   1.888   9.609 -0.3124 -0.5723  0.2362
 6044SOL    HW221921   6.881   2.020   9.663  0.4588 -0.5686  0.9892
 6045SOL     OW21922   5.361   6.010   2.808  0.3540  0.0342  0.4737
 6045SOL    HW121923   5.416   5.957   2.750  2.7541  0.6210  2.0481
 6045SOL    HW221924   5.271   5.986   2.785  1.2842 -2.7316 -0.6793
 6046SOL     OW21925   1.074   1.825   1.275  0.8143 -0.6125 -0.3631
 6046SOL    HW121926   1.157   1.831   1.228 -0.4194 -1.3064 -2.8014
 6046SOL    HW221927   1.011   1.871   1.219 -0.7333 -1.3905  0.6529
 6047SOL     OW21928  10.256   9.783   9.896  0.5631 -0.1818  0.2312
 6047SOL    HW121929  10.212   9.751   9.817 -0.6410 -0.4543  0.9760
 6047SOL    HW221930  10.341   9.740   9.895  0.8171  0.3005 -1.2235
 6048SOL     OW21931   8.692   0.521   7.496 -0.5451  0.3354 -0.7829
 6048SOL    HW121932   8.701   0.559   7.583 -0.4316  0.0301 -0.6613
 6048SOL    HW221933   8.769   0.464   7.486 -0.8463 -0.0620 -0.8598
 6049SOL     OW21934   1.980   9.797   1.998  0.1311  0.2489 -0.1697
 6049SOL    HW121935   2.013   9.850   1.925 -2.4803  3.4194  0.7230
 6049SOL    HW221936   2.021   9.835   2.076  1.0756 -1.5780  0.2777
 6050SOL     OW21937   4.132   7.055   2.425  0.5313 -0.0625  0.2294
 6050SOL    HW121938   4.190   7.092   2.492  0.9494  1.3668 -0.8929
 6050SOL    HW221939   4.051   7.035   2.473  0.5792  1.5612  1.0461
 6051SOL     OW21940   5.526   4.054   0.187 -0.3615  0.4552  0.8440
 6051SOL    HW121941   5.451   4.093   0.142  0.3260  1.2787  0.3912
 6051SOL    HW221942   5.499   4.050   0.279 -0.9023  0.8845  0.7105
 6052SOL     OW21943   4.512   0.968   3.495 -0.2378 -0.0933  0.0629
 6052SOL    HW121944   4.540   0.893   3.442 -0.5191 -0.6327  0.6707
 6052SOL    HW221945   4.443   0.934   3.551  1.3013 -0.0238  2.1201
 6053SOL     OW21946   6.615   3.644   1.561  0.1285 -0.8370 -0.2075
 6053SOL    HW121947   6.588   3.565   1.606  0.4394 -2.2320 -2.3366
 6053SOL    HW221948   6.562   3.646   1.481  1.9868 -0.3796 -1.4904
 6054SOL     OW21949   3.441   5.179   1.369  0.1790 -0.0319  0.2742
 6054SOL    HW121950   3.512   5.194   1.307  0.8287 -1.0063  0.7515
 6054SOL    HW221951   3.382   5.118   1.324  0.1275  0.0487  0.2324
 6055SOL     OW21952   1.729   2.124   2.706 -1.2027  0.1577  0.1081
 6055SOL    HW121953   1.725   2.175   2.787  0.3923  0.9191 -0.2550
 6055SOL    HW221954   1.712   2.188   2.637  0.5127  0.1950 -0.3316
 6056SOL     OW21955   4.002   8.384   9.477  0.0201  0.1725 -0.7914
 6056SOL    HW121956   3.928   8.422   9.526 -0.3336 -3.3892  1.7735
 6056SOL    HW221957   4.075   8.442   9.497 -1.1034  1.3048  0.2784
 6057SOL     OW21958   3.206   0.132   4.666  0.3974  0.1356 -0.5957
 6057SOL    HW121959   3.120   0.094   4.650  0.5934 -1.5671  1.9005
 6057SOL    HW221960   3.231   0.170   4.581 -2.0513 -0.7618 -1.8277
 6058SOL     OW21961   6.753   3.755   5.000  0.2735 -0.1194 -0.3764
 6058SOL    HW121962   6.682   3.795   4.949  0.2522  0.4760  0.1067
 6058SOL    HW221963   6.821   3.822   5.002 -0.6008  0.8021  2.2604
 6059SOL     OW21964   4.699   5.079   4.162  0.3032 -0.5545 -0.6188
 6059SOL    HW121965   4.647   4.999   4.169  1.0721 -1.0224  0.0192
 6059SOL    HW221966   4.778   5.061   4.214  0.1907  0.8655  0.1139
 6060SOL     OW21967   8.746   8.357   9.795  0.3020 -0.1385 -0.6153
 6060SOL    HW121968   8.825   8.395   9.834  0.8623 -0.2410 -1.6060
 6060SOL    HW221969   8.674   8.404   9.836  0.8184 -0.8060  1.1415
 6061SOL     OW21970   9.488   7.675   5.171 -0.3258 -0.2769 -0.1308
 6061SOL    HW121971   9.426   7.745   5.148  0.3473 -0.6377 -3.6563
 6061SOL    HW221972   9.434   7.596   5.175 -0.5407 -0.1219  0.0656
 6062SOL     OW21973   5.143   1.496   8.919 -0.2505  0.3466 -0.2309
 6062SOL    HW121974   5.048   1.482   8.922 -0.1404 -0.2857  1.8578
 6062SOL    HW221975   5.178   1.412   8.888 -0.3615  0.7115 -1.4038
 6063SOL     OW21976   3.032   6.846   1.546 -0.7196  0.3939 -0.1422
 6063SOL    HW121977   3.115   6.871   1.586 -0.6146 -0.0524 -0.0754
 6063SOL    HW221978   3.012   6.917   1.485  0.3496 -0.0889 -1.0932
 6064SOL     OW21979   4.633  10.161   3.189 -0.0598 -0.4500 -0.1890
 6064SOL    HW121980   4.557  10.216   3.209 -0.3558 -0.9893  0.1872
 6064SOL    HW221981   4.600  10.098   3.124  0.0797 -0.6359 -0.0817
 6065SOL     OW21982   2.729  10.173   8.555 -0.0572  0.2891 -0.1893
 6065SOL    HW121983   2.759  10.082   8.561 -0.6496  0.1971  1.7113
 6065SOL    HW221984   2.650  10.177   8.607 -1.6602  1.2943 -2.5187
 6066SOL     OW21985   2.153   4.589   1.468  0.1785  0.0494  0.2328
 6066SOL    HW121986   2.131   4.594   1.561  1.5414  0.7316  0.5472
 6066SOL    HW221987   2.152   4.680   1.438 -1.3405 -0.2374 -0.7280
 6067SOL     OW21988   4.309   0.810   1.713 -0.1874 -0.7002  0.0655
 6067SOL    HW121989   4.219   0.837   1.730  0.0175 -1.0400  1.8741
 6067SOL    HW221990   4.350   0.808   1.799  1.8345  0.3716 -0.7976
 6068SOL     OW21991   6.509   6.924   0.528  0.2469 -0.2216  0.4059
 6068SOL    HW121992   6.475   6.872   0.601 -2.4906 -0.0666 -0.6469
 6068SOL    HW221993   6.463   7.008   0.535 -2.1055 -1.0166 -2.7730
 6069SOL     OW21994   0.761  10.166   6.227  0.5250 -0.8234  0.3469
 6069SOL    HW121995   0.740  10.077   6.255  0.0637 -0.9199 -0.3010
 6069SOL    HW221996   0.681  10.199   6.187  0.8078 -0.2498  0.2364
 6070SOL     OW21997   5.067   6.283   0.416  0.3030  0.8076  0.0534
 6070SOL    HW121998   5.103   6.277   0.328 -0.5345  0.3964 -0.2666
 6070SOL    HW221999   5.082   6.196   0.454 -1.0707  0.3610 -0.3749
 6071SOL     OW22000   9.779   6.005   0.470  0.7563 -0.5823  0.6537
 6071SOL    HW122001   9.871   6.029   0.477  0.5567  0.1099  0.9781
 6071SOL    HW222002   9.737   6.048   0.545 -0.2483  1.1545 -0.8477
 6072SOL     OW22003   4.783   1.598   8.231  0.4145 -0.0925 -0.3477
 6072SOL    HW122004   4.809   1.523   8.176  1.1422  0.0815 -0.2499
 6072SOL    HW222005   4.714   1.641   8.181  0.3407 -0.5461 -0.6403
 6073SOL     OW22006   9.183   9.112   7.912  0.4703 -0.3118 -0.3900
 6073SOL    HW122007   9.264   9.068   7.888  2.3739  1.8517  1.5089
 6073SOL    HW222008   9.139   9.052   7.971  1.8236 -0.6807  0.2903
 6074SOL     OW22009   1.608   8.087   8.513  0.4587  0.5825  0.1153
 6074SOL    HW122010   1.656   8.162   8.547  1.1878  0.4684 -0.6312
 6074SOL    HW222011   1.553   8.058   8.586  0.6762  1.4153  0.6215
 6075SOL     OW22012   4.648   3.684   9.131  0.5093  0.1775  0.1824
 6075SOL    HW122013   4.561   3.722   9.121  0.0016  0.0097  3.0915
 6075SOL    HW222014   4.635   3.605   9.183  2.0515 -1.8240 -2.2573
 6076SOL     OW22015   1.957   4.009   5.901  0.3708  0.1446 -0.2707
 6076SOL    HW122016   1.915   4.074   5.957 -0.5048  0.2126 -0.9761
 6076SOL    HW222017   2.047   4.004   5.933  0.3341  1.3756  0.0848
 6077SOL     OW22018   1.905   3.234   3.164 -0.3349  0.1068  0.3832
 6077SOL    HW122019   1.938   3.319   3.193  1.1005 -0.3925  0.2822
 6077SOL    HW222020   1.966   3.206   3.096 -0.6411 -1.1140  0.5825
 6078SOL     OW22021   6.782   5.359   3.209  0.1383  0.2283  0.2066
 6078SOL    HW122022   6.689   5.362   3.231  0.0031 -0.5911 -0.1980
 6078SOL    HW222023   6.784   5.343   3.115  0.6909  0.3986  0.1849
 6079SOL     OW22024   2.632   4.441   0.834 -0.3143  0.1710  0.1511
 6079SOL    HW122025   2.564   4.446   0.766 -0.5226  0.4266  0.3777
 6079SOL    HW222026   2.659   4.532   0.847  0.3710  0.0274 -0.2380
 6080SOL     OW22027   8.062   4.575   4.940  0.3737 -0.1152  0.1861
 6080SOL    HW122028   8.137   4.619   4.899 -0.1901 -0.1967 -0.9377
 6080SOL    HW222029   8.086   4.482   4.941  1.0449  0.0479  1.4696
 6081SOL     OW22030   5.597   6.408   2.322 -0.3324  0.1828  0.0386
 6081SOL    HW122031   5.627   6.457   2.245 -4.8023  0.8865 -1.5747
 6081SOL    HW222032   5.636   6.321   2.312  2.8914  1.5251 -0.3391
 6082SOL     OW22033   6.796   3.994   4.101 -0.0326 -0.0010 -0.4571
 6082SOL    HW122034   6.869   3.994   4.162  0.3365  1.1785 -0.8720
 6082SOL    HW222035   6.799   3.907   4.060 -1.0728 -1.3332  2.0654
 6083SOL     OW22036   0.087   2.964   0.207  0.0470 -0.1770  0.0922
 6083SOL    HW122037   0.072   3.040   0.152  1.0888 -0.6503 -0.8944
 6083SOL    HW222038   0.025   2.974   0.279 -0.2228  1.3010 -0.3052
 6084SOL     OW22039   5.196   4.565  10.275  0.1382 -0.2934 -0.4219
 6084SOL    HW122040   5.178   4.583  10.183  1.5888 -1.3807 -0.9590
 6084SOL    HW222041   5.275   4.510  10.274  2.1520  2.3056  1.5984
 6085SOL     OW22042   6.719   8.348   7.859  0.1082  0.5917  0.3404
 6085SOL    HW122043   6.799   8.352   7.805 -0.4026 -0.8575 -0.5930
 6085SOL    HW222044   6.749   8.316   7.944  0.2603 -2.5821 -0.7868
 6086SOL     OW22045   1.400   9.404   8.382  0.0334  0.7601  0.2077
 6086SOL    HW122046   1.353   9.436   8.304  0.3953  0.5229 -0.1079
 6086SOL    HW222047   1.472   9.466   8.394  1.6018 -0.6724 -1.2481
 6087SOL     OW22048   4.289   5.600  10.351  0.0268  0.8380  0.1541
 6087SOL    HW122049   4.273   5.691  10.328  0.2570  0.9494  0.4300
 6087SOL    HW222050   4.359   5.572  10.292  0.1483  0.9214  0.2593
 6088SOL     OW22051   9.265   3.750   2.163 -0.3930 -0.1584 -0.0581
 6088SOL    HW122052   9.319   3.799   2.225  0.7155 -0.4043 -0.7901
 6088SOL    HW222053   9.199   3.813   2.133 -1.2240 -0.1655  1.6696
 6089SOL     OW22054   6.585   4.369   6.902  0.2894 -0.6663 -0.3096
 6089SOL    HW122055   6.520   4.348   6.835 -1.5613 -0.8921  1.4719
 6089SOL    HW222056   6.602   4.286   6.946  1.2111 -0.4548 -0.2497
 6090SOL     OW22057   9.226   4.643   6.640 -0.0558 -0.3047 -0.5689
 6090SOL    HW122058   9.190   4.556   6.659 -1.5845  0.8966  2.6676
 6090SOL    HW222059   9.155   4.704   6.657  1.9944  1.8403  1.0222
 6091SOL     OW22060   3.822   3.142   4.320 -0.2734 -0.3176  0.2223
 6091SOL    HW122061   3.856   3.116   4.406  1.0934 -0.1204 -0.2278
 6091SOL    HW222062   3.869   3.223   4.299 -0.6229 -0.3393 -0.6947
 6092SOL     OW22063   4.725   4.336   1.284 -0.8578  0.2637 -0.4600
 6092SOL    HW122064   4.785   4.314   1.213 -0.7239 -0.7444 -0.0592
 6092SOL    HW222065   4.782   4.357   1.358 -0.9974  0.1863 -0.3296
 6093SOL     OW22066   7.684   9.978   0.233 -0.4339  0.0947 -0.1788
 6093SOL    HW122067   7.643  10.035   0.298 -2.7118 -0.7302 -0.7944
 6093SOL    HW222068   7.634   9.992   0.153  1.7137  0.4020 -1.5746
 6094SOL     OW22069   6.484   5.005   6.962 -0.1845  0.4596  0.1344
 6094SOL    HW122070   6.516   4.920   6.993  0.6809  0.8102  0.2376
 6094SOL    HW222071   6.433   4.984   6.883  1.6144 -0.0085 -0.9708
 6095SOL     OW22072   9.636   4.642   4.945  0.5336 -0.0614 -0.1792
 6095SOL    HW122073   9.608   4.619   5.034  1.8919 -0.6997  0.1092
 6095SOL    HW222074   9.673   4.562   4.910 -0.7749 -0.0503 -1.6767
 6096SOL     OW22075   9.833   3.311   1.901  0.3536 -0.1302  0.3450
 6096SOL    HW122076   9.777   3.267   1.964 -0.4820  0.6463  0.1714
 6096SOL    HW222077   9.844   3.400   1.937 -0.8109  0.5865 -0.9757
 6097SOL     OW22078   0.195   2.106   2.585  0.0513  0.3344 -0.2972
 6097SOL    HW122079   0.149   2.033   2.544  1.2862 -0.3263 -0.5566
 6097SOL    HW222080   0.132   2.178   2.583 -0.9401 -0.5203 -0.6820
 6098SOL     OW22081   8.192   3.032   1.035  0.3410  0.8111  0.4689
 6098SOL    HW122082   8.136   2.979   1.093  0.8642  0.5917  0.7864
 6098SOL    HW222083   8.133   3.064   0.968 -0.2140  0.7748  0.9279
 6099SOL     OW22084   6.502   2.627   7.927  0.3991  0.3430  0.1812
 6099SOL    HW122085   6.471   2.538   7.946  2.8113 -0.5894  0.1090
 6099SOL    HW222086   6.533   2.659   8.012  1.6446  0.1798 -0.1852
 6100SOL     OW22087   0.998   5.192   9.800  0.2190  0.1078 -0.1298
 6100SOL    HW122088   1.051   5.235   9.867 -0.3939  1.9521 -0.7813
 6100SOL    HW222089   0.999   5.100   9.825  1.0721  0.5584  1.6768
 6101SOL     OW22090   8.977  10.319  10.278 -0.0400  0.0244 -0.1987
 6101SOL    HW122091   9.044  10.283  10.336  0.9420  3.3500  0.9699
 6101SOL    HW222092   9.025  10.347  10.200 -0.0477  2.0289  0.4625
 6102SOL     OW22093   1.177   5.041   1.630  0.1792 -0.2668 -0.0846
 6102SOL    HW122094   1.113   4.973   1.649  1.1065 -1.6504 -1.5941
 6102SOL    HW222095   1.257   4.993   1.608  1.3903  1.3675  0.5352
 6103SOL     OW22096   8.141   9.574   0.373 -0.0983  0.6007 -0.5724
 6103SOL    HW122097   8.116   9.487   0.340 -0.4058  1.0311 -1.5236
 6103SOL    HW222098   8.200   9.556   0.446 -1.3172 -0.4210  0.2054
 6104SOL     OW22099   3.040   3.556   5.220  0.5723  0.4937  0.0199
 6104SOL    HW122100   3.095   3.607   5.161  1.2802  1.4862  1.4667
 6104SOL    HW222101   2.982   3.621   5.261 -0.0782 -0.2056  0.2441
 6105SOL     OW22102   1.279   8.323   5.756  0.2571 -0.1632  0.4573
 6105SOL    HW122103   1.243   8.234   5.747  2.8133 -1.1143 -2.4303
 6105SOL    HW222104   1.340   8.317   5.829  0.0125 -0.6298  0.6274
 6106SOL     OW22105   9.082  10.352   5.440  0.4130  0.0139 -0.0721
 6106SOL    HW122106   9.072  10.429   5.384  0.4212 -0.8020 -1.2316
 6106SOL    HW222107   9.125  10.385   5.519 -1.0408  1.4990  0.1582
 6107SOL     OW22108   6.604   1.200   7.776  0.0914  0.5316  0.7621
 6107SOL    HW122109   6.647   1.253   7.709  1.0518  0.7996  1.5710
 6107SOL    HW222110   6.533   1.257   7.808 -0.3493  0.4153  0.0157
 6108SOL     OW22111   5.020   8.637   2.904  0.2986  0.1518  0.1718
 6108SOL    HW122112   4.978   8.685   2.833 -0.2002  1.3454  1.2140
 6108SOL    HW222113   5.090   8.695   2.935  0.7495 -0.5028  0.4195
 6109SOL     OW22114   6.865   9.960   3.623 -0.3539 -0.0974 -0.4006
 6109SOL    HW122115   6.898  10.020   3.689  0.2194  0.6180 -1.3131
 6109SOL    HW222116   6.918   9.881   3.633  0.4420  0.3956 -0.6931
 6110SOL     OW22117   3.609   3.055   3.418  0.0947 -0.3462  0.1660
 6110SOL    HW122118   3.635   3.106   3.342  0.6035  0.8518  1.1217
 6110SOL    HW222119   3.525   3.092   3.444  0.5634  0.1591  0.9887
 6111SOL     OW22120   3.113   6.568   1.465 -0.1962  0.1110 -0.6588
 6111SOL    HW122121   3.118   6.663   1.479 -0.0958 -0.0730  0.7014
 6111SOL    HW222122   3.184   6.532   1.518 -2.5507 -0.9881  2.0324
 6112SOL     OW22123   0.316   7.311   8.121  0.6087 -0.0251 -0.4251
 6112SOL    HW122124   0.250   7.276   8.182  0.4317  1.2529  0.1492
 6112SOL    HW222125   0.311   7.253   8.045  0.5687 -1.4366  0.6093
 6113SOL     OW22126   0.962   5.906   1.892 -0.3497 -0.4208  0.1004
 6113SOL    HW122127   0.889   5.857   1.931  0.2230 -1.5583 -0.2023
 6113SOL    HW222128   0.923   5.989   1.867 -1.2761 -0.5442  0.9956
 6114SOL     OW22129   2.122   5.180   9.272  0.1223 -0.0526  0.1087
 6114SOL    HW122130   2.194   5.190   9.333 -0.2383  0.9400  0.3914
 6114SOL    HW222131   2.106   5.085   9.268  0.4804 -0.1627  1.1535
 6115SOL     OW22132   0.988   6.547   2.319 -0.8657 -0.1498  0.0617
 6115SOL    HW122133   0.951   6.601   2.388 -1.3642  0.4858 -0.6852
 6115SOL    HW222134   1.083   6.555   2.330 -0.9285 -0.8873  1.2909
 6116SOL     OW22135   3.801   4.256   0.396  0.0316  0.2545  0.5503
 6116SOL    HW122136   3.880   4.294   0.434 -1.2874  0.8622  2.9089
 6116SOL    HW222137   3.811   4.162   0.412  1.1558  0.0652 -1.0315
 6117SOL     OW22138   5.583   2.038   8.780 -0.0028  0.0858  0.0227
 6117SOL    HW122139   5.612   2.032   8.690 -0.1315 -1.4009  0.0441
 6117SOL    HW222140   5.626   1.965   8.824  1.6394  1.9291  1.6571
 6118SOL     OW22141   9.771   3.501   0.981  0.2294  0.0604  0.4136
 6118SOL    HW122142   9.759   3.473   1.072  0.8414 -0.2970  0.3839
 6118SOL    HW222143   9.859   3.473   0.958  0.0367  0.0506 -0.3341
 6119SOL     OW22144   9.180   0.563   6.970  0.2169 -0.2892  0.2588
 6119SOL    HW122145   9.119   0.637   6.965 -1.5056 -1.6701 -0.1201
 6119SOL    HW222146   9.202   0.557   7.063 -1.8229 -0.9477  0.7552
 6120SOL     OW22147  10.245   2.507   2.862  0.1767 -0.0048 -0.5311
 6120SOL    HW122148  10.271   2.578   2.921 -0.5698 -0.3084  0.1783
 6120SOL    HW222149  10.327   2.469   2.832  0.5652 -0.0287  0.5402
 6121SOL     OW22150   7.482   9.713   1.043  0.0093 -0.4916 -0.0833
 6121SOL    HW122151   7.410   9.761   1.083  0.0793 -0.4274 -0.0337
 6121SOL    HW222152   7.531   9.778   0.993  0.7344 -0.2745  0.8671
 6122SOL     OW22153   4.853   2.579   1.327 -0.2003  0.2963 -0.3067
 6122SOL    HW122154   4.805   2.661   1.336  0.6100  1.1840 -3.1716
 6122SOL    HW222155   4.909   2.576   1.405 -1.3638  1.6277  0.6441
 6123SOL     OW22156   7.677   5.626   3.462 -0.1866 -0.0398 -0.2745
 6123SOL    HW122157   7.771   5.607   3.463 -0.2891 -0.5597 -0.1203
 6123SOL    HW222158   7.642   5.565   3.397 -0.6064 -0.7986  0.6425
 6124SOL     OW22159   7.564   4.891   5.210  0.9363 -0.1340 -0.0294
 6124SOL    HW122160   7.477   4.884   5.251  1.2117 -0.2505  0.5489
 6124SOL    HW222161   7.614   4.946   5.270  0.8425  1.1519 -1.0833
 6125SOL     OW22162   6.543   9.301   0.899  0.1436 -0.1057 -0.0392
 6125SOL    HW122163   6.479   9.234   0.875  0.5144 -0.2777 -0.5776
 6125SOL    HW222164   6.542   9.361   0.824 -0.9609  1.0986  0.8851
 6126SOL     OW22165   4.294   1.350   7.183 -0.6930 -0.3314  0.0455
 6126SOL    HW122166   4.201   1.326   7.193 -0.5891 -0.3927  1.0487
 6126SOL    HW222167   4.337   1.305   7.256  0.1144 -0.2307 -0.3647
 6127SOL     OW22168   0.817   1.613   5.803  0.1869 -0.1574 -0.1523
 6127SOL    HW122169   0.731   1.603   5.843 -0.8155 -2.0673 -2.5326
 6127SOL    HW222170   0.876   1.567   5.862 -0.3566  1.1151  1.4824
 6128SOL     OW22171   0.857   2.192  10.122  0.3226  0.0809  0.0150
 6128SOL    HW122172   0.881   2.154  10.037 -0.1431  1.2829 -0.6773
 6128SOL    HW222173   0.781   2.142  10.150  1.1052 -1.0287  0.2568
 6129SOL     OW22174   3.529   2.792   0.176  0.1936 -0.4826 -0.2750
 6129SOL    HW122175   3.557   2.881   0.155 -0.6534 -0.1752 -0.1499
 6129SOL    HW222176   3.493   2.758   0.094 -1.7519  0.1891  0.2582
 6130SOL     OW22177   4.514   4.376   6.232 -0.3110  0.3060  0.1701
 6130SOL    HW122178   4.548   4.402   6.318  1.8352  1.2791 -0.8949
 6130SOL    HW222179   4.592   4.370   6.177 -1.4588 -1.8655 -1.3589
 6131SOL     OW22180   7.435   1.920   8.363 -0.6172 -0.1173 -0.4522
 6131SOL    HW122181   7.485   1.962   8.293 -0.9213  0.9786 -0.0300
 6131SOL    HW222182   7.406   1.992   8.419  0.9069 -1.0688  1.6929
 6132SOL     OW22183   7.083   1.500  10.307 -0.1186  0.0720  0.6653
 6132SOL    HW122184   6.997   1.461  10.290 -0.0963  0.0496  0.6050
 6132SOL    HW222185   7.095   1.491  10.402 -0.6255  0.9706  0.8299
 6133SOL     OW22186   2.585   4.591   8.674 -0.3846  0.7939 -0.0431
 6133SOL    HW122187   2.598   4.654   8.604 -0.0095 -0.2377 -0.9332
 6133SOL    HW222188   2.529   4.523   8.635  0.9277 -0.4793  0.2182
 6134SOL     OW22189   8.879   2.098   9.162 -0.1867 -0.4968 -0.5037
 6134SOL    HW122190   8.848   2.159   9.228 -0.5920 -0.9220 -0.2911
 6134SOL    HW222191   8.895   2.016   9.210  2.2891 -0.0380 -0.3948
 6135SOL     OW22192   0.287   2.687   0.755  0.1169  0.1517 -0.1069
 6135SOL    HW122193   0.299   2.779   0.733 -0.3569  0.1362 -0.4578
 6135SOL    HW222194   0.231   2.653   0.685  2.0974 -0.9506 -1.2402
 6136SOL     OW22195   6.328   3.436  10.308  0.3044 -0.2328  0.1612
 6136SOL    HW122196   6.311   3.476  10.223  0.3628  2.6488  1.3918
 6136SOL    HW222197   6.310   3.343  10.295  1.2686 -0.0851 -3.2327
 6137SOL     OW22198   8.180   3.781   7.309  0.7016 -0.5652  0.4605
 6137SOL    HW122199   8.129   3.785   7.228  2.4676 -1.3047 -0.7314
 6137SOL    HW222200   8.147   3.855   7.361 -0.3760  0.0123 -0.9633
 6138SOL     OW22201   1.435   7.877   9.609 -0.6738  0.1577  0.0877
 6138SOL    HW122202   1.347   7.862   9.644 -0.5362 -0.7883  0.0543
 6138SOL    HW222203   1.472   7.789   9.597 -0.7069  0.4080 -2.4312
 6139SOL     OW22204   2.803   1.102   1.449  0.3133  0.5338 -0.4473
 6139SOL    HW122205   2.745   1.138   1.382 -0.3774 -1.1216 -0.7751
 6139SOL    HW222206   2.754   1.029   1.486  2.3941 -1.2780 -1.1016
 6140SOL     OW22207   0.735   2.188   4.106 -0.0070 -0.1391 -0.6314
 6140SOL    HW122208   0.713   2.118   4.044  0.4034 -0.7102 -0.1478
 6140SOL    HW222209   0.650   2.215   4.142 -0.0297 -2.0304  0.9136
 6141SOL     OW22210   6.489   3.274   0.666  0.3746 -0.1013  0.0696
 6141SOL    HW122211   6.558   3.316   0.718  0.6671  0.1942 -0.5378
 6141SOL    HW222212   6.507   3.303   0.576 -0.3686 -0.2667 -0.1341
 6142SOL     OW22213   7.049   5.774   4.673  0.0767  0.4555 -0.4916
 6142SOL    HW122214   7.079   5.713   4.741 -0.6074 -0.7454 -1.2373
 6142SOL    HW222215   7.078   5.735   4.591 -0.2823  1.1996 -0.9846
 6143SOL     OW22216   1.859   8.866   1.863  0.2118 -0.1330  0.1974
 6143SOL    HW122217   1.828   8.775   1.861  1.0523 -0.4194 -0.6605
 6143SOL    HW222218   1.833   8.901   1.778  0.1732  0.3352  0.4012
 6144SOL     OW22219   9.952   8.787   7.971  0.3132  0.0332 -0.4279
 6144SOL    HW122220   9.940   8.809   8.063 -1.9463  0.4829 -0.7709
 6144SOL    HW222221  10.010   8.855   7.937  2.8378 -1.2390  1.0213
 6145SOL     OW22222   4.404   9.569   8.901 -0.8105  0.3289 -0.2724
 6145SOL    HW122223   4.343   9.530   8.965  0.9228 -3.3219 -0.5553
 6145SOL    HW222224   4.486   9.578   8.949 -0.1763  0.0068 -1.2658
 6146SOL     OW22225   1.962   0.330   4.542 -0.1790 -0.3127  0.5263
 6146SOL    HW122226   1.877   0.285   4.537  0.2486 -1.0274 -0.7944
 6146SOL    HW222227   1.953   0.406   4.485 -0.6576  0.9486  2.1945
 6147SOL     OW22228   7.978   6.272   6.264  0.1786 -0.1785  0.5142
 6147SOL    HW122229   8.031   6.192   6.265  0.0459 -0.2836 -0.2639
 6147SOL    HW222230   8.025   6.333   6.321 -0.1314 -1.0632  1.7563
 6148SOL     OW22231   5.007  10.275   2.985  0.4921 -0.3113  0.0846
 6148SOL    HW122232   4.990  10.204   3.047  1.9960  1.1710  2.3375
 6148SOL    HW222233   4.926  10.326   2.984  0.7970  0.2569  1.7464
 6149SOL     OW22234   2.729   2.662   9.621 -0.3498 -0.6491 -0.2924
 6149SOL    HW122235   2.762   2.583   9.664 -0.0576 -0.0689  0.5837
 6149SOL    HW222236   2.782   2.670   9.542 -0.7824 -1.6464 -0.6899
 6150SOL     OW22237   4.589   5.595   7.232  0.3235  0.2124  0.7542
 6150SOL    HW122238   4.637   5.513   7.227 -0.7731 -0.6020  2.5063
 6150SOL    HW222239   4.574   5.609   7.326 -2.8707  0.3407  0.3365
 6151SOL     OW22240   8.474   2.180   0.973  0.4623 -0.1294 -0.4944
 6151SOL    HW122241   8.418   2.161   0.898  2.1393 -0.2722 -1.7512
 6151SOL    HW222242   8.513   2.095   0.996 -2.4336 -0.8577  2.7117
 6152SOL     OW22243   8.573   3.021   4.808 -0.0207  0.5740  0.1261
 6152SOL    HW122244   8.574   2.926   4.802 -1.5327  0.5389  0.0919
 6152SOL    HW222245   8.570   3.039   4.902 -0.5933  0.5577  0.1146
 6153SOL     OW22246   9.979   5.912   1.691 -0.0438 -0.0177 -0.1275
 6153SOL    HW122247   9.928   5.974   1.639  2.1590  0.9447 -1.2639
 6153SOL    HW222248  10.052   5.888   1.635  0.4843 -1.7893  1.2213
 6154SOL     OW22249   1.985   8.147   9.943 -0.0201  0.7437 -0.7699
 6154SOL    HW122250   1.959   8.085   9.874 -1.3929 -1.5642  1.6036
 6154SOL    HW222251   2.075   8.172   9.921  1.0888 -3.0820 -1.3495
 6155SOL     OW22252   4.567   9.420  10.330 -0.0999 -0.0761  0.1349
 6155SOL    HW122253   4.636   9.420  10.396 -1.2183 -0.9155  1.3631
 6155SOL    HW222254   4.507   9.489  10.358 -1.4653 -1.5471  1.0268
 6156SOL     OW22255   8.752  10.324   7.647  0.0442 -0.0802  0.2965
 6156SOL    HW122256   8.727  10.232   7.639  0.4329 -0.2533  1.0423
 6156SOL    HW222257   8.688  10.371   7.593  1.0156 -0.9532 -1.7277
 6157SOL     OW22258   8.398   9.014   5.572 -0.0092 -0.2738  0.5533
 6157SOL    HW122259   8.357   9.080   5.516 -1.0933 -1.3370  0.0402
 6157SOL    HW222260   8.336   9.000   5.643  0.1005 -0.9036  0.5308
 6158SOL     OW22261   2.135   0.249   0.322  0.1042 -0.2517  0.0259
 6158SOL    HW122262   2.063   0.282   0.269  0.9325  0.1235 -0.8781
 6158SOL    HW222263   2.131   0.154   0.311  0.3709 -0.1698 -0.8640
 6159SOL     OW22264   0.885   6.672   8.892  0.2373  0.4705 -0.5317
 6159SOL    HW122265   0.959   6.631   8.938  0.6279 -1.5050 -2.7433
 6159SOL    HW222266   0.814   6.671   8.956  0.9998 -1.3689  0.3566
 6160SOL     OW22267   7.833   0.405   4.047 -0.9355  0.4454  0.3865
 6160SOL    HW122268   7.762   0.468   4.059 -1.4639  0.5656 -2.6975
 6160SOL    HW222269   7.797   0.339   3.989  1.5778  0.8352 -1.7897
 6161SOL     OW22270   2.577  10.141   7.379  0.1729 -0.2521  0.2138
 6161SOL    HW122271   2.608  10.092   7.303  1.2237  1.1361 -0.2967
 6161SOL    HW222272   2.555  10.228   7.345 -0.4461  0.0436  1.2947
 6162SOL     OW22273   0.116   4.635   9.237 -0.4336 -0.2129  0.2147
 6162SOL    HW122274   0.199   4.589   9.248 -0.6590 -0.4440  0.9969
 6162SOL    HW222275   0.115   4.699   9.308 -1.0922 -0.4643  0.4377
 6163SOL     OW22276   7.296   6.013   6.491  0.6033 -0.6235 -0.5729
 6163SOL    HW122277   7.241   6.002   6.414  0.9763 -1.4659 -0.7371
 6163SOL    HW222278   7.287   5.930   6.539 -0.5540  0.3193  0.9181
 6164SOL     OW22279   3.165   5.920   3.602  0.2011  0.0564 -0.6011
 6164SOL    HW122280   3.098   5.987   3.588 -1.7079 -1.7951 -0.8760
 6164SOL    HW222281   3.119   5.849   3.647  1.4808 -2.0232 -2.3395
 6165SOL     OW22282   7.783   5.875   6.936 -0.1050  0.2268  0.4365
 6165SOL    HW122283   7.834   5.947   6.973 -0.6851  0.1745  1.3805
 6165SOL    HW222284   7.753   5.907   6.851  2.5212 -0.2121 -0.7304
 6166SOL     OW22285   4.418   4.673   8.210 -0.3589  0.0890 -0.3179
 6166SOL    HW122286   4.487   4.607   8.199  0.1098  0.5466 -0.1792
 6166SOL    HW222287   4.449   4.729   8.281 -1.6409 -0.6461  0.8669
 6167SOL     OW22288   1.922   1.771   0.274  0.0658  0.3028  0.5576
 6167SOL    HW122289   1.895   1.837   0.338  0.4671  0.2437  0.7892
 6167SOL    HW222290   2.017   1.777   0.271  0.0574  0.2161  0.0582
 6168SOL     OW22291   2.195   3.034   5.217 -0.0407 -0.4624 -0.0883
 6168SOL    HW122292   2.185   3.075   5.304  0.1616 -1.6585  0.5127
 6168SOL    HW222293   2.260   2.965   5.230  0.5430 -0.1862 -1.3748
 6169SOL     OW22294   1.028   4.355   6.683  0.2869  0.1898  0.0808
 6169SOL    HW122295   1.012   4.382   6.773  0.0492  1.1379 -0.2325
 6169SOL    HW222296   1.014   4.260   6.683 -2.2857  0.4926  0.5061
 6170SOL     OW22297   7.420   9.888   1.577  0.1069 -0.0166 -0.4088
 6170SOL    HW122298   7.360   9.854   1.643  2.3582 -1.3249  1.1072
 6170SOL    HW222299   7.410   9.828   1.503  0.4692 -1.0711  0.3645
 6171SOL     OW22300   8.595   5.473   9.685  0.1056 -0.0165  0.6984
 6171SOL    HW122301   8.544   5.458   9.605  0.2565  1.4583  0.2830
 6171SOL    HW222302   8.588   5.567   9.700  1.8809  0.0714  1.1925
 6172SOL     OW22303   8.688   3.813   3.498 -0.4343 -0.4996 -0.1380
 6172SOL    HW122304   8.751   3.769   3.554  0.7862  2.9147  1.4945
 6172SOL    HW222305   8.739   3.843   3.422 -0.1706  1.4887  0.7542
 6173SOL     OW22306   3.232   8.444   7.327  0.2936  0.0559  0.2456
 6173SOL    HW122307   3.297   8.504   7.291  0.3486  1.4897  2.4949
 6173SOL    HW222308   3.282   8.378   7.374  0.2052 -1.5163 -1.7220
 6174SOL     OW22309   4.013   0.997   0.062  0.2298 -0.0309  0.0163
 6174SOL    HW122310   4.074   0.958   0.124  0.3114  1.9518  1.2701
 6174SOL    HW222311   3.926   0.977   0.098  0.2338 -0.1375 -0.0336
 6175SOL     OW22312   5.829   1.529   3.250  0.1273  0.3943  0.3477
 6175SOL    HW122313   5.778   1.475   3.310  0.4639 -0.7638 -0.3605
 6175SOL    HW222314   5.904   1.474   3.227  0.6253  1.2781 -0.2003
 6176SOL     OW22315   2.257   1.305   7.182 -0.2387 -0.0461 -0.0067
 6176SOL    HW122316   2.225   1.362   7.252  1.5960  0.7699  0.2163
 6176SOL    HW222317   2.292   1.365   7.116 -0.0986 -0.8665 -0.6978
 6177SOL     OW22318   1.167   2.059   2.982 -0.2897 -0.1797  0.2560
 6177SOL    HW122319   1.137   2.122   3.048  0.2547  0.3299  0.0256
 6177SOL    HW222320   1.240   2.102   2.939 -1.1324 -0.1687 -1.2310
 6178SOL     OW22321   5.836   1.941   6.634 -0.0728 -0.2246  0.1748
 6178SOL    HW122322   5.819   1.955   6.727 -0.8322 -1.8797  0.3106
 6178SOL    HW222323   5.835   1.846   6.622 -0.1184 -0.0492 -1.5483
 6179SOL     OW22324   8.226   2.599   2.348 -0.0186 -0.2025  0.1440
 6179SOL    HW122325   8.264   2.593   2.436  0.1272 -0.6338  0.0551
 6179SOL    HW222326   8.292   2.647   2.298  0.0193 -0.1877  0.2070
 6180SOL     OW22327   3.977   7.073   1.776  0.0102  0.3801  0.3485
 6180SOL    HW122328   3.975   6.977   1.781 -0.7928  0.3069 -0.9148
 6180SOL    HW222329   3.893   7.101   1.812 -0.3828  0.5072 -0.6290
 6181SOL     OW22330   6.495   6.690   9.191  0.1086 -0.1441  0.5945
 6181SOL    HW122331   6.522   6.666   9.103 -1.9097  1.8790 -0.6959
 6181SOL    HW222332   6.444   6.616   9.222 -0.5691 -0.2236 -0.6487
 6182SOL     OW22333   4.099   9.319   1.493  0.2141 -0.4214  0.2595
 6182SOL    HW122334   4.156   9.391   1.517  0.8956 -0.6305 -0.6734
 6182SOL    HW222335   4.068   9.342   1.405  0.2708 -1.1556  0.0436
 6183SOL     OW22336   3.223   5.341   8.276 -0.0368  0.3273 -0.5955
 6183SOL    HW122337   3.285   5.355   8.348 -0.0909  1.4035 -0.7493
 6183SOL    HW222338   3.182   5.257   8.297  1.2734 -0.2807 -0.3535
 6184SOL     OW22339   8.881   1.750   1.419 -0.1824 -0.3817 -0.5540
 6184SOL    HW122340   8.967   1.731   1.380  0.8644  0.2702  1.3046
 6184SOL    HW222341   8.829   1.672   1.401  1.6153 -1.8842  0.4304
 6185SOL     OW22342   2.908   9.904   0.970 -0.0381 -0.1684  0.1621
 6185SOL    HW122343   2.883   9.841   0.903 -0.7184  2.4276 -2.2323
 6185SOL    HW222344   2.984   9.949   0.934 -2.1383  3.2888 -0.4031
 6186SOL     OW22345   7.732   6.322   3.209  0.4280 -0.2414 -0.0628
 6186SOL    HW122346   7.724   6.230   3.233 -0.2628 -0.1020  0.2893
 6186SOL    HW222347   7.785   6.322   3.129 -0.6620 -1.0608 -0.8206
 6187SOL     OW22348   8.875   6.291   2.967 -0.1186 -0.4312  0.1907
 6187SOL    HW122349   8.952   6.346   2.979 -0.2494 -0.3972  0.9437
 6187SOL    HW222350   8.893   6.240   2.889  1.9074 -2.4614  1.8651
 6188SOL     OW22351   7.638   0.760   3.072 -0.1621 -0.1709 -0.1111
 6188SOL    HW122352   7.562   0.702   3.084  0.5315 -1.4578 -1.5942
 6188SOL    HW222353   7.693   0.744   3.148 -1.3947  0.8801  1.0578
 6189SOL     OW22354   2.368   1.772   5.271 -0.1030 -0.2360 -0.1623
 6189SOL    HW122355   2.410   1.694   5.307 -0.9128 -0.4538  0.3512
 6189SOL    HW222356   2.426   1.844   5.296 -1.0087 -0.2712  2.3868
 6190SOL     OW22357   6.886   1.807   2.353 -0.0078  0.6033 -0.2004
 6190SOL    HW122358   6.874   1.724   2.400  0.1294 -0.5163 -2.0235
 6190SOL    HW222359   6.845   1.791   2.268  1.6434  1.7635 -1.2668
 6191SOL     OW22360   4.609   0.703   2.614  0.1143  0.1580 -0.0453
 6191SOL    HW122361   4.607   0.641   2.541 -1.4408 -0.2270  0.2836
 6191SOL    HW222362   4.517   0.722   2.632  0.4045 -0.2974  2.2557
 6192SOL     OW22363   1.530   1.363   8.847 -0.0770  0.2040 -0.3651
 6192SOL    HW122364   1.511   1.451   8.812  2.0223  1.0443  0.4733
 6192SOL    HW222365   1.532   1.307   8.769 -1.6829  0.8137 -0.8938
 6193SOL     OW22366   9.725   2.797   7.179 -0.5776  0.2261 -0.3518
 6193SOL    HW122367   9.810   2.753   7.170  0.7305  2.6954 -0.8336
 6193SOL    HW222368   9.710   2.800   7.274 -0.6003 -1.0052 -0.2947
 6194SOL     OW22369   5.500   6.805   8.066  0.1936 -0.4239  0.2137
 6194SOL    HW122370   5.548   6.888   8.062  0.8400 -0.8038 -0.2784
 6194SOL    HW222371   5.565   6.739   8.038  0.5494 -1.4686  3.1402
 6195SOL     OW22372   1.471   1.837   9.230 -0.6919  0.6454  0.1093
 6195SOL    HW122373   1.489   1.822   9.137 -0.7478 -0.1366  0.2161
 6195SOL    HW222374   1.553   1.816   9.274 -0.5507  1.3820  0.2097
 6196SOL     OW22375   5.882   0.703   1.876  0.4448  0.1663 -0.7616
 6196SOL    HW122376   5.944   0.656   1.821  0.9632 -1.6827  1.2330
 6196SOL    HW222377   5.917   0.695   1.965 -2.1103 -0.0847  0.3332
 6197SOL     OW22378   3.953   3.138   2.475  0.2233  0.1335  0.0053
 6197SOL    HW122379   3.912   3.219   2.445 -0.2287 -0.0305  0.1615
 6197SOL    HW222380   4.044   3.144   2.446  0.0173  0.3786 -0.6032
 6198SOL     OW22381   4.817   9.359   3.750 -0.3739 -0.4453  0.5122
 6198SOL    HW122382   4.873   9.430   3.719  1.1078 -1.6470  0.3420
 6198SOL    HW222383   4.873   9.308   3.810 -0.8808 -2.3212 -0.5217
 6199SOL     OW22384   8.955   2.927   2.873  0.1103 -0.1933  0.3956
 6199SOL    HW122385   9.010   2.997   2.838  0.9904  0.6109  3.0944
 6199SOL    HW222386   9.001   2.846   2.847  0.6370  0.3336 -0.3610
 6200SOL     OW22387   3.032   1.632   7.689 -0.5680  0.0782  0.5410
 6200SOL    HW122388   3.074   1.626   7.603  0.9121  2.4179  1.0024
 6200SOL    HW222389   2.956   1.688   7.675 -0.5667  0.1197  0.7049
 6201SOL     OW22390  10.347   4.959   7.992  0.2110 -0.0129 -0.3426
 6201SOL    HW122391  10.433   4.986   8.026  0.0866 -0.4378  0.3381
 6201SOL    HW222392  10.359   4.869   7.963  0.0028 -0.0648 -0.2709
 6202SOL     OW22393   8.393   8.849   7.741 -0.4376 -0.3200  0.1013
 6202SOL    HW122394   8.366   8.805   7.660  0.5363 -1.2553  0.2533
 6202SOL    HW222395   8.478   8.810   7.762 -0.0267  0.9006  0.8374
 6203SOL     OW22396  10.089   2.145   6.637 -0.0789  0.2087  0.0728
 6203SOL    HW122397  10.133   2.082   6.580  1.0162  0.3150  0.7563
 6203SOL    HW222398  10.020   2.094   6.680  1.3825 -0.8147  1.3160
 6204SOL     OW22399   0.966   3.328   3.778  0.1076 -0.0896 -0.2439
 6204SOL    HW122400   1.038   3.357   3.722 -0.7630  1.1571 -0.7672
 6204SOL    HW222401   0.925   3.409   3.808 -0.8055 -0.7684  0.4164
 6205SOL     OW22402   3.529   0.117   8.683 -0.3581 -0.0383  0.4404
 6205SOL    HW122403   3.614   0.076   8.700  0.1828  1.9817  3.4195
 6205SOL    HW222404   3.545   0.211   8.689 -2.6086  0.4535 -0.0543
 6206SOL     OW22405   7.517   1.126   0.032  0.1649  0.2148 -0.1196
 6206SOL    HW122406   7.519   1.128   0.127 -2.2036 -0.2140  0.0157
 6206SOL    HW222407   7.546   1.038   0.008 -1.0679 -0.3594  0.3719
 6207SOL     OW22408   5.430   7.953   3.465  0.1291 -0.3488 -0.1674
 6207SOL    HW122409   5.464   7.959   3.376  0.2730 -0.6066 -0.1302
 6207SOL    HW222410   5.508   7.939   3.520  0.2358  1.3542  0.1794
 6208SOL     OW22411   9.060   2.791  10.294 -0.2381 -0.3646 -0.0222
 6208SOL    HW122412   9.028   2.701  10.287 -1.5699 -0.2456  2.8777
 6208SOL    HW222413   9.107   2.793  10.378  1.7609  1.1401 -1.0900
 6209SOL     OW22414   1.648   7.608   0.700  0.3754  0.1336  0.0772
 6209SOL    HW122415   1.595   7.551   0.756 -0.9157  1.5918  0.4334
 6209SOL    HW222416   1.707   7.653   0.760  1.1680 -0.5804 -0.1594
 6210SOL     OW22417   2.863   1.621   0.195 -0.1712 -0.7866  0.2549
 6210SOL    HW122418   2.876   1.679   0.120 -0.9841 -1.3441 -0.3353
 6210SOL    HW222419   2.941   1.635   0.249 -0.4990  1.0859  0.3097
 6211SOL     OW22420   8.277   8.160   1.471 -0.0276  0.7392  0.1390
 6211SOL    HW122421   8.193   8.146   1.515 -0.9425  0.7301 -1.5379
 6211SOL    HW222422   8.337   8.102   1.516 -1.0664  0.2802  0.9783
 6212SOL     OW22423   9.921   4.416   0.396  0.3462  0.3416 -0.1106
 6212SOL    HW122424   9.974   4.433   0.474 -0.1562 -0.7962  0.5005
 6212SOL    HW222425   9.971   4.454   0.324  2.1910 -1.0379  0.3883
 6213SOL     OW22426   9.338   6.878   3.712  0.7121 -0.0269 -0.3117
 6213SOL    HW122427   9.403   6.948   3.707  1.4253 -0.5639  0.9950
 6213SOL    HW222428   9.309   6.878   3.803 -0.9348  0.0183 -0.8054
 6214SOL     OW22429   3.817   9.694   7.906 -0.1145 -0.2145  0.5598
 6214SOL    HW122430   3.803   9.779   7.866 -1.1423 -0.4688  0.3435
 6214SOL    HW222431   3.888   9.708   7.969  1.6410  0.1480 -1.4082
 6215SOL     OW22432  10.080   0.495   0.376 -0.4495 -0.1616 -0.6002
 6215SOL    HW122433  10.157   0.463   0.423  0.3008  1.0493 -0.9494
 6215SOL    HW222434  10.046   0.418   0.330 -0.4610 -1.0856  0.8950
 6216SOL     OW22435   4.155   3.985   5.264  0.3396  0.7060  0.1854
 6216SOL    HW122436   4.169   3.900   5.223 -0.2229  0.4150  0.5784
 6216SOL    HW222437   4.228   3.995   5.325 -0.5815 -0.3546  1.5069
 6217SOL     OW22438   7.676  10.134   0.475 -0.0018 -0.1560 -0.8420
 6217SOL    HW122439   7.761  10.171   0.499 -0.6599  0.6518  0.3139
 6217SOL    HW222440   7.615  10.207   0.478 -0.9183 -0.8981 -0.7544
 6218SOL     OW22441   1.726   5.915   4.472 -0.0935  0.8323  0.5157
 6218SOL    HW122442   1.704   5.914   4.379 -0.9258  1.8166  0.6807
 6218SOL    HW222443   1.796   5.980   4.479 -0.0948  0.8253  0.5871
 6219SOL     OW22444  10.020   5.147   8.549 -0.8497 -0.2438 -0.1399
 6219SOL    HW122445   9.988   5.081   8.488 -1.4270  0.0176 -0.1237
 6219SOL    HW222446  10.091   5.103   8.596 -3.4648 -2.0859  2.3856
 6220SOL     OW22447   2.985   6.495   8.092 -0.4031  0.0256  0.2634
 6220SOL    HW122448   2.893   6.480   8.070 -0.5235  0.4828  0.4370
 6220SOL    HW222449   3.002   6.585   8.065 -0.5133  0.5582  1.8312
 6221SOL     OW22450  10.281   8.344   3.339  0.3997 -0.2859  0.1766
 6221SOL    HW122451  10.237   8.278   3.285 -0.8547  0.6297  0.0130
 6221SOL    HW222452  10.220   8.361   3.410  0.1455  1.5016 -0.4090
 6222SOL     OW22453   8.852   1.412   1.787  0.4810 -0.1481 -0.4096
 6222SOL    HW122454   8.859   1.317   1.780  0.7603 -0.2131  0.5727
 6222SOL    HW222455   8.769   1.427   1.833  1.0983  0.0115  0.6802
 6223SOL     OW22456   1.397   1.159   5.037 -0.2405  0.0349 -0.3426
 6223SOL    HW122457   1.440   1.095   5.094  0.7400  0.5004 -0.5313
 6223SOL    HW222458   1.314   1.118   5.013  0.1198 -0.9213 -0.0095
 6224SOL     OW22459   4.390   1.300   6.713  0.2986  0.2165  0.1965
 6224SOL    HW122460   4.436   1.257   6.785 -1.3027 -2.7580 -0.3846
 6224SOL    HW222461   4.438   1.275   6.634  1.2688  2.3696  0.0305
 6225SOL     OW22462   9.851   6.872   6.601 -0.0933  0.8371 -0.1073
 6225SOL    HW122463   9.778   6.893   6.543 -0.9261  1.3006  1.0759
 6225SOL    HW222464   9.903   6.809   6.552 -1.8174 -0.2654 -0.6006
 6226SOL     OW22465   7.653   7.560   7.857 -0.6514 -0.4646 -0.6694
 6226SOL    HW122466   7.580   7.553   7.919  0.5919  0.1766  0.9198
 6226SOL    HW222467   7.665   7.470   7.825 -0.3544 -1.1181  1.1867
 6227SOL     OW22468   3.779   4.532   5.699 -0.2673 -0.5825  0.2272
 6227SOL    HW122469   3.843   4.463   5.680  0.1443  0.4379 -2.6290
 6227SOL    HW222470   3.820   4.584   5.768  0.3970 -1.8848  0.8661
 6228SOL     OW22471   8.156   1.451   7.809  0.2653  0.6487  0.0334
 6228SOL    HW122472   8.197   1.536   7.824  0.4495  0.4102  0.9769
 6228SOL    HW222473   8.156   1.440   7.714  2.1445  0.7815 -0.0181
 6229SOL     OW22474   5.757   1.314   1.351 -0.5192 -0.2512 -0.5216
 6229SOL    HW122475   5.771   1.222   1.375 -1.4107 -0.5762 -1.1762
 6229SOL    HW222476   5.843   1.354   1.358 -0.3515 -0.8153  1.0880
 6230SOL     OW22477   1.325   8.875   4.232 -0.3058 -0.4746 -0.0795
 6230SOL    HW122478   1.257   8.846   4.293  0.0250 -1.5916 -0.2117
 6230SOL    HW222479   1.322   8.970   4.235 -0.4230 -0.5096  1.5350
 6231SOL     OW22480   5.788   6.462   9.593 -0.4662 -0.4729  0.1247
 6231SOL    HW122481   5.867   6.474   9.647  0.2361 -1.7863 -0.5704
 6231SOL    HW222482   5.781   6.542   9.542  1.9018 -1.2976 -1.6459
 6232SOL     OW22483   3.419   9.069   2.776 -0.7279 -0.3248  0.3043
 6232SOL    HW122484   3.382   9.157   2.765  1.4371  0.5999 -0.2143
 6232SOL    HW222485   3.500   9.084   2.825 -0.2731 -2.0280  0.1224
 6233SOL     OW22486   3.302   6.159   5.714  0.1984 -0.5835 -0.4062
 6233SOL    HW122487   3.220   6.110   5.710 -1.3956  1.9632 -3.3039
 6233SOL    HW222488   3.367   6.102   5.673 -0.7093 -1.6542 -0.3961
 6234SOL     OW22489   7.096   5.410   6.878 -0.2397  0.5842  0.8756
 6234SOL    HW122490   7.106   5.474   6.808 -0.9636 -1.7235 -1.4970
 6234SOL    HW222491   7.001   5.409   6.895 -0.1089  0.8634  1.6675
 6235SOL     OW22492   6.907   1.568   3.812 -0.0556  0.3715 -0.1338
 6235SOL    HW122493   6.996   1.541   3.787 -0.1523  0.1982 -0.3033
 6235SOL    HW222494   6.897   1.538   3.902 -0.3105 -0.5610 -0.4585
 6236SOL     OW22495   3.789  10.091   2.393  0.3324 -0.4527  0.2121
 6236SOL    HW122496   3.805  10.166   2.335 -0.9958 -0.2695  0.0504
 6236SOL    HW222497   3.712  10.048   2.356 -0.7976 -0.1117  2.0401
 6237SOL     OW22498   6.590   8.454   2.421 -0.0725 -0.0030  0.0649
 6237SOL    HW122499   6.590   8.543   2.385 -1.3465  1.1009  2.5078
 6237SOL    HW222500   6.500   8.424   2.412 -0.0670 -0.3000  0.8664
 6238SOL     OW22501   0.391   4.499   8.874 -0.6095 -0.1982 -0.6505
 6238SOL    HW122502   0.464   4.560   8.879 -0.3038 -0.6209  0.4188
 6238SOL    HW222503   0.426   4.417   8.910 -1.4299 -0.5754 -0.6852
 6239SOL     OW22504   3.914   1.759   9.653  0.5353  0.3663 -0.2723
 6239SOL    HW122505   3.842   1.729   9.597 -1.2157  1.0482  1.5051
 6239SOL    HW222506   3.964   1.680   9.672 -1.4456 -0.7241  0.7799
 6240SOL     OW22507   1.802   2.109   9.847 -0.0613  0.0801 -0.0841
 6240SOL    HW122508   1.712   2.094   9.821 -0.2892  0.2028  0.5920
 6240SOL    HW222509   1.796   2.171   9.921  0.5672  0.0575 -0.0010
 6241SOL     OW22510   9.830   0.717   3.653 -0.2547  0.0827  0.2032
 6241SOL    HW122511   9.909   0.675   3.688 -0.6712  0.9168  2.2632
 6241SOL    HW222512   9.844   0.719   3.558  1.7619 -0.6371  0.4436
 6242SOL     OW22513   9.628   9.693   3.706  0.1022 -0.3639  0.2178
 6242SOL    HW122514   9.576   9.700   3.626  0.2081 -2.0056 -0.0375
 6242SOL    HW222515   9.653   9.783   3.727  0.2965  0.0855 -1.7611
 6243SOL     OW22516   9.189   0.322   2.711  0.3409 -0.7496 -0.4858
 6243SOL    HW122517   9.214   0.269   2.787  0.1274  0.0990  0.1903
 6243SOL    HW222518   9.100   0.350   2.730  0.2560 -0.5982 -1.0991
 6244SOL     OW22519   1.244   6.415   3.830  0.2692  0.7219 -0.4544
 6244SOL    HW122520   1.235   6.335   3.882  0.2934  0.7108 -0.4667
 6244SOL    HW222521   1.189   6.400   3.753 -0.7681  1.2530  0.1648
 6245SOL     OW22522   9.667   6.005   6.148 -0.4325  0.4350  0.3401
 6245SOL    HW122523   9.596   5.943   6.135 -0.7659  0.7141  0.8030
 6245SOL    HW222524   9.696   5.991   6.238 -0.2346  0.6627  0.3137
 6246SOL     OW22525   9.174   9.153  10.004  0.6873  0.0944 -0.1328
 6246SOL    HW122526   9.247   9.166  10.065  1.6241 -0.7522 -1.0403
 6246SOL    HW222527   9.215   9.150   9.918 -0.2915 -1.3495 -0.5813
 6247SOL     OW22528   5.957   2.403   0.467 -0.3035 -0.3034 -0.0821
 6247SOL    HW122529   6.038   2.395   0.416  1.2891 -1.4650  2.4590
 6247SOL    HW222530   5.930   2.494   0.454  0.7926 -0.1648 -1.8200
 6248SOL     OW22531   2.405   4.274   2.925  0.2290 -0.0831 -0.0996
 6248SOL    HW122532   2.430   4.273   3.017  0.3009 -0.6038 -0.1230
 6248SOL    HW222533   2.362   4.358   2.913 -0.3708 -0.2873  0.5682
 6249SOL     OW22534   6.158   6.983   3.287 -0.0862 -0.5356 -0.1880
 6249SOL    HW122535   6.253   6.972   3.290 -0.0197  0.1542  0.8442
 6249SOL    HW222536   6.123   6.895   3.302  0.3338 -1.2778 -2.9277
 6250SOL     OW22537   6.091   9.794   7.377 -0.4548  0.7309 -0.4374
 6250SOL    HW122538   6.165   9.837   7.334 -1.2344  0.0561 -2.6022
 6250SOL    HW222539   6.125   9.710   7.407  0.0515  1.1155  0.0771
 6251SOL     OW22540   5.055   2.223   3.967 -0.4921 -0.3945  0.1647
 6251SOL    HW122541   5.123   2.287   3.950  1.2696 -1.6455  2.0573
 6251SOL    HW222542   4.981   2.274   4.001  0.3638  0.7461  0.3510
 6252SOL     OW22543   8.730   2.131   0.511 -0.0111 -0.3418  0.4534
 6252SOL    HW122544   8.637   2.118   0.490  0.1540 -1.2707  0.2990
 6252SOL    HW222545   8.757   2.203   0.453 -0.3858 -0.7127 -0.1926
 6253SOL     OW22546   3.322   1.991   6.875  0.2971 -0.1102  0.3976
 6253SOL    HW122547   3.271   2.009   6.954 -0.2764 -3.1464  0.8273
 6253SOL    HW222548   3.309   1.898   6.858  0.1250  0.4636 -3.5164
 6254SOL     OW22549   7.222   5.813   0.062  0.0774  0.4906  0.1945
 6254SOL    HW122550   7.265   5.738   0.104 -0.2628 -0.0358 -0.3814
 6254SOL    HW222551   7.137   5.779   0.034 -0.0643  1.0874 -0.1097
 6255SOL     OW22552   1.265   1.567   9.215 -0.5874  0.1358 -0.3591
 6255SOL    HW122553   1.263   1.471   9.211  1.3094 -0.0096  0.6928
 6255SOL    HW222554   1.212   1.589   9.292 -1.4277 -0.0186 -0.8835
 6256SOL     OW22555   9.328   4.056   1.872  0.3922 -0.3334  0.1066
 6256SOL    HW122556   9.417   4.093   1.880  0.9441 -1.4677 -0.5280
 6256SOL    HW222557   9.302   4.078   1.782 -0.4928  1.0681  0.6777
 6257SOL     OW22558   9.426  10.154   6.908 -0.3141  0.1958  0.7481
 6257SOL    HW122559   9.480  10.076   6.922  0.3900  0.5118 -0.1286
 6257SOL    HW222560   9.382  10.139   6.825 -0.7444  0.4198  0.9292
 6258SOL     OW22561   1.747   9.397   1.905 -0.2442  0.2680 -0.2916
 6258SOL    HW122562   1.660   9.428   1.930  0.3127  0.5481  1.4203
 6258SOL    HW222563   1.738   9.301   1.903 -0.6871  0.3098 -0.5733
 6259SOL     OW22564   9.765   3.248   0.108  0.3032 -0.4784 -0.0988
 6259SOL    HW122565   9.687   3.301   0.119  0.8199  0.4622 -0.8518
 6259SOL    HW222566   9.805   3.246   0.195  0.3740  0.5269 -0.0965
 6260SOL     OW22567   7.514   9.680   2.830  0.4048 -0.3859 -0.7987
 6260SOL    HW122568   7.608   9.697   2.825  0.6489 -2.0238 -2.5667
 6260SOL    HW222569   7.478   9.714   2.748 -0.1320 -1.9365 -1.2514
 6261SOL     OW22570   3.058   4.251   4.786  0.7870 -0.0314  0.1152
 6261SOL    HW122571   3.038   4.176   4.843 -0.8172  0.1422 -0.1814
 6261SOL    HW222572   2.974   4.295   4.773  1.3539  0.6962 -1.3248
 6262SOL     OW22573   2.552   0.569   9.867  0.4782 -0.2336  0.1952
 6262SOL    HW122574   2.561   0.494   9.925 -0.3446  0.5748  1.4138
 6262SOL    HW222575   2.639   0.609   9.866  0.7295 -0.7670  0.1277
 6263SOL     OW22576   6.389   3.350   5.140  0.2186 -0.0593  0.0953
 6263SOL    HW122577   6.326   3.387   5.202 -0.9922 -0.7203 -0.6778
 6263SOL    HW222578   6.472   3.392   5.160 -0.4963  0.8952  1.1155
 6264SOL     OW22579   0.052   5.522  10.330  0.1664 -0.4908  0.4741
 6264SOL    HW122580   0.022   5.602  10.287 -1.2902 -2.0336 -1.5874
 6264SOL    HW222581  -0.028   5.476  10.355  0.8803 -2.2343 -0.2638
 6265SOL     OW22582   4.179   7.479   9.815  0.8922 -0.2233 -0.0086
 6265SOL    HW122583   4.112   7.539   9.849  0.7256  0.2096 -1.0592
 6265SOL    HW222584   4.188   7.412   9.883  1.1507  1.0398  1.2276
 6266SOL     OW22585   6.700   9.185   6.328 -0.0612 -0.4615  0.0393
 6266SOL    HW122586   6.616   9.228   6.313  1.0193  1.2103 -1.5244
 6266SOL    HW222587   6.718   9.137   6.248  1.4694  1.0160 -0.5646
 6267SOL     OW22588   0.465   2.637   8.433 -0.6417  0.3710 -0.1069
 6267SOL    HW122589   0.381   2.651   8.478 -1.2053 -1.3101 -0.5457
 6267SOL    HW222590   0.441   2.588   8.354  0.8015 -0.5641  0.0045
 6268SOL     OW22591   1.936   1.465   1.726  0.4269  0.1090  0.6097
 6268SOL    HW122592   1.987   1.498   1.801 -0.4548  0.1700  1.2031
 6268SOL    HW222593   1.851   1.509   1.734  0.4321  0.3769 -0.6353
 6269SOL     OW22594   1.485   2.397   4.968  0.6016 -1.1631 -0.3123
 6269SOL    HW122595   1.420   2.435   5.027  2.5892  0.8399  0.7239
 6269SOL    HW222596   1.466   2.437   4.883  0.8404 -0.0818  0.1231
 6270SOL     OW22597   8.199   0.825   5.597  0.3048 -0.4414 -0.3873
 6270SOL    HW122598   8.278   0.774   5.618 -0.0747 -1.6317 -1.6856
 6270SOL    HW222599   8.161   0.846   5.682  1.1484 -1.2535  0.2154
 6271SOL     OW22600   5.220   6.842   2.049  0.0751  0.5121  0.2303
 6271SOL    HW122601   5.295   6.817   1.994 -0.1394 -2.7770  1.2322
 6271SOL    HW222602   5.260   6.878   2.128  0.5155  1.1028 -0.2558
 6272SOL     OW22603   0.192   6.728   8.557 -0.2599 -0.2276  0.1060
 6272SOL    HW122604   0.244   6.749   8.480  0.3625  0.2871  0.6517
 6272SOL    HW222605   0.107   6.701   8.522  0.7158 -2.2903 -0.8563
 6273SOL     OW22606   2.628   9.586   5.096 -0.1342  0.4110 -0.3779
 6273SOL    HW122607   2.555   9.580   5.033 -0.2275  0.2416 -0.2549
 6273SOL    HW222608   2.597   9.538   5.173 -0.1417  0.8924 -0.0818
 6274SOL     OW22609   6.051   5.992   5.530 -0.2036 -0.9411 -0.4057
 6274SOL    HW122610   6.098   5.911   5.511 -0.7998 -1.5022  0.4280
 6274SOL    HW222611   5.971   5.986   5.479  0.2863 -0.3092 -1.2767
 6275SOL     OW22612   8.585   6.392   0.539  0.0929 -0.1751 -0.6311
 6275SOL    HW122613   8.604   6.479   0.574  0.8277 -0.3860 -0.5080
 6275SOL    HW222614   8.489   6.388   0.538  0.0594  0.1490  0.5487
 6276SOL     OW22615   5.698   9.192   2.474  0.3663 -0.5218  0.3415
 6276SOL    HW122616   5.705   9.263   2.410  0.3755  0.3485  1.2779
 6276SOL    HW222617   5.776   9.202   2.529  0.3049 -1.1965  0.5589
 6277SOL     OW22618   5.483   2.835   0.216  0.3353  0.1437  0.2904
 6277SOL    HW122619   5.560   2.823   0.161  0.7432 -0.9876  1.0733
 6277SOL    HW222620   5.459   2.927   0.204  0.8215  0.0996 -1.2115
 6278SOL     OW22621   7.754   4.442   0.080 -0.1575  0.1050  0.6830
 6278SOL    HW122622   7.849   4.431   0.085 -0.3221 -1.6587  0.7339
 6278SOL    HW222623   7.740   4.500   0.006  0.9343 -0.4890 -0.0207
 6279SOL     OW22624   8.093   2.137   2.529  0.4666 -0.3326 -0.1274
 6279SOL    HW122625   8.090   2.230   2.506  1.0782 -0.3865 -0.4333
 6279SOL    HW222626   8.070   2.135   2.622  2.2280  0.3047  0.3491
 6280SOL     OW22627   2.608   7.478   0.244  0.5290  0.1057  0.0889
 6280SOL    HW122628   2.613   7.573   0.240 -0.7748  0.2232  0.6667
 6280SOL    HW222629   2.518   7.460   0.271  0.5030 -1.3220 -0.8518
 6281SOL     OW22630   2.863   7.294   5.442  0.1136 -0.1052  0.3544
 6281SOL    HW122631   2.842   7.331   5.357 -0.1057 -0.1101  0.4067
 6281SOL    HW222632   2.868   7.199   5.426 -1.2643 -0.2335  0.6204
 6282SOL     OW22633   1.741   0.575   8.149  0.3860  0.1753 -0.1258
 6282SOL    HW122634   1.773   0.641   8.210  0.0663 -0.2509  0.5209
 6282SOL    HW222635   1.659   0.612   8.114  0.4788  0.3446 -0.1624
 6283SOL     OW22636   4.026   1.510   1.180  0.3518  0.1995  0.4875
 6283SOL    HW122637   3.983   1.557   1.252  0.5907 -1.6816  1.9363
 6283SOL    HW222638   4.100   1.465   1.221  0.2437 -1.2844 -0.8420
 6284SOL     OW22639   8.419   7.154   7.058 -0.4400  0.0525  0.0121
 6284SOL    HW122640   8.427   7.097   6.982  1.3713  0.1397  0.1119
 6284SOL    HW222641   8.338   7.125   7.101 -1.0120 -0.5850 -1.4330
 6285SOL     OW22642   8.082   8.583   5.626  0.3493  0.2831 -0.2918
 6285SOL    HW122643   8.160   8.631   5.598  0.4151  0.8401  0.8116
 6285SOL    HW222644   8.114   8.524   5.694  0.0092 -0.3331 -0.6600
 6286SOL     OW22645   4.280   7.236   4.722 -0.4094  0.0270 -0.3671
 6286SOL    HW122646   4.261   7.325   4.693  2.8956 -0.0540 -3.6174
 6286SOL    HW222647   4.202   7.185   4.698 -1.8173  1.7756  0.3258
 6287SOL     OW22648   6.107   9.445   0.599  0.3233 -0.3258  0.3815
 6287SOL    HW122649   6.152   9.453   0.515 -0.0791  1.1798  0.2807
 6287SOL    HW222650   6.172   9.472   0.664  0.4761 -1.0145  0.5304
 6288SOL     OW22651  10.087   0.693   9.602  0.1535  0.0621  0.4244
 6288SOL    HW122652  10.122   0.604   9.600  1.0819  0.4036  0.6871
 6288SOL    HW222653  10.152   0.745   9.556 -0.6082  0.5405 -0.1301
 6289SOL     OW22654   4.762   5.349   2.428 -0.3402 -0.0421  0.5383
 6289SOL    HW122655   4.716   5.375   2.348 -0.9038  0.8783  1.1371
 6289SOL    HW222656   4.854   5.343   2.402 -0.1457  2.5433  0.2739
 6290SOL     OW22657   6.790   3.186   6.627 -0.4886  0.1397  0.2005
 6290SOL    HW122658   6.852   3.117   6.648 -0.1027  0.1365 -0.9284
 6290SOL    HW222659   6.705   3.143   6.624 -0.8601  0.3885  3.2635
 6291SOL     OW22660   5.550   8.790   4.623 -0.7164  0.3516  0.2796
 6291SOL    HW122661   5.561   8.710   4.674 -3.2178  0.0847  0.5368
 6291SOL    HW222662   5.519   8.761   4.538  2.0036  0.8982 -1.0306
 6292SOL     OW22663   2.267   7.816   0.289 -0.2112  0.5305  0.4426
 6292SOL    HW122664   2.230   7.736   0.327  0.2469  0.6320  1.1150
 6292SOL    HW222665   2.361   7.797   0.281 -0.5340 -0.2937 -2.6433
 6293SOL     OW22666   9.367   4.824   5.298  0.4363  0.0949 -0.1052
 6293SOL    HW122667   9.441   4.837   5.357  0.2658  0.5661  0.0074
 6293SOL    HW222668   9.404   4.840   5.211  0.4597  0.3535 -0.0477
 6294SOL     OW22669   7.584   1.651   7.763 -0.0355 -0.3986  0.1767
 6294SOL    HW122670   7.491   1.674   7.753 -0.1214 -0.0290  1.6308
 6294SOL    HW222671   7.583   1.560   7.793 -0.0719  0.2920  2.4577
 6295SOL     OW22672   6.030   1.343   1.991 -0.1578  0.0121  0.3707
 6295SOL    HW122673   6.039   1.259   2.037 -0.1176 -0.6521 -0.7976
 6295SOL    HW222674   5.941   1.372   2.013 -0.4120 -0.6663  0.2611
 6296SOL     OW22675   5.982   5.237   5.851  0.4468  0.1744 -0.3013
 6296SOL    HW122676   5.955   5.229   5.760  0.3620 -1.2957 -0.1788
 6296SOL    HW222677   6.031   5.156   5.869  2.9633  1.7076  0.1526
 6297SOL     OW22678   2.252   5.644   8.753  0.1091 -0.1441  0.0096
 6297SOL    HW122679   2.276   5.718   8.808 -1.9824  0.5397  0.0966
 6297SOL    HW222680   2.198   5.588   8.809 -3.3629  1.3300 -1.5871
 6298SOL     OW22681  10.296   1.876   4.064 -0.0703 -0.1647  0.4305
 6298SOL    HW122682  10.355   1.803   4.083 -0.6208 -0.7985 -0.2029
 6298SOL    HW222683  10.336   1.920   3.990  0.3519  0.2842  0.9228
 6299SOL     OW22684  10.002   8.970   9.690 -0.3369  0.2520  0.0961
 6299SOL    HW122685  10.074   9.030   9.674  1.1836 -1.4908  0.0674
 6299SOL    HW222686  10.021   8.932   9.776 -0.2592 -1.4472 -0.6278
 6300SOL     OW22687   4.947   8.313   2.295 -0.0842 -0.5338 -0.2518
 6300SOL    HW122688   4.987   8.287   2.212 -1.2899 -1.3792 -0.5837
 6300SOL    HW222689   4.857   8.334   2.273  0.1809  1.5958  0.4505
 6301SOL     OW22690   6.529   3.789   5.344 -0.0240  0.4013 -0.6983
 6301SOL    HW122691   6.476   3.866   5.364  0.5133  0.7286 -0.5075
 6301SOL    HW222692   6.528   3.738   5.426 -0.5575  0.0957 -0.8928
 6302SOL     OW22693   5.429   0.566   0.952 -0.1780 -0.3797  0.3748
 6302SOL    HW122694   5.404   0.572   0.859  1.3031  0.5466 -0.0019
 6302SOL    HW222695   5.524   0.560   0.950 -0.1317 -0.2931  1.8531
 6303SOL     OW22696  10.304   6.786   9.972  0.1272  0.6466  0.1128
 6303SOL    HW122697  10.281   6.840   9.896 -1.8211  0.7499  0.7239
 6303SOL    HW222698  10.283   6.842  10.048 -0.9131 -0.5587  0.7419
 6304SOL     OW22699   9.528   3.645   1.456  0.0689  0.0441 -0.0834
 6304SOL    HW122700   9.440   3.606   1.463 -0.9555  2.0599 -0.9323
 6304SOL    HW222701   9.513   3.731   1.418  2.2759  1.1078  1.2848
 6305SOL     OW22702   5.273   7.198   9.193  0.2487  0.1972  0.1267
 6305SOL    HW122703   5.283   7.262   9.264  1.1597  0.2390 -0.0358
 6305SOL    HW222704   5.295   7.247   9.114 -2.1875  0.5857 -0.4177
 6306SOL     OW22705   0.248   0.587   8.263 -0.5123 -0.4589 -0.6047
 6306SOL    HW122706   0.211   0.555   8.345 -1.0799  0.6281 -0.4123
 6306SOL    HW222707   0.250   0.510   8.206  0.7387 -1.4355  0.6958
 6307SOL     OW22708   8.880   4.338   7.916  0.1783 -0.0665  0.5591
 6307SOL    HW122709   8.824   4.263   7.938  1.9183 -0.9799  2.2545
 6307SOL    HW222710   8.828   4.390   7.855 -1.5744 -2.0291  0.2496
 6308SOL     OW22711   7.129   3.365   6.929  0.0929  0.2456  0.1744
 6308SOL    HW122712   7.084   3.449   6.941 -0.7827 -0.0166 -1.0079
 6308SOL    HW222713   7.106   3.339   6.839  2.1666 -0.1862 -0.2896
 6309SOL     OW22714   7.993   9.588   8.093 -0.6522 -0.3776  0.2528
 6309SOL    HW122715   8.054   9.595   8.167 -0.0691  3.2707 -0.3749
 6309SOL    HW222716   8.043   9.543   8.025  0.4420  0.1768  0.6522
 6310SOL     OW22717   3.584   4.603   5.941 -0.3460  0.0539  0.0305
 6310SOL    HW122718   3.536   4.560   5.870 -0.6259 -0.3713  0.4755
 6310SOL    HW222719   3.592   4.537   6.009 -0.3561  0.5502  0.5259
 6311SOL     OW22720   4.307   1.587   7.865 -0.0197 -0.2061 -0.4850
 6311SOL    HW122721   4.320   1.670   7.911 -0.6021 -0.2848 -0.1658
 6311SOL    HW222722   4.287   1.524   7.934  0.5578 -0.6490 -0.7107
 6312SOL     OW22723   3.146   2.819   8.871  0.0921 -0.3888 -0.2977
 6312SOL    HW122724   3.121   2.762   8.944  0.6924 -1.7256 -1.1074
 6312SOL    HW222725   3.143   2.907   8.908 -1.1005 -0.9047  0.9244
 6313SOL     OW22726   6.132   6.743   5.483  0.0406  0.2432  0.3732
 6313SOL    HW122727   6.190   6.808   5.444  1.3600 -2.4859 -2.5928
 6313SOL    HW222728   6.053   6.745   5.429 -0.4214  0.1860  1.0266
 6314SOL     OW22729   3.418  10.355   7.668  0.5557  0.1469 -0.0366
 6314SOL    HW122730   3.470  10.368   7.747 -1.1364  1.1167  0.9618
 6314SOL    HW222731   3.362  10.281   7.688  2.8274 -2.3045 -1.8713
 6315SOL     OW22732   4.661   4.087   0.040 -0.0521  0.2572  0.0326
 6315SOL    HW122733   4.569   4.059   0.047 -0.4267  1.2632 -0.7801
 6315SOL    HW222734   4.697   4.033  -0.030  0.0540 -0.3033  0.5081
 6316SOL     OW22735   7.468   5.664   4.564  0.5667 -0.0934  0.3132
 6316SOL    HW122736   7.388   5.613   4.547 -0.5821  1.6043  0.4190
 6316SOL    HW222737   7.437   5.752   4.584  2.5484  1.1686 -1.6769
 6317SOL     OW22738   3.148  10.295   7.863 -0.0834 -0.7070 -0.7790
 6317SOL    HW122739   3.145  10.308   7.957  0.5923 -0.3540 -0.8017
 6317SOL    HW222740   3.092  10.364   7.827 -2.3633 -2.3044 -0.5383
 6318SOL     OW22741   1.359   5.965   8.798 -0.2065  0.5492 -0.2862
 6318SOL    HW122742   1.443   5.929   8.767 -0.7030  0.8102 -2.0664
 6318SOL    HW222743   1.307   5.888   8.821  0.1616  0.3301 -0.1816
 6319SOL     OW22744   1.374   7.067   1.624  0.1451  0.4325  0.2037
 6319SOL    HW122745   1.299   7.095   1.676  0.5885  0.7585  0.6808
 6319SOL    HW222746   1.450   7.086   1.679  0.6010  0.4255 -0.4106
 6320SOL     OW22747   9.018   6.109   4.220  0.6710  0.7717  0.5959
 6320SOL    HW122748   9.107   6.078   4.206 -0.1747 -0.9432 -1.6285
 6320SOL    HW222749   8.994   6.152   4.138 -0.7784  0.5436  0.8641
 6321SOL     OW22750   3.455   6.957   9.006 -0.3256  0.0379 -0.1630
 6321SOL    HW122751   3.546   6.978   8.986  0.4938 -1.1128  2.0103
 6321SOL    HW222752   3.441   6.870   8.969  0.0970 -0.6002  1.1218
 6322SOL     OW22753   4.928   4.991   8.498 -0.2805 -0.1194 -0.0919
 6322SOL    HW122754   4.991   4.956   8.560  0.9024  1.1178 -0.5531
 6322SOL    HW222755   4.860   5.031   8.553 -0.0260 -0.3575  0.4035
 6323SOL     OW22756   8.572   0.524   3.121  0.4950 -0.1093 -0.0896
 6323SOL    HW122757   8.656   0.491   3.152  1.2155  1.4414 -0.2940
 6323SOL    HW222758   8.513   0.513   3.195  0.9437 -0.9027  0.1689
 6324SOL     OW22759   8.893   5.728   8.476  0.2978 -0.1796  0.0122
 6324SOL    HW122760   8.799   5.741   8.488  0.3406 -0.7155  1.0596
 6324SOL    HW222761   8.934   5.781   8.544  0.6887 -1.0540  0.4718
 6325SOL     OW22762   2.346   6.669   3.175  0.1984 -0.7620  0.1622
 6325SOL    HW122763   2.425   6.693   3.224  0.0372  0.9049 -0.3454
 6325SOL    HW222764   2.378   6.609   3.107  1.5915  1.8846 -1.7301
 6326SOL     OW22765   8.899   5.269   2.340  0.0294  0.6052  0.1776
 6326SOL    HW122766   8.862   5.206   2.278  2.5187 -0.1842 -0.6029
 6326SOL    HW222767   8.902   5.352   2.292  0.6595  0.3171 -0.2940
 6327SOL     OW22768   6.810   2.145   7.719 -0.3112  0.0980 -0.1569
 6327SOL    HW122769   6.833   2.213   7.782 -1.0807  0.6905 -0.4956
 6327SOL    HW222770   6.805   2.191   7.635 -1.3443 -0.2656 -0.3088
 6328SOL     OW22771   6.009   1.934   7.857 -0.0249 -0.0761  0.7717
 6328SOL    HW122772   5.976   2.016   7.822  0.9787  0.9552  2.1122
 6328SOL    HW222773   5.969   1.927   7.944 -0.4093 -1.2106  0.5139
 6329SOL     OW22774   3.012   2.696   8.393 -0.5388  0.1213  0.5733
 6329SOL    HW122775   3.072   2.720   8.322  1.6264 -0.7432  2.0515
 6329SOL    HW222776   2.995   2.603   8.380  1.6067 -0.5991  2.3208
 6330SOL     OW22777   4.166   0.249   7.175 -0.0261  0.6481  0.2230
 6330SOL    HW122778   4.190   0.174   7.121  1.0793  0.3509  1.0718
 6330SOL    HW222779   4.142   0.317   7.113  2.0134  0.5993 -0.7128
 6331SOL     OW22780   7.507   5.587   5.873  0.1644  0.3096  0.3323
 6331SOL    HW122781   7.534   5.552   5.958 -0.2827 -2.2086 -0.4723
 6331SOL    HW222782   7.528   5.517   5.811 -0.1827  1.7986 -1.5459
 6332SOL     OW22783   9.288   2.382   6.838 -0.5960  0.0198 -0.5365
 6332SOL    HW122784   9.285   2.411   6.747 -0.3022  0.9299 -0.2600
 6332SOL    HW222785   9.378   2.400   6.866 -0.3550 -1.2682 -0.3821
 6333SOL     OW22786   8.379   8.110   8.436  0.4749  0.2444 -0.0966
 6333SOL    HW122787   8.353   8.070   8.520  1.0756 -0.9103 -0.4347
 6333SOL    HW222788   8.442   8.177   8.461  1.2965 -0.6605  0.3399
 6334SOL     OW22789   0.366   6.396   4.254  0.1974  0.0100 -0.5986
 6334SOL    HW122790   0.362   6.311   4.209 -0.5848  0.1215 -0.7537
 6334SOL    HW222791   0.279   6.433   4.243  0.0830  0.1894  0.7585
 6335SOL     OW22792   7.333   3.854   2.680  0.2444 -0.2257  0.3365
 6335SOL    HW122793   7.332   3.789   2.609  1.5709 -1.6002  1.5055
 6335SOL    HW222794   7.387   3.926   2.645  1.2679 -1.0825  0.0796
 6336SOL     OW22795   7.210   2.388   5.658 -0.0420 -0.4589  0.1534
 6336SOL    HW122796   7.198   2.465   5.714 -0.6268 -0.8000  0.5082
 6336SOL    HW222797   7.231   2.425   5.572 -1.0308  0.1361  0.1403
 6337SOL     OW22798   0.201   6.506   6.176 -0.3281 -0.7072 -0.7100
 6337SOL    HW122799   0.236   6.574   6.234  1.2492 -0.8170 -1.4896
 6337SOL    HW222800   0.115   6.486   6.213 -1.1007  2.1102 -0.7924
 6338SOL     OW22801   2.496   8.258   0.297 -0.5288  0.1642 -0.4900
 6338SOL    HW122802   2.477   8.293   0.210  1.8971  2.0538 -0.3553
 6338SOL    HW222803   2.410   8.246   0.337 -1.6655  0.2619 -2.7325
 6339SOL     OW22804   0.259   9.822   6.469 -0.3510 -0.4108  0.5795
 6339SOL    HW122805   0.166   9.800   6.469 -0.3995 -0.2401 -0.0890
 6339SOL    HW222806   0.261   9.918   6.475 -0.2761 -0.2969 -0.8343
 6340SOL     OW22807   0.804   2.910   2.129 -0.1237 -0.1948  0.0503
 6340SOL    HW122808   0.770   2.965   2.058 -1.1020  2.1635  2.2041
 6340SOL    HW222809   0.752   2.830   2.124 -0.4466  0.0714 -1.6102
 6341SOL     OW22810   1.916   1.583   6.806 -0.5496 -0.1644  0.1039
 6341SOL    HW122811   1.921   1.543   6.893  0.2931  0.1480  0.2041
 6341SOL    HW222812   1.873   1.517   6.752  0.0216 -0.8566  0.4725
 6342SOL     OW22813  10.230   8.783   3.269 -0.0009  0.1220 -0.0181
 6342SOL    HW122814  10.260   8.734   3.346  0.5427  0.3514 -0.0788
 6342SOL    HW222815  10.204   8.715   3.206 -0.6916 -0.0613  0.4572
 6343SOL     OW22816   7.851   2.005   4.757  0.1901  0.2810  0.4736
 6343SOL    HW122817   7.865   2.063   4.682 -1.2247 -1.0589 -0.8980
 6343SOL    HW222818   7.762   2.025   4.786  0.2160 -0.2030  0.9031
 6344SOL     OW22819   3.266   6.939   5.070  0.0117 -0.5026 -0.0830
 6344SOL    HW122820   3.289   6.962   5.160 -1.4848  0.6958  0.0312
 6344SOL    HW222821   3.343   6.962   5.018  0.9128 -1.2685  0.8788
 6345SOL     OW22822   4.909   7.859   2.440 -0.0468  0.1192 -0.4833
 6345SOL    HW122823   4.906   7.842   2.346  0.1600 -0.6191 -0.3597
 6345SOL    HW222824   4.915   7.772   2.480  0.4150  0.4507  0.1870
 6346SOL     OW22825   1.209   3.747   8.440 -0.6088  0.8273  0.0506
 6346SOL    HW122826   1.210   3.763   8.535  0.5953 -1.0591  0.4119
 6346SOL    HW222827   1.183   3.655   8.431  0.1875  0.7029 -1.3780
 6347SOL     OW22828   3.612   6.627   8.677 -0.4523 -0.3548 -0.1173
 6347SOL    HW122829   3.648   6.579   8.602  0.9616 -1.4437  1.2062
 6347SOL    HW222830   3.531   6.582   8.698 -0.7380 -0.1882 -0.8426
 6348SOL     OW22831   8.111   9.311   6.535  0.3363  0.0333 -0.1228
 6348SOL    HW122832   8.198   9.333   6.568  0.5242  2.0870 -1.7451
 6348SOL    HW222833   8.128   9.253   6.460  0.1007 -1.8593  1.2317
 6349SOL     OW22834   3.752   7.201   0.468  0.2489  0.1050 -0.5723
 6349SOL    HW122835   3.813   7.202   0.541  0.1502 -0.7172 -0.4752
 6349SOL    HW222836   3.700   7.281   0.479 -0.0220 -0.2032  0.4767
 6350SOL     OW22837   1.305   2.674   2.683 -0.3026 -0.1048  0.2628
 6350SOL    HW122838   1.293   2.584   2.714  0.5179  0.1232  1.3558
 6350SOL    HW222839   1.400   2.681   2.669 -0.2177  0.8626  1.1737
 6351SOL     OW22840   0.994   7.051   1.754  0.2201 -0.1144 -0.1726
 6351SOL    HW122841   0.930   7.118   1.776  0.9317  0.5041  0.0663
 6351SOL    HW222842   1.046   7.090   1.684 -0.7965 -1.3058 -1.6646
 6352SOL     OW22843   4.949   2.532  10.096  0.1974 -0.0353 -0.2915
 6352SOL    HW122844   4.861   2.568  10.093  0.2479  0.1544  0.3228
 6352SOL    HW222845   4.946   2.466  10.165  0.3705 -0.4903 -0.7170
 6353SOL     OW22846   8.578   5.026   9.454 -0.3842  0.0240 -0.3063
 6353SOL    HW122847   8.659   5.075   9.461 -1.3724  2.4577 -3.2954
 6353SOL    HW222848   8.605   4.937   9.431  1.4147 -0.4615  3.0780
 6354SOL     OW22849   2.523   8.569   5.773 -0.4574 -0.0833  0.5094
 6354SOL    HW122850   2.438   8.548   5.734  0.3364 -0.3353 -1.2081
 6354SOL    HW222851   2.534   8.505   5.843 -2.0735  0.5604  1.3932
 6355SOL     OW22852   6.953   9.269   0.108 -0.2334  0.7675 -0.2185
 6355SOL    HW122853   7.041   9.299   0.132  0.0140  0.9203 -1.2751
 6355SOL    HW222854   6.947   9.286   0.014 -0.4354 -1.5843 -0.6838
 6356SOL     OW22855   3.637   0.986   5.294 -0.1266  0.1262 -1.2259
 6356SOL    HW122856   3.577   0.933   5.345  0.0901 -2.2557 -3.2222
 6356SOL    HW222857   3.710   1.005   5.353 -0.5263 -1.3088 -0.2385
 6357SOL     OW22858   2.725   1.100   6.248 -0.2960 -0.0772 -0.1127
 6357SOL    HW122859   2.629   1.091   6.251 -0.4615  1.2566 -0.8005
 6357SOL    HW222860   2.755   1.059   6.329 -1.5138  0.1326  0.4770
 6358SOL     OW22861   7.588   0.487   1.620 -0.1562 -0.7468 -0.6099
 6358SOL    HW122862   7.535   0.565   1.605 -0.8135 -0.5502  2.1424
 6358SOL    HW222863   7.667   0.519   1.663  1.0617 -1.3315 -2.2922
 6359SOL     OW22864   9.612   2.236   5.282  0.3225  0.1707 -0.6893
 6359SOL    HW122865   9.687   2.296   5.290  0.5214 -0.1699  0.1309
 6359SOL    HW222866   9.652   2.149   5.279 -0.0924 -0.1924  2.1107
 6360SOL     OW22867   5.501   9.648   4.413  0.0823 -0.3341  0.0310
 6360SOL    HW122868   5.596   9.663   4.414  0.1940 -0.8083  2.5192
 6360SOL    HW222869   5.489   9.571   4.358  1.0176  0.2211 -0.9941
 6361SOL     OW22870   8.185   6.304   5.300 -0.2855 -0.0250  0.3178
 6361SOL    HW122871   8.170   6.307   5.394 -1.3694 -0.5971  0.1903
 6361SOL    HW222872   8.173   6.212   5.277 -1.6813  0.3512 -0.5971
 6362SOL     OW22873   6.639   2.255   3.037  0.3641 -0.5474 -0.4184
 6362SOL    HW122874   6.626   2.174   3.086  0.1164 -1.1754 -1.4839
 6362SOL    HW222875   6.728   2.248   3.002  0.7963  0.2092  0.4691
 6363SOL     OW22876   6.873   2.777   7.641  0.6951 -0.1233 -0.0906
 6363SOL    HW122877   6.778   2.766   7.631  0.0923  0.6421  3.4037
 6363SOL    HW222878   6.910   2.693   7.614 -1.0117 -0.6860 -0.8365
 6364SOL     OW22879   5.178   1.269   6.421  0.2057 -0.2317  0.3601
 6364SOL    HW122880   5.169   1.251   6.515 -0.8804 -0.6585  0.1913
 6364SOL    HW222881   5.271   1.253   6.402  0.5917  0.5355  1.4899
 6365SOL     OW22882   4.541   1.565   7.231  0.4182 -0.0583 -0.0248
 6365SOL    HW122883   4.582   1.530   7.310  0.9722  1.1084  0.2345
 6365SOL    HW222884   4.447   1.550   7.243  0.5180 -0.0731  0.7557
 6366SOL     OW22885   7.685   2.608   1.664 -0.1848 -0.2288  0.0060
 6366SOL    HW122886   7.697   2.702   1.682  0.8242 -0.4492  0.5511
 6366SOL    HW222887   7.611   2.605   1.603 -0.6292  0.8799  0.4544
 6367SOL     OW22888   6.113   4.079   0.741  0.3312 -0.6391 -0.1133
 6367SOL    HW122889   6.048   4.149   0.755 -0.7339 -1.9568  2.0217
 6367SOL    HW222890   6.165   4.079   0.821  0.3862 -2.1868 -0.1251
 6368SOL     OW22891   8.130   4.297   7.335  0.1478  0.4162  0.1723
 6368SOL    HW122892   8.166   4.326   7.419  1.8607  0.7025 -0.6278
 6368SOL    HW222893   8.061   4.361   7.316 -0.2115  0.3974  1.2902
 6369SOL     OW22894   9.368   5.043   9.639  0.2498 -0.5748 -0.4158
 6369SOL    HW122895   9.416   4.974   9.683 -0.8337 -0.7083  0.5971
 6369SOL    HW222896   9.414   5.124   9.663  0.2340 -0.7414  0.1844
 6370SOL     OW22897   3.257   3.396   5.286  0.0149 -0.3357  0.3031
 6370SOL    HW122898   3.226   3.311   5.318 -2.5680  0.1920 -0.5602
 6370SOL    HW222899   3.177   3.445   5.266  1.4412  1.8575 -0.4076
 6371SOL     OW22900   0.153   9.795   4.647 -0.0253  0.3511  0.4044
 6371SOL    HW122901   0.221   9.849   4.607  1.3041 -2.8154 -1.9982
 6371SOL    HW222902   0.200   9.736   4.706 -1.2745  0.7972  1.9334
 6372SOL     OW22903   0.901   1.323   0.634  0.3409 -0.0598 -0.2022
 6372SOL    HW122904   0.934   1.286   0.552  1.4423 -0.4626  0.4134
 6372SOL    HW222905   0.958   1.397   0.651 -1.1274  1.2759 -0.8106
 6373SOL     OW22906   2.033   4.181   3.061 -0.0978  0.3546  0.4887
 6373SOL    HW122907   2.010   4.088   3.062  0.6535 -0.0253 -3.1549
 6373SOL    HW222908   1.984   4.217   2.988  2.0361  2.0969 -0.1991
 6374SOL     OW22909   0.989   6.992   0.395 -0.5284  0.5064  0.1536
 6374SOL    HW122910   0.908   6.984   0.446 -1.2547  0.0767 -1.0182
 6374SOL    HW222911   0.979   6.929   0.324  1.0032  0.2083  0.1730
 6375SOL     OW22912   3.783   9.511   4.437 -0.4996  0.2161 -0.5745
 6375SOL    HW122913   3.691   9.502   4.463 -0.4627  1.9480  0.3046
 6375SOL    HW222914   3.780   9.523   4.343 -1.1553  0.0319 -0.5822
 6376SOL     OW22915   0.359   2.233   2.952  0.4416  0.1641  0.1007
 6376SOL    HW122916   0.354   2.160   3.014 -0.2200 -0.6958 -0.9378
 6376SOL    HW222917   0.407   2.197   2.877 -0.3733  0.6125 -0.6484
 6377SOL     OW22918   8.125   3.863   2.954 -0.0487  0.2594 -0.0512
 6377SOL    HW122919   8.128   3.958   2.969  0.8191  0.5159 -1.5958
 6377SOL    HW222920   8.160   3.852   2.866 -1.1161 -1.4240 -0.3061
 6378SOL     OW22921   7.187   1.852   1.863  0.3683 -1.0476 -0.0407
 6378SOL    HW122922   7.098   1.837   1.831  0.4718  0.7000 -1.3224
 6378SOL    HW222923   7.197   1.948   1.862  1.4235 -1.0679  2.5276
 6379SOL     OW22924   2.249   5.780   3.552  0.3281 -0.0246 -0.2862
 6379SOL    HW122925   2.271   5.849   3.614 -1.1677  0.0220  0.2276
 6379SOL    HW222926   2.271   5.699   3.597 -1.3262 -0.0223  0.6015
 6380SOL     OW22927   8.061  10.335   7.704  0.0253  0.3172  0.0073
 6380SOL    HW122928   8.010  10.414   7.682 -0.4491 -0.5393 -2.2119
 6380SOL    HW222929   7.995  10.266   7.713  0.5877 -0.2441 -0.1495
 6381SOL     OW22930  10.091   9.143   7.952  0.0124 -0.3363  0.6360
 6381SOL    HW122931  10.135   9.163   8.034  0.1078 -0.2179  0.5562
 6381SOL    HW222932  10.004   9.183   7.960  0.2839  0.3299  0.3833
 6382SOL     OW22933   6.672   1.765   9.959  0.1120 -0.1052  0.0490
 6382SOL    HW122934   6.634   1.758   9.872  0.1374 -0.3571  0.0571
 6382SOL    HW222935   6.599   1.793  10.015  0.2777  0.8448 -0.1897
 6383SOL     OW22936   2.139   5.743   1.761  0.6900 -0.2495  0.6139
 6383SOL    HW122937   2.210   5.771   1.704  0.2556  0.0786  0.2290
 6383SOL    HW222938   2.119   5.819   1.815  0.7496 -0.3982  0.8486
 6384SOL     OW22939   0.365   5.751   6.060  0.3489 -0.6435  0.3815
 6384SOL    HW122940   0.376   5.823   6.123  0.6717 -0.1101 -0.2637
 6384SOL    HW222941   0.314   5.685   6.107  1.0673 -0.5060  1.3905
 6385SOL     OW22942   2.235   1.716   2.657 -0.2373  0.2837  0.1758
 6385SOL    HW122943   2.222   1.643   2.597  0.6775 -0.2072  0.5651
 6385SOL    HW222944   2.286   1.780   2.607  1.1080 -0.4077  0.6112
 6386SOL     OW22945   4.085   4.063   5.597  0.4680 -0.5636  0.6378
 6386SOL    HW122946   4.012   4.011   5.563 -0.1262  0.8786 -0.3870
 6386SOL    HW222947   4.044   4.143   5.630  1.4921 -0.1603  0.9606
 6387SOL     OW22948   4.786   4.331   9.004  0.5721  0.6749 -0.0742
 6387SOL    HW122949   4.862   4.344   9.062 -0.2838  0.5644  1.1111
 6387SOL    HW222950   4.769   4.418   8.967  0.0187  1.1755  1.2820
 6388SOL     OW22951   3.688   9.611   0.123  0.3768 -0.0673 -0.0912
 6388SOL    HW122952   3.738   9.682   0.163 -2.0027  0.9016  1.3740
 6388SOL    HW222953   3.643   9.652   0.049  1.9850 -1.0457 -1.7132
 6389SOL     OW22954   1.006   4.223   1.158 -0.5407 -0.3608  0.1567
 6389SOL    HW122955   1.024   4.135   1.123 -0.3489 -0.4368  0.4508
 6389SOL    HW222956   1.011   4.280   1.081  3.0489 -0.0423  0.4607
 6390SOL     OW22957   9.329   7.807   9.954  0.5255 -0.3208 -0.1104
 6390SOL    HW122958   9.397   7.787   9.891  0.9174 -1.0570  0.5174
 6390SOL    HW222959   9.268   7.733   9.947  0.2934 -0.1378 -0.0111
 6391SOL     OW22960   1.707   8.458   3.358 -0.0345  0.7849 -0.4512
 6391SOL    HW122961   1.651   8.434   3.284 -0.2542  0.9625 -0.3458
 6391SOL    HW222962   1.718   8.376   3.407 -0.4197  0.8039 -0.3312
 6392SOL     OW22963   6.714   2.082   2.116 -0.0269 -0.4420 -0.7018
 6392SOL    HW122964   6.658   2.120   2.048 -0.6172  0.9058  0.4776
 6392SOL    HW222965   6.803   2.099   2.087 -0.2803  0.5623 -0.9223
 6393SOL     OW22966   4.345   3.255   8.944 -0.4548 -0.1726 -0.3131
 6393SOL    HW122967   4.295   3.180   8.909  0.2259 -0.1991 -1.2655
 6393SOL    HW222968   4.335   3.323   8.878 -0.2716  0.2559  0.0976
 6394SOL     OW22969   7.979   8.322   1.155  0.2123  0.0955 -0.8818
 6394SOL    HW122970   7.917   8.266   1.108 -0.1056 -0.1705 -0.1441
 6394SOL    HW222971   7.981   8.403   1.104 -0.5908  0.0330 -1.0249
 6395SOL     OW22972   2.473   2.481   5.049 -0.1356  0.4398  0.4671
 6395SOL    HW122973   2.384   2.448   5.064 -0.0636  0.5527  1.2015
 6395SOL    HW222974   2.528   2.402   5.050 -0.1283  0.4436  0.8928
 6396SOL     OW22975   3.881   2.882   5.948  0.0179 -0.1661 -0.0730
 6396SOL    HW122976   3.910   2.792   5.937 -1.1891 -0.4246 -1.4720
 6396SOL    HW222977   3.954   2.926   5.992  1.3869 -1.3821 -1.0487
 6397SOL     OW22978   8.504  10.108   2.655 -0.1852  0.1328  0.0602
 6397SOL    HW122979   8.583  10.117   2.707 -0.4283  1.4023  0.2301
 6397SOL    HW222980   8.498  10.189   2.605  0.0700 -1.0409 -2.0230
 6398SOL     OW22981   1.757   6.948   8.504  0.2129 -0.2879 -0.4026
 6398SOL    HW122982   1.733   6.918   8.592  0.4462 -0.6676 -0.4630
 6398SOL    HW222983   1.833   6.895   8.481 -0.7728 -1.3058 -1.4659
 6399SOL     OW22984   6.801   3.442   6.172 -0.5399  0.1750 -0.0276
 6399SOL    HW122985   6.751   3.421   6.094 -0.7815  1.5772 -0.2850
 6399SOL    HW222986   6.745   3.413   6.245 -0.0585 -1.6652 -0.3409
 6400SOL     OW22987   4.704   2.912   2.730  0.2584 -0.2427  0.2781
 6400SOL    HW122988   4.751   2.839   2.688 -0.9341 -1.1380  0.4461
 6400SOL    HW222989   4.657   2.871   2.803 -1.7866  0.3528 -0.6291
 6401SOL     OW22990   9.677   9.411   7.365 -0.7263  0.4557  0.3423
 6401SOL    HW122991   9.641   9.349   7.429 -0.4188 -1.3848 -1.1774
 6401SOL    HW222992   9.770   9.417   7.387 -0.9001  1.0369  0.9741
 6402SOL     OW22993   3.000   2.399   4.185  0.1472  0.0740 -0.3551
 6402SOL    HW122994   3.034   2.481   4.221  1.6682 -0.9790  0.7430
 6402SOL    HW222995   3.017   2.334   4.254 -1.0669 -1.1565 -1.1687
 6403SOL     OW22996   8.131   4.410   5.407  0.4710  0.1476 -0.1038
 6403SOL    HW122997   8.172   4.405   5.321  0.8930  0.1788  0.0914
 6403SOL    HW222998   8.075   4.487   5.402 -0.4175 -0.5216 -0.7294
 6404SOL     OW22999   8.708   1.539   1.493  0.2389  0.2708 -0.1275
 6404SOL    HW123000   8.780   1.511   1.549 -0.1156 -0.8245 -0.2044
 6404SOL    HW223001   8.671   1.458   1.459  1.5951  0.9089 -3.4767
 6405SOL     OW23002   8.278   3.987   4.546 -0.2476 -0.3093 -0.2558
 6405SOL    HW123003   8.274   3.913   4.485 -0.0719  1.4297 -2.5070
 6405SOL    HW223004   8.326   3.954   4.622  1.1085 -2.0882 -1.8216
 6406SOL     OW23005   8.650   6.000   4.473  0.0594  0.3572  0.2096
 6406SOL    HW123006   8.596   5.965   4.544  0.9624  0.6631  1.0660
 6406SOL    HW223007   8.617   5.956   4.394 -0.6550 -0.3348  0.8737
 6407SOL     OW23008   9.518   5.376   2.514  0.4980  0.2719 -0.9370
 6407SOL    HW123009   9.467   5.427   2.452 -0.3336  0.1808 -0.3465
 6407SOL    HW223010   9.548   5.440   2.579 -2.0030 -0.1545  0.7840
 6408SOL     OW23011   2.270   1.947   0.549 -0.1154  0.4309 -0.0588
 6408SOL    HW123012   2.353   1.987   0.526  0.2762 -0.4737 -0.2563
 6408SOL    HW223013   2.210   2.020   0.560  0.6540  1.0779 -0.1225
 6409SOL     OW23014   3.298   2.065   6.344 -0.6338 -0.0907 -0.6627
 6409SOL    HW123015   3.327   2.109   6.423  0.6641 -0.1912 -1.0722
 6409SOL    HW223016   3.240   2.129   6.301 -0.0773  0.5792 -0.4319
 6410SOL     OW23017   5.203   8.391   4.057 -0.0271 -0.1393 -0.1161
 6410SOL    HW123018   5.241   8.366   4.141  1.7837 -0.2629 -0.9263
 6410SOL    HW223019   5.167   8.310   4.022  0.3189 -0.3451 -0.0055
 6411SOL     OW23020   8.338   5.524   8.498  0.3763  0.0670  0.3114
 6411SOL    HW123021   8.263   5.573   8.530  0.3682  1.4452 -1.6650
 6411SOL    HW223022   8.302   5.463   8.434  0.9725  1.3829 -1.3560
 6412SOL     OW23023   8.305   0.779   4.335 -0.5228 -0.1717 -0.2490
 6412SOL    HW123024   8.348   0.775   4.420  0.1287 -2.5749 -0.6394
 6412SOL    HW223025   8.215   0.754   4.352 -0.2625 -1.2066 -0.3014
 6413SOL     OW23026   1.149   3.713   3.530  0.3472 -0.2779 -0.1641
 6413SOL    HW123027   1.187   3.783   3.477  2.5654 -1.6660 -0.5260
 6413SOL    HW223028   1.133   3.753   3.615  0.5532  0.9316 -0.6681
 6414SOL     OW23029   0.136   0.082   5.705  0.3074  0.3457  0.1257
 6414SOL    HW123030   0.117   0.006   5.651 -0.3334 -1.0242  2.1801
 6414SOL    HW223031   0.069   0.146   5.679 -1.5238 -1.1481  0.9083
 6415SOL     OW23032   2.980   0.081   1.411 -0.0821  0.1885 -0.2272
 6415SOL    HW123033   2.892   0.051   1.433  0.7823 -1.6114  1.0577
 6415SOL    HW223034   2.991   0.162   1.461  0.0928 -1.2900  2.3046
 6416SOL     OW23035   5.128   9.588   2.426  0.3756 -0.6353  0.0897
 6416SOL    HW123036   5.224   9.592   2.426  0.3652  0.9218  1.5834
 6416SOL    HW223037   5.106   9.535   2.502  0.0172 -2.0658 -0.9629
 6417SOL     OW23038   3.201   2.583   1.613  0.4198  0.4478 -0.1355
 6417SOL    HW123039   3.173   2.512   1.671 -1.7875  2.4079  1.4539
 6417SOL    HW223040   3.274   2.624   1.659 -0.9903  1.6755  1.1137
 6418SOL     OW23041   0.659  10.064   3.767 -0.2724  0.4744 -0.2112
 6418SOL    HW123042   0.655   9.971   3.788  1.1437  0.4851  0.1630
 6418SOL    HW223043   0.572  10.084   3.733 -0.9419 -0.7333  0.7171
 6419SOL     OW23044   1.169   0.625   1.967 -0.3900 -0.3958 -0.3577
 6419SOL    HW123045   1.130   0.711   1.984 -0.2106 -0.0879 -1.4450
 6419SOL    HW223046   1.177   0.620   1.872  0.3881 -1.2707 -0.2644
 6420SOL     OW23047   0.626   6.054   3.909  0.3332  0.2807 -0.0418
 6420SOL    HW123048   0.693   5.987   3.919  0.0303  0.0566  0.5460
 6420SOL    HW223049   0.649   6.100   3.828 -0.9836 -2.2472 -1.9805
 6421SOL     OW23050   0.614   6.603   4.060 -0.2789  0.7624 -0.6539
 6421SOL    HW123051   0.556   6.556   4.121 -1.4741  1.6697 -1.0496
 6421SOL    HW223052   0.696   6.611   4.108 -0.1032 -1.4217 -0.4493
 6422SOL     OW23053   3.341   5.094   9.768 -0.0268  0.5832  0.5952
 6422SOL    HW123054   3.356   5.133   9.682 -3.2711  0.3564 -0.2158
 6422SOL    HW223055   3.313   5.168   9.823 -0.3482  0.3645  0.7308
 6423SOL     OW23056   6.182   1.879   4.108  0.0302 -0.1183 -0.0059
 6423SOL    HW123057   6.218   1.791   4.097 -0.4184 -0.2305 -0.6041
 6423SOL    HW223058   6.090   1.864   4.131 -0.0679  0.1976 -0.1929
 6424SOL     OW23059   1.018   9.510  10.322 -0.3935  0.2194 -0.1902
 6424SOL    HW123060   0.936   9.526  10.370 -0.2840  0.6837 -0.1470
 6424SOL    HW223061   0.992   9.455  10.249 -0.6998  0.1430 -0.0282
 6425SOL     OW23062   6.055   3.769   3.439 -0.3898 -0.3109  0.5980
 6425SOL    HW123063   6.102   3.841   3.483  1.0862 -0.9516  0.1310
 6425SOL    HW223064   6.124   3.706   3.418 -1.1868 -0.4425 -1.8029
 6426SOL     OW23065   7.579   1.463   6.108 -0.2388 -0.1762 -0.4997
 6426SOL    HW123066   7.623   1.486   6.026 -0.3230 -0.3640 -0.5973
 6426SOL    HW223067   7.643   1.486   6.176 -0.0480 -0.3095 -0.6336
 6427SOL     OW23068   6.612  10.211   5.940 -0.3274 -0.6719 -0.0187
 6427SOL    HW123069   6.686  10.192   5.997 -0.8961 -0.0595  0.9577
 6427SOL    HW223070   6.595  10.304   5.953  0.7180 -0.0409 -2.6439
 6428SOL     OW23071   6.402   2.647  10.093 -0.0110 -0.2071 -0.4302
 6428SOL    HW123072   6.473   2.599  10.050 -0.0296  1.4891 -2.5262
 6428SOL    HW223073   6.379   2.716  10.031  0.5202  3.0399  2.6212
 6429SOL     OW23074   4.725   2.517   0.517 -0.4871  0.0650 -0.5936
 6429SOL    HW123075   4.820   2.516   0.505 -0.3946 -1.5065 -0.0240
 6429SOL    HW223076   4.700   2.609   0.508  1.1174  0.5322 -0.5306
 6430SOL     OW23077   6.923   8.621   7.702 -0.2144  0.5417  0.2343
 6430SOL    HW123078   6.972   8.541   7.683 -2.3886 -0.9016  0.3142
 6430SOL    HW223079   6.985   8.677   7.748  1.5871 -0.7914 -0.4364
 6431SOL     OW23080   5.725   3.598   6.739  0.0575 -0.0170 -0.2019
 6431SOL    HW123081   5.705   3.575   6.648 -0.5473 -1.4394  0.2645
 6431SOL    HW223082   5.678   3.533   6.791  1.3672  0.0299  1.1011
 6432SOL     OW23083   1.888   4.866   4.084 -0.3456 -0.1664  0.5179
 6432SOL    HW123084   1.807   4.905   4.052  0.7545  1.9259  0.1150
 6432SOL    HW223085   1.913   4.803   4.016 -0.6777  0.5036 -0.2366
 6433SOL     OW23086   4.614   6.034   4.802  0.7307  0.5316 -0.1762
 6433SOL    HW123087   4.627   5.939   4.800 -0.6176  0.3181 -0.0513
 6433SOL    HW223088   4.614   6.060   4.710  1.7330  0.5211 -0.1898
 6434SOL     OW23089   7.196   5.432   7.747 -0.4229 -0.5608  0.1095
 6434SOL    HW123090   7.235   5.519   7.758  0.9465 -1.4687  3.8047
 6434SOL    HW223091   7.102   5.448   7.743 -0.1594  1.1281 -0.0623
 6435SOL     OW23092  10.303   0.371   3.177 -0.6412  0.6691 -0.0802
 6435SOL    HW123093  10.315   0.465   3.160 -1.0159  0.7460  0.0596
 6435SOL    HW223094  10.367   0.351   3.245  0.2109  0.5706 -0.8829
 6436SOL     OW23095  10.291   4.675   2.962 -0.3211  0.1843 -0.1883
 6436SOL    HW123096  10.262   4.639   3.046 -0.2283  2.2757  0.8087
 6436SOL    HW223097  10.370   4.626   2.941 -0.2847 -0.3163  1.0166
 6437SOL     OW23098   0.806  10.083   8.863 -0.0612 -0.4910 -0.2050
 6437SOL    HW123099   0.856  10.149   8.912 -0.2320  0.3018 -1.0530
 6437SOL    HW223100   0.731  10.063   8.919 -0.3329  0.5046 -0.1829
 6438SOL     OW23101   6.389   0.747   8.457 -0.2110 -0.0090  0.5107
 6438SOL    HW123102   6.430   0.697   8.386 -0.0935  0.4886  0.2297
 6438SOL    HW223103   6.427   0.710   8.537  0.4926  0.1846  0.2701
 6439SOL     OW23104   8.265   2.606   6.634  0.5911 -0.4789  0.0532
 6439SOL    HW123105   8.202   2.658   6.683  1.5622  1.0048 -0.1963
 6439SOL    HW223106   8.317   2.562   6.702 -0.2171 -1.1441  0.2656
 6440SOL     OW23107   5.570   0.873   2.005  0.3618  0.0842  0.3289
 6440SOL    HW123108   5.527   0.878   2.090 -0.8935  2.7663 -0.3360
 6440SOL    HW223109   5.631   0.947   2.004  2.2057 -1.3770 -0.2213
 6441SOL     OW23110   8.646   9.563   2.915 -0.0880 -0.2076 -0.2996
 6441SOL    HW123111   8.585   9.631   2.885  1.9152  0.9810 -1.9453
 6441SOL    HW223112   8.645   9.572   3.010 -3.2804 -1.0454 -0.1382
 6442SOL     OW23113   6.085   2.909   6.864 -0.5228 -0.1806 -0.1287
 6442SOL    HW123114   6.016   2.862   6.910 -1.4848  1.5092  0.2319
 6442SOL    HW223115   6.150   2.929   6.932 -0.8312  0.3070  0.0232
 6443SOL     OW23116   4.789   2.623   9.003  0.6999 -0.4150 -0.2570
 6443SOL    HW123117   4.721   2.682   9.035  2.2900  2.1174 -1.1839
 6443SOL    HW223118   4.796   2.556   9.071 -1.6126  0.0938  0.5861
 6444SOL     OW23119   1.675   5.363   0.161 -0.0643 -0.5230 -0.1969
 6444SOL    HW123120   1.646   5.298   0.226 -0.1011 -0.5643 -0.2545
 6444SOL    HW223121   1.598   5.417   0.146 -0.4163 -1.2508 -1.0971
 6445SOL     OW23122   2.107   3.555   9.290 -0.6490  0.1806  0.6301
 6445SOL    HW123123   2.093   3.648   9.309 -1.2535 -0.3622  3.3813
 6445SOL    HW223124   2.180   3.529   9.346 -1.9338 -1.4390  1.6854
 6446SOL     OW23125   9.096   5.467   2.477  0.1042  0.8338 -0.4089
 6446SOL    HW123126   9.045   5.451   2.397 -0.6661  0.6493  0.1156
 6446SOL    HW223127   9.135   5.553   2.463 -0.2520  0.9290 -0.8643
 6447SOL     OW23128   5.048   6.439   2.273  0.2015  0.4100 -0.5073
 6447SOL    HW123129   5.139   6.417   2.293  0.5523  2.1848  0.0094
 6447SOL    HW223130   5.050   6.532   2.250 -1.2903  0.1559 -1.8607
 6448SOL     OW23131   2.292   7.807   2.643 -0.1664  0.1353 -0.3564
 6448SOL    HW123132   2.366   7.835   2.589  1.0821 -1.0044  0.6921
 6448SOL    HW223133   2.262   7.887   2.686  2.3313  0.2015  1.4045
 6449SOL     OW23134   0.542   8.767  10.227 -0.1717  0.0106  0.1966
 6449SOL    HW123135   0.503   8.724  10.151  3.1509 -0.0176 -1.6686
 6449SOL    HW223136   0.519   8.711  10.301 -2.1568 -0.8427 -0.9915
 6450SOL     OW23137   1.441   4.982  10.234 -0.2066  0.2270 -0.4204
 6450SOL    HW123138   1.408   5.062  10.193  0.4964  0.7227 -0.0445
 6450SOL    HW223139   1.536   4.992  10.234 -0.0867 -0.7991 -0.7298
 6451SOL     OW23140   6.961   8.459   7.176  0.2036  0.0886 -0.3437
 6451SOL    HW123141   6.927   8.369   7.176  0.8853 -0.2436 -2.5448
 6451SOL    HW223142   6.956   8.487   7.267 -0.7497 -1.9087  0.2754
 6452SOL     OW23143   0.898   4.546   5.483  0.0862  0.2112  0.3598
 6452SOL    HW123144   0.973   4.575   5.535 -1.2326  1.2019  1.8606
 6452SOL    HW223145   0.827   4.604   5.512 -1.0651 -0.1658 -1.5719
 6453SOL     OW23146   1.060   9.507   9.369 -0.3826 -0.1606 -0.7608
 6453SOL    HW123147   1.072   9.596   9.401 -0.5511 -0.8732  1.3904
 6453SOL    HW223148   1.146   9.466   9.378 -0.4883 -0.4526 -1.0537
 6454SOL     OW23149   1.281   3.286   4.805  0.2405 -0.5326 -0.4624
 6454SOL    HW123150   1.376   3.298   4.808  0.1314  0.1599  0.8989
 6454SOL    HW223151   1.248   3.338   4.878 -1.1531 -1.1128 -0.6526
 6455SOL     OW23152   2.626   6.488   1.163  0.1532  0.6681 -0.1176
 6455SOL    HW123153   2.632   6.448   1.077 -1.3862 -0.3839  0.2155
 6455SOL    HW223154   2.556   6.553   1.155 -2.8261 -2.1117  1.1988
 6456SOL     OW23155  10.119   7.202   4.796  0.6259  0.0808  0.5397
 6456SOL    HW123156  10.138   7.127   4.739  0.4989 -0.6011  1.3724
 6456SOL    HW223157  10.028   7.223   4.779  0.8601  0.5150 -0.2214
 6457SOL     OW23158   9.075   5.249   3.325  0.2517 -0.6232  0.1086
 6457SOL    HW123159   9.068   5.234   3.419 -1.2919  1.9007  0.4840
 6457SOL    HW223160   9.028   5.176   3.285 -0.8660 -0.6461  1.4194
 6458SOL     OW23161   7.836   9.806   2.810 -0.0117  0.4283 -0.0566
 6458SOL    HW123162   7.777   9.876   2.782  0.5524  0.4236 -1.3254
 6458SOL    HW223163   7.918   9.824   2.765  0.0367 -1.2610 -0.7499
 6459SOL     OW23164   3.192   0.649   3.744 -0.3282  0.2689  0.3364
 6459SOL    HW123165   3.137   0.724   3.720 -1.0828 -0.4533 -0.2705
 6459SOL    HW223166   3.154   0.616   3.825 -0.3875  0.1714  0.2698
 6460SOL     OW23167   9.511  10.313   5.314 -0.3076 -0.0106 -0.0275
 6460SOL    HW123168   9.600  10.286   5.293  1.1770  1.7893  3.2610
 6460SOL    HW223169   9.459  10.233   5.308  1.9780 -1.5820  0.2049
 6461SOL     OW23170   9.931   4.361   8.307  0.3380 -0.6198  0.2937
 6461SOL    HW123171   9.926   4.379   8.401 -0.4035  0.7028  0.0310
 6461SOL    HW223172   9.840   4.356   8.279  0.5112  0.9317 -0.6695
 6462SOL     OW23173   2.947  10.355   9.721  0.0260 -0.2733  0.2733
 6462SOL    HW123174   2.977  10.294   9.654  1.7443 -1.2753  1.8527
 6462SOL    HW223175   2.981  10.440   9.693  0.7297 -0.6822 -0.1590
 6463SOL     OW23176   7.871   6.896   4.981 -0.2342  0.9879 -0.5751
 6463SOL    HW123177   7.949   6.907   5.035  0.4631  1.2899 -1.6179
 6463SOL    HW223178   7.904   6.865   4.896 -1.5074 -2.1065 -0.0775
 6464SOL     OW23179   0.242   3.767   5.704  0.2230 -0.0388 -0.5811
 6464SOL    HW123180   0.190   3.731   5.632  0.9130 -0.3921 -0.9152
 6464SOL    HW223181   0.181   3.825   5.751 -0.1166  0.5819 -1.7265
 6465SOL     OW23182   9.321   9.898   6.643 -0.3132 -0.9153 -0.3550
 6465SOL    HW123183   9.417   9.898   6.638 -0.3773 -0.3911 -2.7174
 6465SOL    HW223184   9.296   9.990   6.631 -1.1166 -0.8485  1.4924
 6466SOL     OW23185   2.304   6.789   4.861 -0.5421 -0.2740  0.0234
 6466SOL    HW123186   2.355   6.723   4.909  0.0020 -0.4858 -0.8254
 6466SOL    HW223187   2.251   6.738   4.800  0.3839  0.0772 -1.1229
 6467SOL     OW23188   7.018   7.043   9.898 -0.4550 -0.0843  0.0903
 6467SOL    HW123189   6.974   7.072   9.818  0.0837  1.9135  0.4739
 6467SOL    HW223190   6.947   7.033   9.962 -0.8257 -1.1700 -0.4687
 6468SOL     OW23191   8.448   8.900   2.579 -0.0031 -0.3210  0.0556
 6468SOL    HW123192   8.365   8.944   2.600 -0.0522 -0.6856  0.6553
 6468SOL    HW223193   8.489   8.956   2.513 -1.2548 -0.7140 -1.1195
 6469SOL     OW23194   0.666   6.364   6.885  0.3101 -0.5976  0.3424
 6469SOL    HW123195   0.608   6.416   6.940  0.5202  0.1303 -0.1178
 6469SOL    HW223196   0.652   6.274   6.914 -2.3283 -0.6722 -0.8601
 6470SOL     OW23197   7.947   0.452   5.731 -0.1425  0.3413  0.1743
 6470SOL    HW123198   8.030   0.411   5.755 -0.9467 -0.6374  1.4133
 6470SOL    HW223199   7.887   0.427   5.801 -1.4136  1.2656 -0.5507
 6471SOL     OW23200   6.686   5.916   7.762  0.2506  0.6208  0.2499
 6471SOL    HW123201   6.663   5.911   7.670 -0.2315  3.0146  0.1731
 6471SOL    HW223202   6.608   5.885   7.808 -0.1626  1.0837 -0.1306
 6472SOL     OW23203   4.247   7.462   8.379  0.2521  0.1661 -0.3017
 6472SOL    HW123204   4.264   7.404   8.305  0.5913 -0.4780  0.2628
 6472SOL    HW223205   4.154   7.484   8.372  0.9361  2.7779 -2.7671
 6473SOL     OW23206   2.898   8.222   4.291 -0.0449 -0.0360 -0.3896
 6473SOL    HW123207   2.970   8.285   4.286  1.2564 -1.2185  1.6751
 6473SOL    HW223208   2.934   8.141   4.254 -0.5897 -0.4048 -0.1262
 6474SOL     OW23209   3.063   2.417   1.844  0.1007 -0.0323  0.0904
 6474SOL    HW123210   3.022   2.495   1.881 -0.3140 -0.1105 -0.1981
 6474SOL    HW223211   2.993   2.351   1.844  0.5254 -0.4895  0.6018
 6475SOL     OW23212   5.351   7.325   0.777  0.0497 -0.4274 -0.1622
 6475SOL    HW123213   5.311   7.410   0.794 -0.3256 -0.7402  0.5573
 6475SOL    HW223214   5.292   7.283   0.715 -0.6174 -0.7773  0.6860
 6476SOL     OW23215   9.389   2.648   9.392  0.0454  0.7196  0.2628
 6476SOL    HW123216   9.414   2.614   9.306  0.1600  0.8137  0.2573
 6476SOL    HW223217   9.308   2.696   9.377 -0.1614  0.3734  0.2880
 6477SOL     OW23218   2.373   8.757   6.888 -0.2198  0.1840  0.6760
 6477SOL    HW123219   2.355   8.824   6.822 -0.7025 -0.8871 -0.3249
 6477SOL    HW223220   2.387   8.805   6.969 -1.8636  1.4134  0.2703
 6478SOL     OW23221   3.802   8.442   1.994  0.8171  0.0498  0.5658
 6478SOL    HW123222   3.728   8.443   1.933  2.6727 -0.2597 -1.8368
 6478SOL    HW223223   3.846   8.526   1.978  0.7669  0.4489  2.3275
 6479SOL     OW23224   8.766   1.906   5.844  0.3061  0.4173  0.2620
 6479SOL    HW123225   8.846   1.871   5.805  0.3286 -0.8109  1.3219
 6479SOL    HW223226   8.731   1.966   5.778  0.4486 -1.3960 -1.5655
 6480SOL     OW23227  10.310   6.108   3.845 -0.2932  0.1343 -0.4303
 6480SOL    HW123228  10.329   6.025   3.800 -0.0095  0.3272 -0.6651
 6480SOL    HW223229  10.371   6.109   3.919  0.6986  0.8024 -1.2427
 6481SOL     OW23230   9.394   0.210   5.906 -0.0707  0.5247  0.1019
 6481SOL    HW123231   9.414   0.290   5.956 -1.2073  0.7260  0.2718
 6481SOL    HW223232   9.420   0.138   5.963  0.9143  0.7632 -0.0304
 6482SOL     OW23233   0.164   2.332   2.134  0.4043  0.5708 -0.1638
 6482SOL    HW123234   0.072   2.319   2.110  0.0375  0.1077  1.3915
 6482SOL    HW223235   0.181   2.266   2.201  2.0242  0.3326 -0.7689
 6483SOL     OW23236   1.361   4.713   4.309  0.9402 -0.0398 -0.8815
 6483SOL    HW123237   1.402   4.798   4.327 -0.1923  0.0873  1.4698
 6483SOL    HW223238   1.267   4.729   4.321  0.7940 -1.8519  0.9257
 6484SOL     OW23239   2.949   8.974   5.241  0.2732 -0.1276  0.0210
 6484SOL    HW123240   2.994   9.059   5.241  0.5767 -0.2687 -1.2977
 6484SOL    HW223241   2.927   8.959   5.149 -0.0376 -1.3460  0.2859
 6485SOL     OW23242   8.079   9.326   1.099 -0.7824 -0.1818  0.0934
 6485SOL    HW123243   8.082   9.338   1.004 -1.8922 -0.9538 -0.0605
 6485SOL    HW223244   8.165   9.289   1.121  0.1627  1.6605 -0.3220
 6486SOL     OW23245   5.825   7.842   3.763  0.2295 -0.2207 -0.4114
 6486SOL    HW123246   5.802   7.790   3.840 -0.4442 -0.6966 -0.9230
 6486SOL    HW223247   5.920   7.831   3.754  0.2472 -0.5092  0.0897
 6487SOL     OW23248  10.328   1.106   8.623 -0.1360 -0.4633  0.4719
 6487SOL    HW123249  10.318   1.201   8.616 -0.8268 -0.5565  0.0764
 6487SOL    HW223250  10.375   1.081   8.543 -0.6835 -0.5421  0.1648
 6488SOL     OW23251   5.885   0.304   3.441  0.2013  0.2261  0.1027
 6488SOL    HW123252   5.911   0.323   3.531 -1.5426 -1.9344  1.1853
 6488SOL    HW223253   5.814   0.366   3.423 -0.8209 -0.6199  1.0331
 6489SOL     OW23254   8.056   4.048   0.743 -0.0601  0.7101 -0.7293
 6489SOL    HW123255   8.070   4.140   0.765  2.2202  0.2339  0.0497
 6489SOL    HW223256   8.121   4.029   0.675 -0.0871 -0.4534 -0.4531
 6490SOL     OW23257   0.345   3.029   0.171 -0.4483  0.2856  0.4489
 6490SOL    HW123258   0.263   2.986   0.196 -1.0937  0.1665 -1.6536
 6490SOL    HW223259   0.340   3.036   0.076 -0.2773  4.7434  0.5194
 6491SOL     OW23260   2.420   0.214   6.558 -0.2964  0.2002  0.0298
 6491SOL    HW123261   2.339   0.204   6.607  0.7297 -0.7215  1.6129
 6491SOL    HW223262   2.445   0.125   6.534  0.5264  0.4206  0.0347
 6492SOL     OW23263   3.459   8.337   8.883  0.3342 -0.7456  0.1406
 6492SOL    HW123264   3.427   8.286   8.958 -0.0464 -3.5287 -1.7588
 6492SOL    HW223265   3.388   8.331   8.819  1.5711 -0.3884 -1.2931
 6493SOL     OW23266   1.827   5.674   7.515 -0.6518  0.1561  0.6939
 6493SOL    HW123267   1.829   5.614   7.440 -0.6326  0.9253  0.0619
 6493SOL    HW223268   1.814   5.761   7.475 -1.0133  0.5295  1.6121
 6494SOL     OW23269   0.306   6.092   7.663 -0.0226 -0.3411  0.0431
 6494SOL    HW123270   0.330   6.007   7.701 -0.4032  0.0092  1.0765
 6494SOL    HW223271   0.336   6.086   7.572 -2.1078 -2.4689 -0.6029
 6495SOL     OW23272   9.354   3.432   2.629 -0.2040 -0.2047 -0.2598
 6495SOL    HW123273   9.402   3.407   2.550 -0.5930 -0.6722 -0.3545
 6495SOL    HW223274   9.269   3.389   2.620 -0.4724  0.2433  0.1232
 6496SOL     OW23275   0.049   9.872   4.181  0.2564 -0.0551 -0.3599
 6496SOL    HW123276  -0.018   9.862   4.114  1.0327 -1.1503 -0.9967
 6496SOL    HW223277   0.024   9.809   4.249 -0.4061  0.8959  0.2988
 6497SOL     OW23278   9.935   6.193   3.794  0.1316 -0.5312 -0.3013
 6497SOL    HW123279   9.849   6.156   3.772  0.9954 -2.1251 -1.1664
 6497SOL    HW223280   9.997   6.122   3.777  1.4548 -0.1101  2.2393
 6498SOL     OW23281   9.133   5.131   9.546  0.0686 -0.4919  0.1010
 6498SOL    HW123282   9.103   5.060   9.490  0.3799 -1.6293  1.3204
 6498SOL    HW223283   9.220   5.104   9.576  2.3262  2.4987 -2.9638
 6499SOL     OW23284   9.562   0.577   7.177 -0.0741 -0.3328 -0.1611
 6499SOL    HW123285   9.622   0.550   7.246 -0.6842  0.9861  0.9274
 6499SOL    HW223286   9.617   0.625   7.115  0.1421  0.2353  0.4545
 6500SOL     OW23287   8.664   4.864   5.362  0.5411  0.0410  0.5784
 6500SOL    HW123288   8.670   4.894   5.271  0.0888  0.1094  0.5717
 6500SOL    HW223289   8.750   4.886   5.399  0.6476  0.2229  0.2327
 6501SOL     OW23290  10.051   0.629   3.942 -0.4102  0.5116  0.0582
 6501SOL    HW123291  10.042   0.605   4.034 -1.2120  0.9978  0.1209
 6501SOL    HW223292  10.043   0.725   3.942  0.2472  0.5686 -0.4415
 6502SOL     OW23293   8.268   9.276   8.936 -0.2177  0.0972 -0.0329
 6502SOL    HW123294   8.219   9.263   8.855 -0.6463  1.7907 -0.0875
 6502SOL    HW223295   8.358   9.253   8.913 -0.8020 -2.3258 -0.1310
 6503SOL     OW23296   4.624   1.962   5.968 -0.5194  0.7361 -0.4367
 6503SOL    HW123297   4.700   1.952   6.025  0.5694 -0.1279 -1.9625
 6503SOL    HW223298   4.579   1.878   5.973 -1.7414  1.4193  0.8840
 6504SOL     OW23299   6.572   5.581   3.289 -0.5263  0.1930 -0.2240
 6504SOL    HW123300   6.662   5.555   3.307 -0.7111  0.2051  0.7653
 6504SOL    HW223301   6.522   5.549   3.364 -1.6098 -1.1423 -1.4401
 6505SOL     OW23302   2.807   6.127   6.206 -0.3243  0.1419 -0.1299
 6505SOL    HW123303   2.851   6.134   6.291  1.1959  0.3182 -0.8968
 6505SOL    HW223304   2.761   6.043   6.209 -0.4276  0.2253  0.9179
 6506SOL     OW23305   4.762   3.921   0.738 -0.0966  0.0212  0.5490
 6506SOL    HW123306   4.686   3.979   0.731 -1.4214 -1.6958 -0.4826
 6506SOL    HW223307   4.726   3.834   0.720  1.7582 -1.1459  2.1367
 6507SOL     OW23308   1.932   6.766   6.452 -0.0278  0.5526 -0.1034
 6507SOL    HW123309   1.912   6.679   6.486  3.7532 -0.1499  0.8042
 6507SOL    HW223310   1.910   6.761   6.359 -1.8434 -0.5857  0.3343
 6508SOL     OW23311   3.502   1.030   1.155 -0.1252 -0.2008 -0.3679
 6508SOL    HW123312   3.475   1.110   1.110  0.3751 -0.6907 -1.5973
 6508SOL    HW223313   3.421   0.982   1.170 -0.5191  0.8618  1.0810
 6509SOL     OW23314   2.718   1.964   4.977 -0.0599  0.0707 -0.2846
 6509SOL    HW123315   2.669   1.911   4.915 -0.5575  0.7812 -0.5028
 6509SOL    HW223316   2.785   1.905   5.012 -1.2695 -1.0093  0.2672
 6510SOL     OW23317   3.074   1.020   2.664  0.1433 -0.3601  0.6025
 6510SOL    HW123318   3.124   0.953   2.710 -0.2256  0.0210  1.5897
 6510SOL    HW223319   2.988   1.018   2.706 -0.3599 -0.3058 -0.3864
 6511SOL     OW23320   9.407   9.556   3.562  0.0500  0.3700  0.4866
 6511SOL    HW123321   9.468   9.484   3.579 -0.2661 -0.1385 -0.4713
 6511SOL    HW223322   9.321   9.513   3.556 -0.0302  0.6935 -0.9925
 6512SOL     OW23323   2.574   2.881   5.424 -0.2914 -0.1417  0.3648
 6512SOL    HW123324   2.526   2.875   5.342  0.2488  1.1131 -0.0565
 6512SOL    HW223325   2.506   2.881   5.492 -1.0797  3.0806 -0.2651
 6513SOL     OW23326  10.188   8.948  10.192 -0.2516  0.0717 -0.2105
 6513SOL    HW123327  10.170   8.892  10.267 -1.0169 -0.0368 -0.4643
 6513SOL    HW223328  10.249   9.014  10.225  1.7437 -1.6427 -0.2299
 6514SOL     OW23329   8.295   9.348   9.576 -0.0736 -0.4076  0.8551
 6514SOL    HW123330   8.213   9.369   9.621  0.6471  0.3249  1.8668
 6514SOL    HW223331   8.268   9.329   9.486 -1.4379 -0.9599  1.3501
 6515SOL     OW23332   1.379   8.785   0.539 -0.1299 -0.4015  0.3335
 6515SOL    HW123333   1.374   8.762   0.446  0.6072 -0.1466  0.2262
 6515SOL    HW223334   1.320   8.861   0.548 -0.5040 -0.6689  0.1558
 6516SOL     OW23335   9.912   0.251   6.940 -0.1034  0.4024  0.2153
 6516SOL    HW123336   9.862   0.283   6.865 -0.4770 -0.7340 -0.0367
 6516SOL    HW223337   9.889   0.158   6.947 -0.7360  0.6490  2.2380
 6517SOL     OW23338   3.542   6.295   8.929 -0.1034  0.0400 -0.2486
 6517SOL    HW123339   3.454   6.334   8.920 -0.3504 -0.4202  0.1244
 6517SOL    HW223340   3.541   6.219   8.871 -0.1626 -0.3199  0.2190
 6518SOL     OW23341   2.994   7.189   3.065 -0.5393  0.0226  0.1928
 6518SOL    HW123342   3.010   7.153   2.977  0.4074 -0.5068  0.5611
 6518SOL    HW223343   3.071   7.244   3.082 -0.2868 -0.5733  1.0338
 6519SOL     OW23344   6.486   3.413   1.678  0.6180  0.0158 -0.0932
 6519SOL    HW123345   6.470   3.321   1.660  1.9298 -0.4360  0.9476
 6519SOL    HW223346   6.441   3.430   1.761 -3.2132  1.4484 -2.2003
 6520SOL     OW23347   8.454   0.187   7.316  0.1253  0.1169 -0.1277
 6520SOL    HW123348   8.474   0.153   7.404  0.6560 -0.0343 -0.3044
 6520SOL    HW223349   8.518   0.257   7.303 -0.0796  0.2680 -0.3217
 6521SOL     OW23350   2.308   9.419   3.381 -1.0760 -0.2471 -0.2661
 6521SOL    HW123351   2.215   9.437   3.367 -1.0312  0.0595 -0.1741
 6521SOL    HW223352   2.310   9.360   3.456 -1.2231 -0.6508 -0.5692
 6522SOL     OW23353   7.791   8.060   8.035 -0.4300 -0.3082  0.1894
 6522SOL    HW123354   7.766   8.146   7.999  0.0676 -0.0344  0.4888
 6522SOL    HW223355   7.795   8.075   8.130  0.7276 -0.3740  0.1661
 6523SOL     OW23356   4.134   8.651   2.248 -0.2316 -0.1922  0.3320
 6523SOL    HW123357   4.097   8.573   2.291  1.4179 -1.1007  0.1583
 6523SOL    HW223358   4.077   8.665   2.172 -0.0292 -1.7970 -0.1572
 6524SOL     OW23359   1.084   8.379   4.139 -0.5874  0.6303  0.4216
 6524SOL    HW123360   1.087   8.466   4.180 -0.9562  0.5326  0.6593
 6524SOL    HW223361   1.003   8.380   4.088  0.8786  1.5464 -2.1100
 6525SOL     OW23362   6.358   8.880   7.586 -0.2030  0.9029  0.1555
 6525SOL    HW123363   6.388   8.793   7.612 -0.1777  1.5250  2.4115
 6525SOL    HW223364   6.317   8.867   7.501  0.5144 -1.1598  0.0779
 6526SOL     OW23365   8.340   6.496   9.382 -0.1359  0.1717  0.3502
 6526SOL    HW123366   8.308   6.570   9.330 -1.2782 -0.5753 -0.0463
 6526SOL    HW223367   8.422   6.470   9.338 -0.0266  0.8285  0.1559
 6527SOL     OW23368   4.712   9.093   0.967  0.3623  0.2771  0.2425
 6527SOL    HW123369   4.704   9.071   0.874  0.0456  0.7748  0.1491
 6527SOL    HW223370   4.712   9.008   1.012 -1.0795  0.0824 -0.0911
 6528SOL     OW23371   9.128   1.743   4.598 -0.3583  0.7940  1.2265
 6528SOL    HW123372   9.195   1.675   4.610  0.8528  0.8847 -3.1293
 6528SOL    HW223373   9.049   1.705   4.635  0.8693 -1.8785  1.3528
 6529SOL     OW23374   8.589   2.285   4.522 -0.1472  0.2718 -0.1002
 6529SOL    HW123375   8.658   2.242   4.574 -0.1473  2.2508  1.6863
 6529SOL    HW223376   8.587   2.237   4.440  3.7073  0.3807 -0.4425
 6530SOL     OW23377   7.045   7.536   0.626 -0.3707  0.0002  0.2167
 6530SOL    HW123378   7.098   7.611   0.599 -1.9067  1.8715  2.0869
 6530SOL    HW223379   6.967   7.540   0.572 -0.9583  0.4380  1.0840
 6531SOL     OW23380   1.762   6.293   6.176  0.7293 -0.0597 -0.2444
 6531SOL    HW123381   1.783   6.200   6.167 -0.7974 -0.3873 -0.7452
 6531SOL    HW223382   1.695   6.295   6.244  0.1922  0.5899 -0.7890
 6532SOL     OW23383   8.953   9.827   8.434 -0.3021  0.4063  0.1988
 6532SOL    HW123384   9.018   9.865   8.375 -1.3761  4.3856  1.2810
 6532SOL    HW223385   9.001   9.810   8.515 -0.1383  1.3379  0.3088
 6533SOL     OW23386   4.849   5.660   9.130  0.1389 -0.1984  0.0433
 6533SOL    HW123387   4.884   5.591   9.074 -1.3099 -0.3295 -0.7615
 6533SOL    HW223388   4.846   5.621   9.217 -2.0275 -1.7850 -0.6206
 6534SOL     OW23389   6.614   5.635   4.566 -0.6225 -0.1418  0.3564
 6534SOL    HW123390   6.596   5.624   4.659 -0.5489 -1.4294  0.2369
 6534SOL    HW223391   6.607   5.546   4.530 -0.1301  0.2655 -0.7716
 6535SOL     OW23392   8.040   7.244   5.327  0.2290 -0.2031 -0.2799
 6535SOL    HW123393   8.111   7.304   5.348  0.6090 -0.8677  0.4292
 6535SOL    HW223394   8.028   7.252   5.233  1.9968 -0.8704 -0.5965
 6536SOL     OW23395   9.843   2.573   0.346  0.2218 -0.6497  0.0380
 6536SOL    HW123396   9.792   2.530   0.277  0.6828 -0.1508 -0.6434
 6536SOL    HW223397   9.850   2.664   0.316  2.6817 -0.9801 -0.6270
 6537SOL     OW23398   0.271   4.562   6.842  0.1627 -0.1191  0.5405
 6537SOL    HW123399   0.239   4.598   6.759  2.6609  2.8142  0.6812
 6537SOL    HW223400   0.208   4.493   6.863 -1.5841  0.1921 -2.8640
 6538SOL     OW23401  10.153   5.865   8.283  0.1753  0.2111 -0.0269
 6538SOL    HW123402  10.094   5.866   8.208  0.5200 -0.7986 -0.3292
 6538SOL    HW223403  10.229   5.915   8.255 -0.5309  1.5501  0.3772
 6539SOL     OW23404   3.992   0.385   1.563 -0.1588 -0.3917  0.0090
 6539SOL    HW123405   3.944   0.346   1.636  0.0449  1.2104  1.0359
 6539SOL    HW223406   3.924   0.409   1.500 -0.5267 -0.1110  0.5017
 6540SOL     OW23407   2.908   6.830   3.176  0.4281  0.3667  0.2611
 6540SOL    HW123408   2.974   6.781   3.225  0.5753  0.0592 -0.2249
 6540SOL    HW223409   2.900   6.781   3.093 -1.3971 -0.4042  0.8425
 6541SOL     OW23410   7.902   6.306  10.107 -0.5517  0.1715  0.4201
 6541SOL    HW123411   7.907   6.296  10.012 -1.2578  1.6425  0.2021
 6541SOL    HW223412   7.982   6.354  10.130 -0.5291  0.0793  0.5360
 6542SOL     OW23413   0.003   4.676   7.177  0.3992  0.3253  0.9716
 6542SOL    HW123414  -0.026   4.591   7.210  1.2463  0.1601  1.3188
 6542SOL    HW223415   0.087   4.658   7.135  1.2002  1.1822  2.1399
 6543SOL     OW23416   3.825   1.070  10.227  0.0796 -0.6364 -0.2207
 6543SOL    HW123417   3.900   1.056  10.285  0.4662  1.5063 -0.1184
 6543SOL    HW223418   3.751   1.082  10.287 -0.5526 -3.3388 -0.3270
 6544SOL     OW23419   0.887   0.678  10.216  0.2560  0.1527 -0.6663
 6544SOL    HW123420   0.878   0.590  10.180 -0.6392 -0.0903  0.1352
 6544SOL    HW223421   0.798   0.705  10.239  0.5698  1.0976 -0.5088
 6545SOL     OW23422   6.354   0.486   4.028  0.5703  0.0844  0.0474
 6545SOL    HW123423   6.375   0.465   3.937 -1.9195 -0.2640 -0.5063
 6545SOL    HW223424   6.355   0.581   4.032 -0.6405  0.1473 -0.7218
 6546SOL     OW23425   1.215   3.819   5.402  0.5575  0.2415 -0.2772
 6546SOL    HW123426   1.143   3.762   5.374 -0.9551  1.4833  0.8977
 6546SOL    HW223427   1.240   3.867   5.323  1.1891 -1.2827 -1.0527
 6547SOL     OW23428   8.689   2.538   4.169 -0.7422  0.1202 -0.0904
 6547SOL    HW123429   8.631   2.552   4.094 -2.3396  1.4833  1.3081
 6547SOL    HW223430   8.689   2.444   4.182 -0.2145 -0.1819 -1.9138
 6548SOL     OW23431   8.011   4.376   9.118  0.1770 -0.1630  0.3711
 6548SOL    HW123432   7.946   4.334   9.062  1.2299 -2.5046  0.8018
 6548SOL    HW223433   7.970   4.380   9.204 -0.0252 -0.0873  0.2703
 6549SOL     OW23434   7.918   8.672   0.517  0.2128  0.5896  0.2025
 6549SOL    HW123435   7.968   8.655   0.597 -1.9533 -0.5476  1.4079
 6549SOL    HW223436   7.942   8.599   0.459 -0.8492 -0.6373  1.2290
 6550SOL     OW23437   7.161   8.528   2.265 -0.2009 -0.4774  0.3962
 6550SOL    HW123438   7.182   8.453   2.210 -0.0631  0.7645 -1.2973
 6550SOL    HW223439   7.230   8.529   2.332 -0.1300 -1.7513  0.3662
 6551SOL     OW23440   7.694   4.154   1.529 -0.2683  0.3644 -0.2995
 6551SOL    HW123441   7.761   4.222   1.532  0.2202 -0.1330  0.3246
 6551SOL    HW223442   7.682   4.135   1.436  2.1414 -1.1533 -0.3953
 6552SOL     OW23443   4.667   9.622   2.743 -0.0697  0.3706 -0.3190
 6552SOL    HW123444   4.754   9.589   2.723  0.9647  0.8375  2.9242
 6552SOL    HW223445   4.645   9.679   2.669  2.2051  0.0119 -1.3409
 6553SOL     OW23446   7.837   1.148   7.411  0.2756 -0.0491 -0.2300
 6553SOL    HW123447   7.750   1.108   7.417  0.8512 -1.2874  0.2179
 6553SOL    HW223448   7.879   1.103   7.338  2.0536 -2.6612  2.1741
 6554SOL     OW23449  10.288   4.935   7.186 -0.0701 -0.0411 -0.3750
 6554SOL    HW123450  10.314   4.844   7.173 -0.3087 -0.0810 -0.5882
 6554SOL    HW223451  10.362   4.987   7.156 -0.2734 -0.1488 -1.0913
 6555SOL     OW23452   2.221   5.041   6.848  0.2156  0.2098 -0.1579
 6555SOL    HW123453   2.166   5.006   6.778 -1.7300  0.8494  0.9564
 6555SOL    HW223454   2.263   4.964   6.886 -3.3746 -1.0357  1.7512
 6556SOL     OW23455   5.825   4.211   3.066 -0.0161 -0.3283 -0.7592
 6556SOL    HW123456   5.910   4.249   3.087  0.1834 -0.4984 -1.2333
 6556SOL    HW223457   5.842   4.153   2.992 -0.2002 -1.8227  0.3247
 6557SOL     OW23458   6.451   4.251   6.457  0.0886 -0.2693  0.4353
 6557SOL    HW123459   6.413   4.199   6.386 -1.0596  0.5548  0.4239
 6557SOL    HW223460   6.546   4.236   6.449  0.5122  2.7376 -3.8145
 6558SOL     OW23461   8.739   8.419   0.099  0.0106 -0.1475  0.0889
 6558SOL    HW123462   8.773   8.504   0.126 -1.5748  0.6138 -0.1701
 6558SOL    HW223463   8.658   8.408   0.150 -0.1546 -1.2034 -0.3606
 6559SOL     OW23464   6.941   7.008   1.594 -1.0162  0.8797 -0.4907
 6559SOL    HW123465   7.024   7.024   1.639 -0.8253  1.6080 -1.0847
 6559SOL    HW223466   6.877   6.996   1.664 -0.1895 -1.0128 -0.0073
 6560SOL     OW23467   1.959   0.170   4.898  0.3170  0.3353 -0.1314
 6560SOL    HW123468   1.920   0.256   4.888  0.5652  0.3874 -0.6831
 6560SOL    HW223469   1.915   0.132   4.974  1.0941  1.4307  0.8904
 6561SOL     OW23470   4.403   9.615   4.678 -0.2148 -0.2577  0.3515
 6561SOL    HW123471   4.484   9.600   4.629 -1.2228 -1.6544 -0.9979
 6561SOL    HW223472   4.373   9.701   4.649 -0.3921 -0.7336 -0.9617
 6562SOL     OW23473   6.532   1.576   1.253 -0.6450  0.5618 -0.4222
 6562SOL    HW123474   6.473   1.555   1.181 -0.5673  1.8122 -0.8684
 6562SOL    HW223475   6.590   1.500   1.259 -1.6945 -0.2757 -0.5799
 6563SOL     OW23476   8.853   1.125   1.883 -0.2268  0.4300  0.0619
 6563SOL    HW123477   8.938   1.105   1.842  1.1433  1.5787  2.1476
 6563SOL    HW223478   8.871   1.125   1.977 -2.7310  0.0522  0.6095
 6564SOL     OW23479   9.629   8.125   7.490  0.2709 -0.2730  0.0872
 6564SOL    HW123480   9.624   8.037   7.528  0.9736 -0.8709 -1.1605
 6564SOL    HW223481   9.564   8.125   7.420 -2.6265  1.5349  2.5016
 6565SOL     OW23482   9.813   8.024   6.212  0.4918 -0.0373  0.4092
 6565SOL    HW123483   9.727   8.062   6.197  0.9568  0.9395  0.1545
 6565SOL    HW223484   9.857   8.029   6.128  1.2585  0.6765  0.8391
 6566SOL     OW23485   2.006   0.146   0.838  0.9003  0.1050  0.5266
 6566SOL    HW123486   2.086   0.198   0.843  1.5517 -0.9096  1.1832
 6566SOL    HW223487   1.940   0.197   0.885  1.5639  0.2616  1.2964
 6567SOL     OW23488   2.397   6.092   5.939  0.1479  0.3678 -0.0033
 6567SOL    HW123489   2.317   6.040   5.935  0.8517 -0.7175 -0.4360
 6567SOL    HW223490   2.394   6.148   5.862 -0.4571  0.7459  0.2883
 6568SOL     OW23491   6.635   5.727   1.313 -0.5832 -0.9922 -0.1899
 6568SOL    HW123492   6.549   5.745   1.276  0.7056  1.0310 -2.4794
 6568SOL    HW223493   6.652   5.800   1.372  0.5126  0.0365 -1.6896
 6569SOL     OW23494   4.702   2.735   4.728 -0.2408 -0.2402 -0.0388
 6569SOL    HW123495   4.628   2.675   4.723 -0.2829 -0.3097  1.1544
 6569SOL    HW223496   4.716   2.749   4.821  1.3081 -0.3139 -0.2185
 6570SOL     OW23497   0.152   6.750   9.058 -0.1060  0.3873 -0.5525
 6570SOL    HW123498   0.120   6.796   8.980 -1.8296  1.2404  0.6010
 6570SOL    HW223499   0.225   6.697   9.026 -0.3359  1.2219 -2.6118
 6571SOL     OW23500   2.165   2.332   7.058  0.3022  0.1475 -0.7603
 6571SOL    HW123501   2.105   2.316   7.131  0.6747 -1.5556 -0.7647
 6571SOL    HW223502   2.109   2.360   6.986 -0.1087  1.5089  0.0727
 6572SOL     OW23503   5.059   1.702   1.914 -0.5357 -0.5928  0.2249
 6572SOL    HW123504   5.030   1.778   1.863 -0.4218  0.7168  2.0454
 6572SOL    HW223505   4.988   1.685   1.975 -1.3615 -3.1341 -1.2593
 6573SOL     OW23506   9.119   3.118   5.881 -0.4472  0.1403 -0.5336
 6573SOL    HW123507   9.067   3.077   5.812  1.9776 -2.6596 -0.9238
 6573SOL    HW223508   9.128   3.049   5.947 -0.1157  1.7275  1.1342
 6574SOL     OW23509   3.618   6.016   2.836 -0.3402  0.1119 -0.3001
 6574SOL    HW123510   3.672   6.078   2.885 -0.3841 -0.7947  0.9363
 6574SOL    HW223511   3.555   6.070   2.788  0.3142  1.0627 -0.1081
 6575SOL     OW23512   1.831   7.641   6.277 -0.4720  0.0770 -0.2266
 6575SOL    HW123513   1.875   7.713   6.321  0.1998 -0.0977 -0.5999
 6575SOL    HW223514   1.825   7.668   6.186 -0.9469  0.0072 -0.2171
 6576SOL     OW23515   8.125   3.634   4.069 -0.0617 -0.3640 -0.0590
 6576SOL    HW123516   8.062   3.583   4.018  0.1267 -0.2612 -0.3946
 6576SOL    HW223517   8.109   3.725   4.042  0.9325 -0.4293 -0.9159
 6577SOL     OW23518   3.359   2.236   6.576 -0.3600 -0.3765 -0.2903
 6577SOL    HW123519   3.321   2.309   6.626 -0.2192 -0.2289 -0.3959
 6577SOL    HW223520   3.427   2.201   6.632  0.2226  0.1906 -0.6309
 6578SOL     OW23521   8.601  10.295   9.350 -0.2050  0.0220  0.6894
 6578SOL    HW123522   8.628  10.246   9.273  0.2148 -0.0375  0.8692
 6578SOL    HW223523   8.535  10.239   9.392  0.8211 -0.7732  1.3064
 6579SOL     OW23524   6.862   7.945   6.711  0.0189  0.2745  0.2373
 6579SOL    HW123525   6.836   7.981   6.796  1.3227 -1.3262  1.3834
 6579SOL    HW223526   6.957   7.932   6.718  0.1934  0.2920 -1.5563
 6580SOL     OW23527   6.666   8.643   3.730 -0.5592 -0.8958 -0.0198
 6580SOL    HW123528   6.748   8.629   3.778  0.0362 -0.4371 -0.8676
 6580SOL    HW223529   6.653   8.738   3.733 -0.7615 -0.9109 -0.3657
 6581SOL     OW23530   1.014   8.737   2.985 -0.3887  0.3690 -0.3932
 6581SOL    HW123531   0.969   8.715   3.067 -0.3415 -2.0497 -0.9389
 6581SOL    HW223532   1.063   8.816   3.006 -0.7773  0.1146  1.7679
 6582SOL     OW23533   4.180   1.723   8.262  0.0465  0.2544  0.0387
 6582SOL    HW123534   4.122   1.799   8.270  0.5640  0.7115 -0.4087
 6582SOL    HW223535   4.267   1.758   8.279  0.0392 -0.7948  2.7295
 6583SOL     OW23536   8.690   4.841   3.727 -0.0512  0.3701 -0.3088
 6583SOL    HW123537   8.732   4.801   3.803 -1.4587  3.0800  2.1036
 6583SOL    HW223538   8.762   4.880   3.677  0.8205 -0.7778  0.0011
 6584SOL     OW23539   6.289   2.038   6.789  0.3867  0.1572 -0.5033
 6584SOL    HW123540   6.317   1.976   6.722 -0.6708  0.4454 -1.2375
 6584SOL    HW223541   6.330   2.121   6.764  0.9867 -0.0048 -0.0860
 6585SOL     OW23542   4.895   8.983   3.855 -0.5715  0.2522  0.3930
 6585SOL    HW123543   4.989   8.994   3.863 -0.2825 -0.2865 -1.6803
 6585SOL    HW223544   4.878   8.989   3.761 -2.6377  0.5746  0.7363
 6586SOL     OW23545   0.030   2.096   0.898  0.2398  0.0305  0.3172
 6586SOL    HW123546   0.067   2.008   0.887  0.0830 -0.1161  0.9019
 6586SOL    HW223547   0.017   2.128   0.809  0.1180 -0.6138  0.0977
 6587SOL     OW23548   9.991   5.109  10.165  0.1860  0.4003  0.5368
 6587SOL    HW123549  10.046   5.135  10.091  1.5079  2.9909  2.2791
 6587SOL    HW223550   9.925   5.178  10.173 -1.8753 -1.4112 -0.0016
 6588SOL     OW23551   6.452   1.917   3.958 -0.0214  0.7466  0.1203
 6588SOL    HW123552   6.399   1.996   3.961 -0.3635  0.5024  0.7250
 6588SOL    HW223553   6.392   1.849   3.927  0.0894  0.5846  0.2557
 6589SOL     OW23554   3.135   1.265   8.803  0.1270 -0.0744 -0.2352
 6589SOL    HW123555   3.135   1.359   8.822  2.8207  0.0551 -0.4379
 6589SOL    HW223556   3.044   1.243   8.787 -0.3693  2.9342 -2.1757
 6590SOL     OW23557   3.675   7.789   7.984 -0.5223  0.4815  0.5575
 6590SOL    HW123558   3.745   7.812   8.046  0.5610 -1.0837 -0.0090
 6590SOL    HW223559   3.656   7.697   8.003 -1.3176  0.4471 -0.3537
 6591SOL     OW23560   1.488   1.174   1.162 -0.0401  0.4214 -0.0088
 6591SOL    HW123561   1.416   1.144   1.218 -0.8197 -0.3753 -1.3835
 6591SOL    HW223562   1.481   1.120   1.083 -0.0596  2.6881 -1.6470
 6592SOL     OW23563   0.280   7.162   3.878  0.0588  0.1695 -0.3132
 6592SOL    HW123564   0.239   7.094   3.931  1.4409 -1.2034 -0.9628
 6592SOL    HW223565   0.368   7.129   3.859  0.8989  2.2807 -0.3685
 6593SOL     OW23566   1.419   1.758  10.347  0.3302 -0.2061  0.2768
 6593SOL    HW123567   1.387   1.715  10.426  0.2316 -0.5648  0.0453
 6593SOL    HW223568   1.475   1.692  10.306 -0.7599 -0.5482 -0.6952
 6594SOL     OW23569   8.186   5.012   4.672  0.4853  0.0530  0.0548
 6594SOL    HW123570   8.140   5.095   4.662  0.5797 -0.1476 -2.9142
 6594SOL    HW223571   8.273   5.028   4.637  1.2393 -0.7713  1.4482
 6595SOL     OW23572   3.431   7.376   5.261 -0.0722 -0.5297 -0.1537
 6595SOL    HW123573   3.496   7.313   5.232  0.6450  0.3905 -0.5844
 6595SOL    HW223574   3.422   7.361   5.355 -0.0783 -1.4136 -0.2956
 6596SOL     OW23575   5.547   6.143   8.414  0.6128  0.5491 -0.0003
 6596SOL    HW123576   5.632   6.186   8.428  0.9509 -0.3124  0.6088
 6596SOL    HW223577   5.484   6.201   8.457  0.9727  0.8374  0.1494
 6597SOL     OW23578   1.015   0.435   5.591 -0.7582 -0.5959  0.1456
 6597SOL    HW123579   1.027   0.529   5.576 -1.8227  0.0510  2.7914
 6597SOL    HW223580   1.027   0.424   5.686 -0.4461 -3.1970 -0.1102
 6598SOL     OW23581   2.437   5.398   4.606 -0.2751 -0.0469  0.3876
 6598SOL    HW123582   2.468   5.391   4.696  0.0597  0.2624  0.3019
 6598SOL    HW223583   2.453   5.311   4.568 -0.1699 -0.0997  0.5517
 6599SOL     OW23584   3.408   0.540   0.782 -0.7158 -0.2295 -0.2880
 6599SOL    HW123585   3.420   0.488   0.703 -1.2479 -0.3641 -0.2795
 6599SOL    HW223586   3.460   0.619   0.767 -0.2739 -0.5525 -0.4901
 6600SOL     OW23587   7.925   7.746   9.946 -0.3505  0.1636  0.9911
 6600SOL    HW123588   7.832   7.755   9.969 -0.1839 -0.5898  2.0263
 6600SOL    HW223589   7.968   7.819   9.990 -0.5235  0.9388 -0.0749
 6601SOL     OW23590   5.747   6.135   5.446 -0.8065  0.8593 -0.4714
 6601SOL    HW123591   5.703   6.154   5.529 -1.7208 -2.0559 -0.1834
 6601SOL    HW223592   5.689   6.169   5.379 -1.1381  1.2974  0.0313
 6602SOL     OW23593   5.645   0.605   2.050  0.2450 -0.2206  0.2642
 6602SOL    HW123594   5.722   0.639   2.096 -0.0271  0.9082 -0.0931
 6602SOL    HW223595   5.594   0.683   2.026 -0.6041 -0.9020 -0.2174
 6603SOL     OW23596   2.851   9.530   2.615  0.2503  0.3068 -0.2813
 6603SOL    HW123597   2.921   9.529   2.681 -0.0403 -1.7995  0.0656
 6603SOL    HW223598   2.891   9.491   2.537 -0.6502 -1.5074  0.1146
 6604SOL     OW23599   9.161   3.896   3.086 -0.0668  0.0636  0.4515
 6604SOL    HW123600   9.227   3.831   3.110 -2.9238 -2.1702  3.1068
 6604SOL    HW223601   9.173   3.967   3.149 -0.3992 -0.5162  1.1805
 6605SOL     OW23602   2.398   9.654   3.112 -0.0790 -0.3799  0.0526
 6605SOL    HW123603   2.439   9.569   3.128  0.0976 -0.6844 -1.8038
 6605SOL    HW223604   2.412   9.703   3.193  0.9941 -1.6534  0.6704
 6606SOL     OW23605  10.250   3.956   7.471  0.5919 -0.6346 -0.3155
 6606SOL    HW123606  10.181   3.940   7.536  0.8958  0.9624  0.4354
 6606SOL    HW223607  10.203   3.959   7.387 -0.4279  1.2386  0.2626
 6607SOL     OW23608   0.074   0.627   2.544 -0.2798  0.1815  0.1904
 6607SOL    HW123609   0.000   0.571   2.569  0.1423  0.4019  2.1551
 6607SOL    HW223610   0.037   0.716   2.542 -0.5559  0.0505 -1.1437
 6608SOL     OW23611   6.090  10.073   6.059 -0.0410 -0.1695  0.0976
 6608SOL    HW123612   6.168  10.113   6.020  0.1440 -0.6748 -0.0737
 6608SOL    HW223613   6.017  10.110   6.010  0.2156 -1.1987 -1.1541
 6609SOL     OW23614   0.805   4.964   0.382  0.4121  0.1215  0.0793
 6609SOL    HW123615   0.792   4.869   0.379  2.0684 -0.2039  1.4733
 6609SOL    HW223616   0.726   5.000   0.344 -1.2543 -1.7828  1.4981
 6610SOL     OW23617   9.427   3.604   1.091 -0.3650  0.5321  0.2916
 6610SOL    HW123618   9.463   3.533   1.144 -2.2651 -0.3400  0.4850
 6610SOL    HW223619   9.367   3.650   1.150  1.2699  2.7628  0.3727
 6611SOL     OW23620   3.914  10.129   8.871  0.3946  0.1542  0.2189
 6611SOL    HW123621   4.004  10.146   8.844  0.4745 -1.1313 -0.3987
 6611SOL    HW223622   3.873  10.088   8.795 -0.2133 -0.8424  1.0476
 6612SOL     OW23623   8.596   8.949   3.647  0.1474  0.1845 -0.0282
 6612SOL    HW123624   8.547   8.867   3.640 -1.9783  1.4531 -0.9911
 6612SOL    HW223625   8.636   8.944   3.734  0.6631 -2.1376 -0.3178
 6613SOL     OW23626   1.391   1.900   8.793 -0.5362  0.1559  0.5470
 6613SOL    HW123627   1.342   1.847   8.856 -0.7934 -1.3133 -0.8158
 6613SOL    HW223628   1.331   1.912   8.720  0.4110  0.1148 -0.2598
 6614SOL     OW23629   6.337  10.226   9.644 -0.1255 -0.2098  0.5096
 6614SOL    HW123630   6.274  10.177   9.696 -2.1322  1.5799 -0.1067
 6614SOL    HW223631   6.420  10.178   9.655 -1.1140 -1.5234  2.9267
 6615SOL     OW23632   0.250   5.082   4.556 -0.4475 -0.3665  0.3229
 6615SOL    HW123633   0.294   5.062   4.474  0.4093 -0.8296  0.8844
 6615SOL    HW223634   0.159   5.056   4.542 -1.1234  2.5461 -1.5911
 6616SOL     OW23635   1.493   0.978   7.992  0.4753  0.4160 -0.3272
 6616SOL    HW123636   1.462   0.888   8.003 -0.2141  0.8340  1.6785
 6616SOL    HW223637   1.488   1.015   8.080  2.6974  1.8104 -0.7008
 6617SOL     OW23638   9.024   6.629   0.261  0.0290  0.4532  0.5248
 6617SOL    HW123639   9.102   6.602   0.309 -0.1758 -0.8486  0.1871
 6617SOL    HW223640   9.055   6.648   0.173 -0.3055 -2.5186 -0.3448
 6618SOL     OW23641   8.003   3.428   5.095 -0.6604  0.1022  0.7046
 6618SOL    HW123642   7.930   3.451   5.152 -1.0541 -0.9926  0.6767
 6618SOL    HW223643   8.080   3.429   5.152 -1.1707 -1.8473  1.5190
 6619SOL     OW23644   6.028   0.648   5.504 -0.3051  0.2207 -0.1056
 6619SOL    HW123645   6.121   0.636   5.525 -0.7908 -1.6243  1.2770
 6619SOL    HW223646   5.989   0.679   5.586 -0.8191  1.7991 -0.8998
 6620SOL     OW23647   9.463   4.597   0.037  0.2106  0.2484  0.2630
 6620SOL    HW123648   9.453   4.576   0.130  0.5495 -0.1226  0.2156
 6620SOL    HW223649   9.400   4.540  -0.007  0.4973 -0.0289  0.2117
 6621SOL     OW23650   4.880   5.011   6.875  0.4378  0.6192  0.0515
 6621SOL    HW123651   4.853   4.963   6.796 -0.3062  0.2718  0.5112
 6621SOL    HW223652   4.968   5.043   6.854  0.6411 -0.3014 -0.5454
 6622SOL     OW23653   1.072   8.395   8.863 -0.2844  0.3246 -0.2131
 6622SOL    HW123654   1.070   8.301   8.844  0.7210  0.6237 -2.0780
 6622SOL    HW223655   1.142   8.429   8.807 -0.0512  2.0659  1.0644
 6623SOL     OW23656   1.503   6.630   4.357 -0.2420 -0.2859 -0.1478
 6623SOL    HW123657   1.428   6.665   4.405 -0.7065 -1.7754  0.2405
 6623SOL    HW223658   1.543   6.566   4.416  0.7613 -0.2186 -0.7306
 6624SOL     OW23659   5.392   1.556   6.747  0.5362 -0.2412  0.3607
 6624SOL    HW123660   5.443   1.608   6.809  1.5657 -0.0803 -0.5957
 6624SOL    HW223661   5.420   1.465   6.763 -1.4885 -0.6320  2.2487
 6625SOL     OW23662   4.526   1.214   1.250 -0.6896 -0.1612 -0.2821
 6625SOL    HW123663   4.581   1.138   1.268 -0.1526  0.1498 -0.5840
 6625SOL    HW223664   4.588   1.286   1.237 -1.1968  0.4826  0.6842
 6626SOL     OW23665   3.293   2.044   8.832  0.2083 -0.2280  0.7879
 6626SOL    HW123666   3.330   2.070   8.917 -1.5930  1.1596  1.2125
 6626SOL    HW223667   3.354   2.078   8.767  0.9396 -0.1696  1.4967
 6627SOL     OW23668   3.357   0.522   2.004 -0.1754 -0.0458 -0.2786
 6627SOL    HW123669   3.384   0.504   1.914 -0.6433  0.4227 -0.5184
 6627SOL    HW223670   3.438   0.544   2.049 -0.0935  1.1347 -0.9380
 6628SOL     OW23671   0.031  10.063   8.837  0.4112 -0.3171  0.6452
 6628SOL    HW123672   0.063   9.983   8.879  1.3831 -0.7631 -0.8878
 6628SOL    HW223673   0.103  10.125   8.846  0.6330 -0.4210 -0.3445
 6629SOL     OW23674   9.385   7.539   9.131  0.0414  0.4952 -0.0916
 6629SOL    HW123675   9.322   7.597   9.088  0.5078 -0.5603 -2.3270
 6629SOL    HW223676   9.418   7.483   9.061  1.5896 -0.6891  1.4986
 6630SOL     OW23677   1.966   5.901  10.301 -0.3406 -0.1591  0.0925
 6630SOL    HW123678   1.956   5.873  10.392 -0.0069  1.8623  0.7997
 6630SOL    HW223679   1.880   5.934  10.276 -0.1676  0.2250  0.0081
 6631SOL     OW23680   7.062   4.195   3.899  0.0484 -0.2622  0.0875
 6631SOL    HW123681   7.144   4.168   3.940  0.7333  0.6856 -0.6090
 6631SOL    HW223682   7.009   4.230   3.972  1.2545  1.4274  0.2003
 6632SOL     OW23683   3.612   5.815   7.095  0.4765 -0.1393  0.1184
 6632SOL    HW123684   3.607   5.826   7.000 -1.2722 -1.8420 -0.0622
 6632SOL    HW223685   3.654   5.730   7.107 -0.3571 -0.4664  0.8080
 6633SOL     OW23686  10.231   2.635   4.626  0.0429  0.1951 -0.0023
 6633SOL    HW123687  10.253   2.662   4.716  0.5718 -1.3729  0.3664
 6633SOL    HW223688  10.170   2.562   4.637  1.4179 -1.1227 -0.8621
 6634SOL     OW23689   8.266   0.875   1.501 -0.4119 -0.4898 -0.5125
 6634SOL    HW123690   8.295   0.920   1.580 -0.2762 -0.1498 -0.7537
 6634SOL    HW223691   8.337   0.888   1.439 -1.1683  0.5432 -1.1885
 6635SOL     OW23692  10.173   7.458  10.267 -0.0059  0.1511  0.3643
 6635SOL    HW123693  10.114   7.519  10.222  1.7527  0.7757 -1.1904
 6635SOL    HW223694  10.181   7.384  10.206  1.8396  0.6829 -0.0819
 6636SOL     OW23695   0.054   6.321   5.524 -0.1628 -0.7994  0.5334
 6636SOL    HW123696   0.057   6.410   5.558  0.8192 -0.7608  0.3524
 6636SOL    HW223697   0.088   6.328   5.435 -0.2531 -1.3252  0.4554
 6637SOL     OW23698   0.227   2.723   1.927  0.0367  0.4343  0.6275
 6637SOL    HW123699   0.265   2.704   2.013 -0.5291 -0.2651  0.7377
 6637SOL    HW223700   0.282   2.675   1.865 -0.6463 -0.5982  0.7888
 6638SOL     OW23701   3.814   3.356   2.385 -0.7781  0.1128 -0.4747
 6638SOL    HW123702   3.738   3.328   2.334 -0.8192 -0.4000 -0.1417
 6638SOL    HW223703   3.792   3.445   2.413 -0.9173  0.2536 -1.0276
 6639SOL     OW23704   0.229   0.080   9.507  0.4629 -0.3282  0.6614
 6639SOL    HW123705   0.153   0.113   9.459  1.1827  0.3681 -0.0424
 6639SOL    HW223706   0.236   0.138   9.583  0.4507 -0.2207  0.5800
 6640SOL     OW23707   8.060   0.145   6.579  0.4925  0.1022  0.1624
 6640SOL    HW123708   8.118   0.071   6.569  0.0657 -0.0591 -1.4412
 6640SOL    HW223709   7.989   0.129   6.516 -0.8309  0.7183  1.4288
 6641SOL     OW23710   8.184   0.752   7.324 -0.0637 -0.2752 -0.4256
 6641SOL    HW123711   8.256   0.782   7.381 -0.9040 -0.3934  0.7393
 6641SOL    HW223712   8.119   0.718   7.385 -1.5199  0.6757 -1.4094
 6642SOL     OW23713   7.292   0.808   3.623 -0.2460  0.0896  0.8171
 6642SOL    HW123714   7.342   0.782   3.546 -0.9797  0.8659  0.0497
 6642SOL    HW223715   7.353   0.796   3.696  0.8356  0.3596 -0.0023
 6643SOL     OW23716   7.270   6.173   7.029 -0.2705  0.4532 -0.4394
 6643SOL    HW123717   7.275   6.085   7.066 -0.9850  0.2020 -0.9124
 6643SOL    HW223718   7.303   6.164   6.940  0.6512  0.8859 -0.1555
 6644SOL     OW23719   7.588   0.747   5.023 -0.6209  0.0860  0.3129
 6644SOL    HW123720   7.616   0.737   5.114  0.6253 -1.3025 -0.1823
 6644SOL    HW223721   7.605   0.840   5.003 -0.0181  0.1829  1.2141
 6645SOL     OW23722   5.486   3.436   5.608 -0.1857  0.3652 -0.1837
 6645SOL    HW123723   5.522   3.430   5.520  0.0683  0.4727 -0.0874
 6645SOL    HW223724   5.556   3.406   5.665 -0.6626 -0.5972 -0.0794
 6646SOL     OW23725   1.273   8.252  10.149  0.1934  0.0051  1.0886
 6646SOL    HW123726   1.355   8.207  10.171  0.4826  0.1100  0.2749
 6646SOL    HW223727   1.217   8.184  10.113  1.1926  0.4838 -1.6313
 6647SOL     OW23728   9.962   5.709   8.757 -0.2586  0.5379 -0.0961
 6647SOL    HW123729   9.883   5.688   8.706 -0.4596  1.5844 -0.2328
 6647SOL    HW223730  10.018   5.755   8.695 -0.0347  0.8350  0.3278
 6648SOL     OW23731   9.835   1.644   1.722  0.4398  0.7521  0.6669
 6648SOL    HW123732   9.840   1.736   1.750 -1.3150  1.0279  0.2138
 6648SOL    HW223733   9.817   1.649   1.628 -1.7437  0.0269  0.9898
 6649SOL     OW23734   2.939   3.374   2.818  0.2368 -0.2556  0.2345
 6649SOL    HW123735   3.005   3.354   2.884  0.8926  0.2872 -0.2302
 6649SOL    HW223736   2.911   3.288   2.785  0.1533 -0.5143  0.9684
 6650SOL     OW23737   9.370   7.830   4.389 -0.0994  0.4288 -0.1581
 6650SOL    HW123738   9.365   7.819   4.294  1.7372  0.9218 -0.3418
 6650SOL    HW223739   9.434   7.900   4.402 -2.0909  2.1224  1.3844
 6651SOL     OW23740   3.850   0.907   3.659 -0.6458 -0.0235  0.2213
 6651SOL    HW123741   3.936   0.895   3.617  1.5558  1.0981  3.8942
 6651SOL    HW223742   3.828   0.998   3.641 -0.2317  0.1521  0.5681
 6652SOL     OW23743   1.361   2.504   6.333 -0.7317 -0.1026  0.5738
 6652SOL    HW123744   1.374   2.515   6.239 -1.5330  0.5086  0.5218
 6652SOL    HW223745   1.337   2.412   6.343  1.2095 -0.6753  0.4254
 6653SOL     OW23746   5.851   6.688   4.371 -0.1002  0.1221  0.4147
 6653SOL    HW123747   5.792   6.620   4.338  3.6484 -2.8862 -0.7961
 6653SOL    HW223748   5.871   6.741   4.294 -0.3718  0.4437  0.5659
 6654SOL     OW23749   2.890   8.249   1.096  0.1851  0.5686  0.3036
 6654SOL    HW123750   2.908   8.201   1.015  0.3484 -0.1552  0.7650
 6654SOL    HW223751   2.901   8.185   1.165 -0.4254  1.0645  0.8752
 6655SOL     OW23752   6.143   4.889   4.918  0.0344  0.6382  0.4278
 6655SOL    HW123753   6.102   4.867   4.834  0.6412  1.3538 -0.0774
 6655SOL    HW223754   6.101   4.970   4.945 -1.0439 -0.2377  1.4611
 6656SOL     OW23755   7.806   5.988   8.249  0.4127  0.0162  0.4175
 6656SOL    HW123756   7.734   5.931   8.276  0.4433  1.1589  3.2659
 6656SOL    HW223757   7.773   6.076   8.265  1.5582  0.6719 -0.7169
 6657SOL     OW23758   0.164   8.024   6.390 -0.4367 -0.5621  0.1558
 6657SOL    HW123759   0.096   8.070   6.439 -1.3859  0.4498 -2.0202
 6657SOL    HW223760   0.125   7.939   6.370 -0.8870 -0.1624 -0.6806
 6658SOL     OW23761   2.875   0.032   4.441 -0.0759  0.3797  0.4000
 6658SOL    HW123762   2.861  -0.061   4.424 -1.6206  0.7082 -0.3893
 6658SOL    HW223763   2.889   0.038   4.535  1.2051 -0.7545  0.3079
 6659SOL     OW23764   1.549   4.603   2.530 -0.0402  0.0999 -0.1923
 6659SOL    HW123765   1.605   4.579   2.603  0.1122  0.2313 -0.2662
 6659SOL    HW223766   1.543   4.524   2.477  0.3558  0.1845 -0.3662
 6660SOL     OW23767   4.120   7.591   3.632  0.2880 -0.4278 -0.2892
 6660SOL    HW123768   4.189   7.573   3.696  0.1130 -0.2396 -0.0453
 6660SOL    HW223769   4.158   7.657   3.574  0.1619  0.0030  0.1088
 6661SOL     OW23770   6.418   8.850   9.787  0.0727 -0.2151 -0.4089
 6661SOL    HW123771   6.479   8.820   9.854  0.2311 -1.2711 -0.9946
 6661SOL    HW223772   6.354   8.903   9.834  1.9613  1.7605  0.0744
 6662SOL     OW23773   6.270   2.917   8.372  0.1531 -0.1897 -0.9504
 6662SOL    HW123774   6.178   2.946   8.370 -0.2435 -1.3779 -0.8276
 6662SOL    HW223775   6.301   2.932   8.282 -0.7570 -1.5470 -1.5273
 6663SOL     OW23776   5.391   3.197   1.300 -0.1776 -0.3442 -0.3938
 6663SOL    HW123777   5.417   3.252   1.374 -1.1970 -0.3430 -0.0134
 6663SOL    HW223778   5.416   3.109   1.325  1.2107 -0.1148 -0.8849
 6664SOL     OW23779   2.356   2.669   4.892  0.7886 -0.4547 -0.2657
 6664SOL    HW123780   2.390   2.758   4.904 -0.2930 -0.0366 -0.2414
 6664SOL    HW223781   2.410   2.615   4.950  0.7763  0.3491  0.5158
 6665SOL     OW23782   9.743   1.268   7.770  0.0519  0.4337 -0.5374
 6665SOL    HW123783   9.828   1.263   7.814  0.7477  0.0148 -1.8649
 6665SOL    HW223784   9.764   1.289   7.679 -1.3412  1.3048 -0.6959
 6666SOL     OW23785   7.004   4.021   9.333 -0.2679  0.4943 -0.0953
 6666SOL    HW123786   7.087   4.029   9.379 -0.3591  3.9178 -0.2243
 6666SOL    HW223787   7.027   3.983   9.248  0.7742 -0.6816  0.6880
 6667SOL     OW23788   0.801   6.607  10.244  0.4146  0.2337  0.3420
 6667SOL    HW123789   0.727   6.561  10.204 -0.0104 -0.1990  1.5754
 6667SOL    HW223790   0.786   6.699  10.222  0.2345  0.0048 -0.5320
 6668SOL     OW23791   3.606   4.395   0.963  0.2147 -0.0614  0.4243
 6668SOL    HW123792   3.614   4.486   0.991 -0.5651 -0.6533  2.8398
 6668SOL    HW223793   3.644   4.345   1.035 -0.7860 -1.6989 -0.1396
 6669SOL     OW23794   0.792   7.984   8.191  0.8686  0.1886 -0.2452
 6669SOL    HW123795   0.864   7.986   8.127  0.3465  0.9904 -0.8154
 6669SOL    HW223796   0.738   7.910   8.163  0.7344  0.4313 -0.6299
 6670SOL     OW23797   5.892   3.945   6.164  0.3049 -0.7219 -0.1694
 6670SOL    HW123798   5.914   3.994   6.084  2.2301 -0.3567  0.5252
 6670SOL    HW223799   5.977   3.919   6.200 -0.6121 -2.8205  0.5919
 6671SOL     OW23800   1.175   0.742   3.756 -0.1602  0.1073  0.5445
 6671SOL    HW123801   1.251   0.686   3.772 -0.1637 -0.0761 -0.0731
 6671SOL    HW223802   1.175   0.756   3.662 -0.5487  0.6003  0.6159
 6672SOL     OW23803  10.356   2.254   4.639 -0.3497  0.2443  0.3687
 6672SOL    HW123804  10.438   2.211   4.615  0.3249  0.7241  1.7290
 6672SOL    HW223805  10.310   2.267   4.556 -0.6989 -3.2455 -0.1117
 6673SOL     OW23806   4.326   8.749   3.441  0.2680 -0.0913 -0.0771
 6673SOL    HW123807   4.387   8.751   3.367  0.2479  0.7705 -0.0808
 6673SOL    HW223808   4.352   8.672   3.491  1.1174  0.0448 -0.2867
 6674SOL     OW23809   6.223   5.220   8.425 -0.1107 -0.2132  0.3860
 6674SOL    HW123810   6.311   5.200   8.458  0.1617  1.0125  0.4360
 6674SOL    HW223811   6.226   5.196   8.332  0.5758  0.7076  0.1650
 6675SOL     OW23812   8.987   4.573   0.024  0.0925  0.0204 -0.5194
 6675SOL    HW123813   8.946   4.652   0.060  1.4112  0.9199 -0.9127
 6675SOL    HW223814   8.972   4.580  -0.070  0.0311 -0.3134 -0.5338
 6676SOL     OW23815   4.815   8.645   0.182  0.0545 -0.2423  0.0142
 6676SOL    HW123816   4.876   8.572   0.174 -2.9650 -2.8313 -1.4418
 6676SOL    HW223817   4.786   8.642   0.273  0.6598 -0.1903  0.2134
 6677SOL     OW23818   0.427   9.939   4.667  0.7555 -0.3481 -0.0229
 6677SOL    HW123819   0.417   9.844   4.675 -0.2347 -0.2112  0.6674
 6677SOL    HW223820   0.489   9.952   4.596  0.9122 -1.5139 -0.1095
 6678SOL     OW23821   7.157   3.644  10.231 -0.6949 -0.4201  0.3543
 6678SOL    HW123822   7.216   3.582  10.273 -0.8766 -1.3113 -0.6700
 6678SOL    HW223823   7.081   3.648  10.291 -0.7665 -1.3409  0.3431
 6679SOL     OW23824   8.284   7.258   6.366  0.3527 -0.5201 -0.3160
 6679SOL    HW123825   8.345   7.278   6.295  2.6834 -0.8314  1.4958
 6679SOL    HW223826   8.231   7.185   6.331 -0.7047  1.2794 -2.7965
 6680SOL     OW23827   0.219   1.479   6.548  0.5102  0.3603  0.2942
 6680SOL    HW123828   0.286   1.547   6.543  0.8396 -0.0676 -2.0778
 6680SOL    HW223829   0.269   1.397   6.556  0.3299  0.0547 -1.3026
 6681SOL     OW23830   6.383   2.043  10.053 -0.2443  0.6947 -0.0185
 6681SOL    HW123831   6.300   2.075  10.017 -1.7974 -1.4289  1.4048
 6681SOL    HW223832   6.383   2.071  10.144  0.2368  0.0453  0.1938
 6682SOL     OW23833   8.904   3.155   2.516 -0.4120 -0.1455 -0.0999
 6682SOL    HW123834   8.866   3.113   2.438  0.0313  1.2634 -1.1166
 6682SOL    HW223835   8.998   3.144   2.506 -0.2891  0.9691 -0.3481
 6683SOL     OW23836   6.081   2.128   2.920  0.4445 -0.1760  0.0294
 6683SOL    HW123837   6.176   2.137   2.911  0.4915 -0.0571  0.6087
 6683SOL    HW223838   6.063   2.147   3.012 -0.4211  2.1615 -0.5615
 6684SOL     OW23839   3.598   9.037   2.337  0.1426  0.0537  0.2014
 6684SOL    HW123840   3.598   9.105   2.404 -1.9227  0.7157 -0.3916
 6684SOL    HW223841   3.676   9.056   2.283 -0.3407  1.9316  0.0938
 6685SOL     OW23842   6.496   8.760   3.216 -0.3426 -0.4584 -0.0381
 6685SOL    HW123843   6.437   8.705   3.267 -0.2479 -0.2518  0.2963
 6685SOL    HW223844   6.498   8.719   3.129 -1.2688 -0.2665 -0.1615
 6686SOL     OW23845   2.318   8.065   1.578  0.6774 -0.3339 -0.5217
 6686SOL    HW123846   2.334   8.069   1.672 -1.4088 -0.2948 -0.1250
 6686SOL    HW223847   2.235   8.018   1.570 -0.5228  1.9155 -2.1859
 6687SOL     OW23848   7.904   8.310   5.345  0.2022  0.2529 -0.4161
 6687SOL    HW123849   7.842   8.380   5.326  0.6314  0.4701 -1.0247
 6687SOL    HW223850   7.851   8.242   5.388  0.1587  1.8267  2.2828
 6688SOL     OW23851   8.932   1.053   7.003  0.3185  0.0958 -0.6478
 6688SOL    HW123852   9.025   1.075   7.011  1.1374 -3.0539  0.0604
 6688SOL    HW223853   8.888   1.113   7.063  1.8478  1.7265 -1.0646
 6689SOL     OW23854   1.975   9.279   8.903 -0.1368 -0.6071  0.9794
 6689SOL    HW123855   1.928   9.274   8.986 -1.0898  1.1294  0.5997
 6689SOL    HW223856   2.049   9.338   8.920  0.6040 -1.5106  0.9805
 6690SOL     OW23857   6.542   8.945   8.650  0.0549  0.1494  0.0384
 6690SOL    HW123858   6.471   8.931   8.713  1.1294  2.9353  2.0920
 6690SOL    HW223859   6.615   8.894   8.686  1.0233  2.6290  1.9465
 6691SOL     OW23860   0.901   7.578   6.885 -0.0303  0.0009 -0.0535
 6691SOL    HW123861   0.864   7.632   6.954 -0.3115  1.8971 -1.6112
 6691SOL    HW223862   0.970   7.527   6.928  0.2658  1.6248  1.4808
 6692SOL     OW23863   5.586   5.377   2.745 -0.0545  0.4592  0.4990
 6692SOL    HW123864   5.608   5.470   2.753 -2.7719  1.0480  2.6495
 6692SOL    HW223865   5.499   5.369   2.784  0.0732 -3.0193  0.4175
 6693SOL     OW23866   7.103   5.002   8.022  0.3049 -0.4289  0.0184
 6693SOL    HW123867   7.088   4.914   8.058 -0.7475 -0.0097  0.6559
 6693SOL    HW223868   7.024   5.051   8.046  0.0958  0.2138 -1.8411
 6694SOL     OW23869   5.103   6.040   5.343 -0.3449  0.2906  0.0746
 6694SOL    HW123870   5.120   5.977   5.273  0.7580 -1.0134  1.4397
 6694SOL    HW223871   5.184   6.091   5.349  0.0851 -0.4684  1.1944
 6695SOL     OW23872   8.276   3.573   6.694  0.1346  0.0309  0.6476
 6695SOL    HW123873   8.351   3.630   6.709 -0.0148  0.1221  1.0480
 6695SOL    HW223874   8.201   3.624   6.723  0.0886 -0.7350  1.9320
 6696SOL     OW23875   0.064   8.670   1.050  0.1885  0.2711 -0.2141
 6696SOL    HW123876   0.011   8.685   0.972 -0.1977 -1.6982 -0.3627
 6696SOL    HW223877   0.044   8.746   1.107 -0.8738  0.8267 -1.2772
 6697SOL     OW23878   3.055   0.466   0.336 -0.0127 -0.8338  0.1004
 6697SOL    HW123879   2.961   0.462   0.320  0.5144 -2.4428 -3.9650
 6697SOL    HW223880   3.083   0.548   0.295  0.2984  0.2283  2.3181
 6698SOL     OW23881   4.460   0.708   0.840 -0.0205 -0.0970  0.3190
 6698SOL    HW123882   4.550   0.684   0.820 -0.2026 -0.0510 -0.6091
 6698SOL    HW223883   4.435   0.770   0.771 -1.2242 -1.2113 -0.2837
 6699SOL     OW23884   2.440   6.447   3.000 -0.0151 -0.2913  0.3520
 6699SOL    HW123885   2.534   6.459   2.991  0.0969  0.8373  2.4515
 6699SOL    HW223886   2.404   6.470   2.915  1.2033  4.4732  0.8679
 6700SOL     OW23887   7.567   9.289   1.028 -0.2235  0.3417 -0.8915
 6700SOL    HW123888   7.499   9.226   1.007 -0.1754  0.0039 -0.0511
 6700SOL    HW223889   7.648   9.248   0.998 -0.2917  0.3839 -1.1356
 6701SOL     OW23890   6.822   6.740   1.540  0.5060 -0.0461  1.1856
 6701SOL    HW123891   6.861   6.822   1.571 -0.0222  0.6303  0.1315
 6701SOL    HW223892   6.830   6.745   1.444 -1.5706 -0.1573  0.9604
 6702SOL     OW23893   0.922   2.471  10.037  0.4215 -0.2115  0.2340
 6702SOL    HW123894   0.873   2.406   9.987  2.1605 -0.9119 -0.6747
 6702SOL    HW223895   0.873   2.482  10.118  0.3832 -3.1699  0.7168
 6703SOL     OW23896   5.347   3.687   4.934  0.0648  0.0869  0.1453
 6703SOL    HW123897   5.349   3.592   4.942 -0.8815  0.1488  1.3319
 6703SOL    HW223898   5.324   3.703   4.842 -2.7835 -0.8961  0.6169
 6704SOL     OW23899   9.200   3.512   7.922  0.2229  0.1593 -0.1406
 6704SOL    HW123900   9.244   3.590   7.888 -1.9233  1.5380  0.0672
 6704SOL    HW223901   9.168   3.466   7.844 -2.2108  1.8221 -0.2454
 6705SOL     OW23902   2.555   7.734   1.986  0.1541 -0.1767 -0.0207
 6705SOL    HW123903   2.477   7.719   1.934 -0.9922  0.3520  1.4729
 6705SOL    HW223904   2.544   7.677   2.063  1.7527 -0.8777 -0.2655
 6706SOL     OW23905   6.601   6.729   3.439  0.1541 -1.0394  0.0803
 6706SOL    HW123906   6.661   6.711   3.366 -1.3070  1.6780 -1.9402
 6706SOL    HW223907   6.546   6.651   3.444  1.3364 -1.9602 -0.5926
 6707SOL     OW23908   6.849   3.605   3.555  0.4014 -0.3298 -0.0593
 6707SOL    HW123909   6.891   3.686   3.525 -0.0920  0.6157  1.6665
 6707SOL    HW223910   6.756   3.625   3.555  0.3172 -0.6343  0.9927
 6708SOL     OW23911   8.095   7.704   9.553  0.3607  0.4217  0.1645
 6708SOL    HW123912   8.144   7.771   9.601 -0.4638  0.1437  1.4537
 6708SOL    HW223913   8.053   7.751   9.482  1.2154  0.9397 -0.0200
 6709SOL     OW23914   9.273   4.581   7.859  0.2509  0.6102  0.2747
 6709SOL    HW123915   9.339   4.636   7.817  0.2018  1.5471  1.3675
 6709SOL    HW223916   9.209   4.643   7.894 -1.3864 -0.2914 -1.0080
 6710SOL     OW23917   0.393   7.137   9.009  0.3714 -0.3880  0.7878
 6710SOL    HW123918   0.363   7.079   9.079 -1.2510  1.7085  1.9635
 6710SOL    HW223919   0.328   7.126   8.940  0.3255 -0.3279  0.8211
 6711SOL     OW23920   0.119   9.065   7.677  0.0663  0.3108  0.0296
 6711SOL    HW123921   0.118   8.992   7.615 -1.3061 -0.1464  0.5717
 6711SOL    HW223922   0.027   9.083   7.695  0.4170  1.3614  0.8589
 6712SOL     OW23923   3.668   2.147   3.290  0.4894 -0.2324  0.3629
 6712SOL    HW123924   3.692   2.239   3.292 -0.7462  0.1342 -0.6231
 6712SOL    HW223925   3.578   2.145   3.324  0.0981 -0.9090 -0.6677
 6713SOL     OW23926   6.858   2.988   6.391  0.0539  0.0555  0.2328
 6713SOL    HW123927   6.805   3.067   6.385  1.1805  0.7744 -0.7358
 6713SOL    HW223928   6.948   3.020   6.395  0.5132 -1.1754  0.1389
 6714SOL     OW23929   4.577   9.831   4.788  0.6658  0.0757  0.2095
 6714SOL    HW123930   4.514   9.828   4.716 -0.0901 -2.9865  0.8455
 6714SOL    HW223931   4.648   9.888   4.756 -1.2375  1.6273 -1.5022
 6715SOL     OW23932   7.899   0.332   7.988  0.6621  0.1908  0.1404
 6715SOL    HW123933   7.956   0.297   8.057 -0.7437 -0.0809  1.2076
 6715SOL    HW223934   7.912   0.273   7.914 -0.9782 -2.1806  1.6080
 6716SOL     OW23935   7.071   1.651   6.438 -0.1039  0.1695  0.0394
 6716SOL    HW123936   7.072   1.747   6.446 -1.6131  0.1234  1.2750
 6716SOL    HW223937   6.982   1.630   6.409 -0.1528 -0.9119  0.8973
 6717SOL     OW23938   0.893   3.835   9.872  0.3936 -0.3420  0.1610
 6717SOL    HW123939   0.985   3.833   9.844 -0.2918 -0.3279 -2.2855
 6717SOL    HW223940   0.882   3.753   9.920  1.4562 -0.8221 -0.3667
 6718SOL     OW23941   5.975   4.221   2.175 -0.4190 -0.7887 -0.3027
 6718SOL    HW123942   5.901   4.272   2.205 -0.6033 -0.8444 -0.6605
 6718SOL    HW223943   6.044   4.286   2.157 -0.4079 -0.7312 -0.0575
 6719SOL     OW23944   3.399   8.201   2.160 -0.1882  0.4541  0.0033
 6719SOL    HW123945   3.396   8.110   2.190  2.0235 -0.0090 -1.0132
 6719SOL    HW223946   3.486   8.231   2.186 -0.2311  1.7176 -1.2411
 6720SOL     OW23947   5.496   4.761   5.778  0.5802 -0.3365  0.2119
 6720SOL    HW123948   5.516   4.686   5.835  1.2293 -1.0556 -0.9350
 6720SOL    HW223949   5.443   4.724   5.707  1.3627  0.1700 -0.6553
 6721SOL     OW23950   9.197   0.149   9.074 -0.3855 -0.9623 -0.2381
 6721SOL    HW123951   9.191   0.213   9.145  1.9232 -0.6564 -0.2290
 6721SOL    HW223952   9.280   0.104   9.089 -0.0608 -1.2443 -2.4536
 6722SOL     OW23953   7.913   4.608   5.419  0.8517  0.4831 -0.3895
 6722SOL    HW123954   7.823   4.584   5.439  1.1583  0.2979  0.8428
 6722SOL    HW223955   7.908   4.701   5.394  0.5558  1.0340  1.5866
 6723SOL     OW23956   7.173   9.699   5.675  0.1050 -0.5337  0.3864
 6723SOL    HW123957   7.212   9.710   5.762 -0.9299 -1.8186  1.0434
 6723SOL    HW223958   7.084   9.734   5.683  0.3943  0.4611 -0.5171
 6724SOL     OW23959   9.321   2.120   8.885  0.8526 -0.3366 -0.3413
 6724SOL    HW123960   9.318   2.107   8.791  3.8040  1.1535 -0.7637
 6724SOL    HW223961   9.403   2.078   8.913  0.7096  0.4039  1.3355
 6725SOL     OW23962   4.259   4.236   1.321 -0.8473 -0.7853  0.2199
 6725SOL    HW123963   4.333   4.296   1.326 -0.9091 -0.7106  0.2406
 6725SOL    HW223964   4.218   4.256   1.236 -1.5609  0.0187  0.7351
 6726SOL     OW23965   3.443   6.637   8.405  0.1077 -0.5792  0.0408
 6726SOL    HW123966   3.369   6.662   8.349  0.2785 -1.7254 -0.7218
 6726SOL    HW223967   3.478   6.720   8.437 -3.3944  0.0043  2.9988
 6727SOL     OW23968   2.865  10.304   8.914 -0.1369 -0.0076 -0.6716
 6727SOL    HW123969   2.861  10.370   8.845  0.3049  1.6323  0.8084
 6727SOL    HW223970   2.954  10.310   8.948 -1.0697  1.1861  1.8196
 6728SOL     OW23971   6.514   6.119   0.320 -0.4983  0.0898 -0.3189
 6728SOL    HW123972   6.512   6.111   0.416 -1.7238 -1.9350 -0.4480
 6728SOL    HW223973   6.423   6.133   0.295 -0.2593  0.0928 -1.2080
 6729SOL     OW23974   0.507   3.017   1.138  0.2302 -0.2589  0.3692
 6729SOL    HW123975   0.529   2.961   1.212  0.2519 -1.5466 -0.5891
 6729SOL    HW223976   0.420   3.052   1.159  0.2253 -0.6383  0.9925
 6730SOL     OW23977   8.320   9.695   8.097 -0.0179  0.5815  0.1282
 6730SOL    HW123978   8.398   9.720   8.147  1.0054  0.7394 -1.4562
 6730SOL    HW223979   8.351   9.625   8.038 -0.3742  2.3436 -2.3115
 6731SOL     OW23980   6.632   7.850   1.630 -0.0810 -0.0451  0.1005
 6731SOL    HW123981   6.540   7.852   1.656  0.0408  0.4335  0.5068
 6731SOL    HW223982   6.643   7.767   1.584 -1.1657  0.6987 -1.6017
 6732SOL     OW23983   2.137   6.682   7.976 -0.4495  0.0773  0.2991
 6732SOL    HW123984   2.116   6.592   7.999  1.2597 -0.1267  1.3058
 6732SOL    HW223985   2.060   6.715   7.930 -0.7686 -2.1607 -0.8954
 6733SOL     OW23986   7.315   4.672   5.738 -0.2734  0.1130 -0.0834
 6733SOL    HW123987   7.337   4.756   5.699 -0.9017  0.1524 -0.3508
 6733SOL    HW223988   7.309   4.612   5.664  1.6620 -0.5285  0.2033
 6734SOL     OW23989   8.018   7.170   9.677  0.3992 -0.3625  0.0960
 6734SOL    HW123990   8.036   7.148   9.768 -1.0109 -0.2987  0.4118
 6734SOL    HW223991   8.042   7.262   9.669  0.0597 -0.2318  0.5412
 6735SOL     OW23992   3.033   6.620   5.405  0.3772  0.2127  0.2734
 6735SOL    HW123993   3.061   6.600   5.494  0.0334  1.7640  0.7717
 6735SOL    HW223994   3.111   6.655   5.362 -0.2382  2.9045  1.1351
 6736SOL     OW23995   7.162   6.196   7.325  0.2963  0.1546  0.2015
 6736SOL    HW123996   7.186   6.288   7.315 -0.4642  0.2591 -0.6815
 6736SOL    HW223997   7.236   6.148   7.288 -0.7495  0.4756 -2.4549
 6737SOL     OW23998   7.671   1.445   0.181 -0.3151 -0.0340  0.3674
 6737SOL    HW123999   7.678   1.539   0.164  0.8426 -0.3145 -0.8953
 6737SOL    HW224000   7.631   1.409   0.102  0.2537 -0.7291  0.3852
 6738SOL     OW24001   9.323   3.391   5.285  0.5029  0.4760 -0.1695
 6738SOL    HW124002   9.405   3.356   5.250  0.9284  1.3181 -0.0491
 6738SOL    HW224003   9.254   3.343   5.240  1.0661 -0.1592 -0.3573
 6739SOL     OW24004   5.639   0.155   2.075  0.3365 -0.1181  0.0757
 6739SOL    HW124005   5.730   0.140   2.102 -0.1071 -0.2422  1.5999
 6739SOL    HW224006   5.620   0.244   2.104  0.1407  0.1051 -0.7309
 6740SOL     OW24007   5.887   6.353   8.914 -0.1258 -0.4745 -0.0601
 6740SOL    HW124008   5.817   6.417   8.921  1.2447  0.9558  1.2816
 6740SOL    HW224009   5.890   6.331   8.821 -2.8898 -1.2789 -0.0411
 6741SOL     OW24010   7.659   5.052   0.175 -0.3932  0.1804 -0.4125
 6741SOL    HW124011   7.621   5.033   0.089 -0.6226  1.1698 -0.5483
 6741SOL    HW224012   7.584   5.059   0.234 -0.3859  1.3151 -0.5124
 6742SOL     OW24013   6.072   2.734   4.810  0.0201 -0.2169 -0.4407
 6742SOL    HW124014   6.069   2.830   4.820  1.4296 -0.2932  0.9957
 6742SOL    HW224015   5.982   2.706   4.828 -0.3817  0.8175 -0.7367
 6743SOL     OW24016   9.760   7.798   2.051 -0.0077  0.4539 -0.5272
 6743SOL    HW124017   9.822   7.856   2.007  0.9151 -0.0302  0.1052
 6743SOL    HW224018   9.789   7.710   2.028 -1.6054  0.2089 -1.7689
 6744SOL     OW24019   4.103   6.235   6.943 -0.1148 -0.3758  0.0836
 6744SOL    HW124020   4.031   6.269   6.996  0.2344  0.3405  0.1183
 6744SOL    HW224021   4.095   6.140   6.948 -3.2453 -0.4572 -2.8338
 6745SOL     OW24022   9.012   1.666   0.074  0.6669  0.2052 -0.2230
 6745SOL    HW124023   8.934   1.662   0.130  0.5515  1.8173 -0.2121
 6745SOL    HW224024   9.010   1.585   0.024  0.1479 -0.7662  1.2861
 6746SOL     OW24025   0.351   7.207   1.651 -0.1702 -0.1105  0.7550
 6746SOL    HW124026   0.272   7.221   1.598 -1.4385 -2.8654  1.6904
 6746SOL    HW224027   0.418   7.183   1.587 -0.7795 -0.2086  0.1315
 6747SOL     OW24028   5.188   0.686   6.177  0.3153 -0.1403 -0.0398
 6747SOL    HW124029   5.211   0.594   6.187 -3.5218 -1.0807  2.6002
 6747SOL    HW224030   5.140   0.690   6.094 -0.4937 -0.8512  0.3716
 6748SOL     OW24031   9.605   0.939   5.460 -0.8432 -0.1208  0.0634
 6748SOL    HW124032   9.616   0.844   5.457  1.6544  0.1362 -1.0420
 6748SOL    HW224033   9.672   0.969   5.522 -2.8051  0.8351  1.8418
 6749SOL     OW24034   4.218   0.800   9.780 -0.6506 -0.0786  0.5137
 6749SOL    HW124035   4.130   0.769   9.796  0.7114 -3.9786  1.5348
 6749SOL    HW224036   4.245   0.841   9.862 -1.5384  1.4884  0.0700
 6750SOL     OW24037   9.866   5.294   8.381  0.3110  0.3100 -0.3224
 6750SOL    HW124038   9.924   5.239   8.433  1.2399  1.0253 -0.5881
 6750SOL    HW224039   9.848   5.241   8.303 -0.5069 -0.4662  0.3652
 6751SOL     OW24040   0.745   2.688   3.013  0.0996 -0.4575 -0.0142
 6751SOL    HW124041   0.740   2.753   2.943  0.6607  1.4077  1.6178
 6751SOL    HW224042   0.837   2.662   3.014  0.2837  0.2121  0.6334
 6752SOL     OW24043   2.735   0.851   7.201 -0.0210 -0.0320  0.0833
 6752SOL    HW124044   2.699   0.939   7.217 -0.1254  0.3445 -1.9374
 6752SOL    HW224045   2.768   0.823   7.286  1.3677  2.5946  0.4997
 6753SOL     OW24046   4.272   4.652   6.930 -0.2230 -0.2217 -0.3184
 6753SOL    HW124047   4.233   4.729   6.971  0.9444  0.0122  0.4193
 6753SOL    HW224048   4.252   4.660   6.837 -0.9481  0.4504 -0.1098
 6754SOL     OW24049   1.442   1.118   2.879  0.2641 -0.5521 -0.4732
 6754SOL    HW124050   1.466   1.159   2.796  0.3575  0.0291 -0.1610
 6754SOL    HW224051   1.452   1.187   2.944  0.2160 -1.0116  0.0293
 6755SOL     OW24052   3.627   3.394   2.989  0.0163  0.1805 -0.2642
 6755SOL    HW124053   3.617   3.353   2.903 -0.6787  0.1056 -0.1489
 6755SOL    HW224054   3.713   3.365   3.019 -0.3996 -1.0854 -0.2406
 6756SOL     OW24055   6.038   0.494   2.209  0.3424 -0.2105 -0.1291
 6756SOL    HW124056   6.044   0.424   2.274 -0.5903  0.9442  1.2382
 6756SOL    HW224057   5.994   0.454   2.134  1.3729 -1.5379 -0.0615
 6757SOL     OW24058   3.619   5.853   6.829  0.1560  0.4678 -0.2819
 6757SOL    HW124059   3.652   5.769   6.797  1.7889  0.8367  0.3651
 6757SOL    HW224060   3.659   5.918   6.771 -2.2438  0.7944 -1.7318
 6758SOL     OW24061   1.640   5.770   2.313 -0.7672 -0.1276  0.0656
 6758SOL    HW124062   1.676   5.855   2.335 -0.2498 -0.6794  1.4581
 6758SOL    HW224063   1.607   5.780   2.223 -0.7621  1.5279  0.2201
 6759SOL     OW24064   2.849   7.709   0.294  0.4380  0.1742  0.0518
 6759SOL    HW124065   2.798   7.741   0.368 -1.0800  0.0911 -0.9073
 6759SOL    HW224066   2.899   7.636   0.329  0.1053  0.4279  1.0952
 6760SOL     OW24067   6.683   0.713   7.409  0.0826 -0.4863 -0.6010
 6760SOL    HW124068   6.721   0.626   7.413 -1.3099 -1.1396 -1.0179
 6760SOL    HW224069   6.620   0.709   7.337 -1.8425  0.0863  0.9678
 6761SOL     OW24070   0.914   6.991   8.088 -0.7906  0.7155 -0.7186
 6761SOL    HW124071   0.825   7.017   8.114 -0.2395  0.4326  1.7254
 6761SOL    HW224072   0.971   7.058   8.125  0.2297 -0.9821  0.9862
 6762SOL     OW24073   1.580   4.325   8.200  0.6870 -0.5209 -0.7699
 6762SOL    HW124074   1.559   4.413   8.230 -0.8063 -0.5851 -1.5460
 6762SOL    HW224075   1.585   4.273   8.280  0.1415 -0.0189 -0.4077
 6763SOL     OW24076   1.672   2.752   0.592  0.5430 -0.0462  0.3811
 6763SOL    HW124077   1.729   2.728   0.665  0.4248 -1.6290  0.0013
 6763SOL    HW224078   1.619   2.674   0.577 -0.6837  0.8712 -0.2563
 6764SOL     OW24079   5.385   7.442   3.080  0.7527 -0.1202  0.4933
 6764SOL    HW124080   5.314   7.487   3.125  0.4138 -0.6979  0.5443
 6764SOL    HW224081   5.388   7.355   3.121  0.9460 -0.3861 -0.0777
 6765SOL     OW24082   9.778   3.314   8.002  0.2489  0.2436  0.4845
 6765SOL    HW124083   9.846   3.369   7.961  0.8642  0.1385  1.3435
 6765SOL    HW224084   9.705   3.374   8.018  0.4116  0.5171  0.2135
 6766SOL     OW24085   6.226   2.763   8.620  0.6856  0.6623  0.6252
 6766SOL    HW124086   6.210   2.686   8.567 -1.1839  0.7951  0.9434
 6766SOL    HW224087   6.251   2.831   8.557  0.2377  0.3571  0.1119
 6767SOL     OW24088   5.455   8.809   0.614 -0.3915 -0.1416  0.0300
 6767SOL    HW124089   5.512   8.756   0.558 -0.9454  0.0488 -0.7309
 6767SOL    HW224090   5.487   8.899   0.602 -1.0145 -0.0002 -0.6133
 6768SOL     OW24091   8.542   2.584   6.095  0.0393  0.6351  0.8478
 6768SOL    HW124092   8.465   2.581   6.038  0.3410 -2.2200  0.4722
 6768SOL    HW224093   8.525   2.659   6.153  0.0046  4.2140 -3.2488
 6769SOL     OW24094   0.242  10.308  10.186 -0.1679  0.0966 -0.2622
 6769SOL    HW124095   0.297  10.257  10.126  1.3964 -0.6406  1.6707
 6769SOL    HW224096   0.204  10.244  10.245  1.2869  1.0027  1.7940
 6770SOL     OW24097   4.901   8.978   8.456 -0.3980  0.0651 -0.1097
 6770SOL    HW124098   4.878   9.070   8.469  0.7591  0.4819 -0.8805
 6770SOL    HW224099   4.906   8.968   8.361 -0.8686 -0.8953 -0.0443
 6771SOL     OW24100   2.128   2.918   2.710 -0.5768  0.2297 -0.2564
 6771SOL    HW124101   2.131   3.008   2.678 -0.3144  0.8048  1.2897
 6771SOL    HW224102   2.071   2.923   2.787  1.3590 -0.4191  1.3035
 6772SOL     OW24103   0.142   3.280   1.472 -0.0911 -0.6764 -0.6748
 6772SOL    HW124104   0.231   3.282   1.438 -0.5254  0.0526 -1.8376
 6772SOL    HW224105   0.091   3.234   1.404 -1.0400  1.1220 -1.2590
 6773SOL     OW24106   1.972   3.146   4.230 -0.3635  0.2670  0.6390
 6773SOL    HW124107   1.949   3.053   4.234 -2.2302  0.6807  0.6257
 6773SOL    HW224108   1.923   3.179   4.155 -1.0576  1.5809  1.6322
 6774SOL     OW24109   2.619   4.711   2.201  0.2264 -0.1281  0.8252
 6774SOL    HW124110   2.549   4.771   2.228  0.4243  0.3922  0.2000
 6774SOL    HW224111   2.645   4.742   2.115 -0.4447 -1.7852 -0.0259
 6775SOL     OW24112   7.629   1.201   8.551 -0.3046  0.6226 -0.0557
 6775SOL    HW124113   7.566   1.194   8.622  0.4590  0.1957  0.5863
 6775SOL    HW224114   7.645   1.111   8.523 -1.2199  0.8281 -1.3426
 6776SOL     OW24115   9.154   2.446   2.277 -0.0455  0.0739 -0.3333
 6776SOL    HW124116   9.235   2.484   2.244  0.0562  0.4406  0.3165
 6776SOL    HW224117   9.130   2.502   2.351  1.3495 -2.4319  2.2172
 6777SOL     OW24118   0.040   5.639   5.619  0.0344 -0.5045 -0.0515
 6777SOL    HW124119   0.069   5.645   5.710 -0.2699  0.4563 -0.0120
 6777SOL    HW224120   0.121   5.631   5.568  0.4042  1.8322  0.0798
 6778SOL     OW24121   5.979   4.474   9.452  0.0330  0.0568  0.1793
 6778SOL    HW124122   5.989   4.535   9.379 -1.0304 -0.5438 -0.4940
 6778SOL    HW224123   6.067   4.466   9.489  0.3175  1.4540 -0.1479
 6779SOL     OW24124   7.079   1.098   1.842  0.3341  0.2478 -0.6751
 6779SOL    HW124125   7.171   1.107   1.817  0.3843 -1.1577 -1.1182
 6779SOL    HW224126   7.082   1.042   1.920 -0.1483  0.1231 -0.7466
 6780SOL     OW24127   3.579   3.895   3.314  0.1790  0.2876 -0.5246
 6780SOL    HW124128   3.582   3.925   3.223  0.0242  2.5447  0.1618
 6780SOL    HW224129   3.652   3.834   3.322 -0.5070 -0.8445 -2.4431
 6781SOL     OW24130   4.946  10.029   8.684 -0.4781 -0.2620  0.0570
 6781SOL    HW124131   4.957  10.110   8.733  0.9676 -0.0612 -0.5569
 6781SOL    HW224132   4.918  10.057   8.597 -1.5377 -0.5370  0.2860
 6782SOL     OW24133   7.193   1.757   1.564  0.4426  0.4187  0.1797
 6782SOL    HW124134   7.200   1.846   1.600 -0.2349  0.4808  0.1796
 6782SOL    HW224135   7.183   1.701   1.641  0.4213  0.3930  0.1579
 6783SOL     OW24136   9.587   1.671   4.962 -0.6012 -0.7107 -0.3390
 6783SOL    HW124137   9.563   1.660   5.054  0.2550  0.3814  0.0329
 6783SOL    HW224138   9.659   1.609   4.948  0.4259  0.3240  0.2131
 6784SOL     OW24139   7.797   0.730  10.186  0.1166 -0.2292 -0.6582
 6784SOL    HW124140   7.852   0.704  10.259 -0.4572 -1.0657 -0.4997
 6784SOL    HW224141   7.746   0.651  10.166 -1.0073  0.5038 -0.7928
 6785SOL     OW24142   0.877   1.046   0.053 -0.0803  0.0374  0.0174
 6785SOL    HW124143   0.955   1.027   0.000  0.5066 -0.6903  1.1051
 6785SOL    HW224144   0.856   1.137   0.033  1.6542  0.5649  0.4517
 6786SOL     OW24145   4.889   9.391   1.386 -0.5635 -0.2672  0.4359
 6786SOL    HW124146   4.933   9.476   1.391 -0.3318 -0.4186  1.1256
 6786SOL    HW224147   4.808   9.408   1.338  0.2633  0.0065 -0.9336
 6787SOL     OW24148   4.839   6.270   1.823  0.1364 -0.1235 -0.0275
 6787SOL    HW124149   4.879   6.264   1.909  0.0528  1.6306  0.1706
 6787SOL    HW224150   4.885   6.206   1.770  0.5929 -0.8067  1.1644
 6788SOL     OW24151   9.258   7.744   1.199  0.2107 -0.6549  0.0997
 6788SOL    HW124152   9.352   7.757   1.185  0.1691 -0.9240 -0.4719
 6788SOL    HW224153   9.218   7.828   1.178  0.2863 -0.6614 -0.0732
 6789SOL     OW24154   9.470   1.270   4.939 -0.3325 -0.2642 -0.4885
 6789SOL    HW124155   9.453   1.264   4.845 -0.0246  1.7383 -0.7200
 6789SOL    HW224156   9.465   1.180   4.970  0.9476 -1.1606 -2.6569
 6790SOL     OW24157   1.129   8.685  10.115 -0.0027  0.6180  0.0091
 6790SOL    HW124158   1.172   8.679  10.200 -0.7326  0.0518  0.3539
 6790SOL    HW224159   1.149   8.773  10.084  0.4247  0.7675  0.6845
 6791SOL     OW24160   4.144   3.075   0.825 -0.2994  0.0709 -0.2422
 6791SOL    HW124161   4.211   3.091   0.758  2.5282  0.3245  2.3933
 6791SOL    HW224162   4.071   3.035   0.777  0.8998  1.5619 -3.6452
 6792SOL     OW24163   9.023   9.480   5.745 -0.0287 -0.5872  0.1365
 6792SOL    HW124164   8.996   9.397   5.706 -0.4727 -0.5041  0.2561
 6792SOL    HW224165   9.087   9.456   5.812 -0.6014 -0.8941  0.5872
 6793SOL     OW24166   1.202   2.316   4.561  0.3799  0.5693  0.4225
 6793SOL    HW124167   1.196   2.247   4.628 -3.7925  0.3704  0.0926
 6793SOL    HW224168   1.175   2.396   4.605 -1.9349  0.5293 -0.7224
 6794SOL     OW24169   4.647   0.648   7.805  0.6345  0.0612  0.2171
 6794SOL    HW124170   4.718   0.597   7.845  0.0840 -0.1403  0.9695
 6794SOL    HW224171   4.582   0.583   7.780 -0.1592  0.3789  1.3624
 6795SOL     OW24172   3.372   5.797   8.658  0.7028 -0.1763 -0.2429
 6795SOL    HW124173   3.457   5.807   8.699  0.2919  1.7472  0.2197
 6795SOL    HW224174   3.317   5.865   8.697 -1.1314 -1.4874 -0.3551
 6796SOL     OW24175   6.861   5.073   8.137 -0.0961 -0.0458 -0.4897
 6796SOL    HW124176   6.814   5.105   8.214  0.7142  0.2739 -0.1145
 6796SOL    HW224177   6.849   4.978   8.140  2.0416 -0.3681  1.5353
 6797SOL     OW24178   3.326   2.415   4.487  0.2154  0.2030 -0.1115
 6797SOL    HW124179   3.272   2.479   4.440 -0.5172 -0.3694 -0.0801
 6797SOL    HW224180   3.363   2.360   4.418 -1.8377 -1.4075 -0.0496
 6798SOL     OW24181   8.643   4.660   1.015  0.0092  0.0415  0.3343
 6798SOL    HW124182   8.617   4.588   1.073 -0.0648 -0.3598 -0.1836
 6798SOL    HW224183   8.617   4.739   1.062 -1.1458 -0.3175  0.3180
 6799SOL     OW24184   3.644   2.586   3.043  0.6645  0.0236 -0.4236
 6799SOL    HW124185   3.674   2.515   2.987  0.5647 -0.6041  0.2993
 6799SOL    HW224186   3.595   2.542   3.113 -0.7085  0.9063 -0.7803
 6800SOL     OW24187   9.750   7.900   2.290  0.0237  0.0623 -0.3715
 6800SOL    HW124188   9.799   7.853   2.357 -1.5431 -1.1802 -0.0275
 6800SOL    HW224189   9.759   7.847   2.212 -0.1821  0.2068 -0.4941
 6801SOL     OW24190   4.801   4.169   5.109 -0.1107  0.1098  0.3533
 6801SOL    HW124191   4.775   4.183   5.018 -0.0328 -1.5117  0.0508
 6801SOL    HW224192   4.767   4.245   5.156 -0.0986  1.0009 -1.0349
 6802SOL     OW24193   5.798   2.183   7.793  0.2385 -0.1024 -0.3456
 6802SOL    HW124194   5.777   2.117   7.727  0.3646  1.3794 -1.9401
 6802SOL    HW224195   5.713   2.215   7.822  0.1437  1.4282 -2.1387
 6803SOL     OW24196   4.669   7.168  10.069  0.7661  0.2273  0.3176
 6803SOL    HW124197   4.586   7.178  10.024  0.0301 -0.3509  1.4740
 6803SOL    HW224198   4.690   7.256  10.102  1.4355  0.7026 -1.2935
 6804SOL     OW24199   0.311   5.894   3.849 -0.5373 -0.2280 -0.5995
 6804SOL    HW124200   0.398   5.861   3.828  0.3264  0.6812  1.3207
 6804SOL    HW224201   0.326   5.964   3.912 -2.5244  1.5244 -1.9375
 6805SOL     OW24202   3.534   0.900   8.522 -0.3416 -0.9453  0.2999
 6805SOL    HW124203   3.483   0.880   8.601  0.5885 -0.8533  0.9480
 6805SOL    HW224204   3.625   0.890   8.550  0.1326  1.5933 -0.0251
 6806SOL     OW24205   9.094   3.168   7.912 -0.2584 -0.0904  0.9751
 6806SOL    HW124206   9.028   3.233   7.937  0.7972  1.0789  0.8080
 6806SOL    HW224207   9.060   3.128   7.832 -0.7285  0.5713  0.8382
 6807SOL     OW24208   8.578   1.311   3.882  0.2525 -0.4591 -0.0949
 6807SOL    HW124209   8.586   1.216   3.871 -2.0392 -0.9207  1.6116
 6807SOL    HW224210   8.543   1.342   3.799  0.6075 -1.1672 -0.5180
 6808SOL     OW24211   2.412   5.331   3.629  0.4676  0.5449 -0.5306
 6808SOL    HW124212   2.500   5.301   3.650  0.1664 -0.4848 -0.6419
 6808SOL    HW224213   2.365   5.251   3.605 -1.2343  0.6116  2.0817
 6809SOL     OW24214   0.921   7.290   7.191 -0.6227 -0.1287  0.0464
 6809SOL    HW124215   0.842   7.257   7.149 -1.9231 -0.3503  2.4645
 6809SOL    HW224216   0.957   7.215   7.238  1.9548 -0.4303 -2.1192
 6810SOL     OW24217   8.446   4.703   8.789 -0.1363  0.2705  1.0053
 6810SOL    HW124218   8.458   4.798   8.790 -1.0565  0.3936  0.7764
 6810SOL    HW224219   8.505   4.672   8.720  0.8738  0.5610  1.7089
 6811SOL     OW24220   6.268   5.744   6.365 -0.2051  0.8580 -0.0805
 6811SOL    HW124221   6.326   5.715   6.295 -0.9168  2.9286 -1.6046
 6811SOL    HW224222   6.267   5.671   6.427  0.0170 -1.2930 -2.4741
 6812SOL     OW24223   1.004   5.991   5.581  0.0743 -0.4188 -0.4491
 6812SOL    HW124224   1.094   6.004   5.609  0.4924 -1.4739 -1.2682
 6812SOL    HW224225   0.966   6.079   5.581  1.3272  0.1443 -0.8704
 6813SOL     OW24226   5.518   8.051   7.782 -0.1758 -0.2700  0.2350
 6813SOL    HW124227   5.457   8.068   7.710  1.1306 -1.3437 -1.1962
 6813SOL    HW224228   5.580   8.123   7.778 -0.5375  0.0760  0.7893
 6814SOL     OW24229   1.524   8.436   1.686 -0.2509 -0.0572  0.1845
 6814SOL    HW124230   1.609   8.437   1.643  0.3425  0.0397  1.3241
 6814SOL    HW224231   1.492   8.526   1.678 -0.7158 -0.3151 -1.1081
 6815SOL     OW24232   3.889   3.982   0.426 -0.2404  0.3957  0.1107
 6815SOL    HW124233   3.965   3.986   0.484 -1.3619 -1.5873  1.8831
 6815SOL    HW224234   3.830   3.920   0.469 -1.3890 -0.8011 -2.9180
 6816SOL     OW24235   6.434   4.366   1.355  0.4386  0.0576 -0.6606
 6816SOL    HW124236   6.377   4.343   1.428  0.6880  1.0350 -0.1326
 6816SOL    HW224237   6.485   4.287   1.338  0.3288 -0.2020  0.1743
 6817SOL     OW24238   8.659   7.636   9.512  0.2717 -0.0952  0.3405
 6817SOL    HW124239   8.635   7.559   9.564  1.9382 -0.6419  0.3938
 6817SOL    HW224240   8.738   7.608   9.465  0.3599  1.2848 -0.3764
 6818SOL     OW24241   4.181   6.534   2.330 -0.5495 -0.5965  0.4703
 6818SOL    HW124242   4.156   6.623   2.354 -1.3836 -0.1116 -1.9442
 6818SOL    HW224243   4.263   6.519   2.377 -0.2650  1.5161  0.7537
 6819SOL     OW24244   0.956   6.304   6.056  0.0563 -0.3170 -0.3943
 6819SOL    HW124245   0.929   6.271   5.970  1.5978 -0.5293 -0.8426
 6819SOL    HW224246   1.003   6.385   6.037  0.0238 -0.1344  0.2842
 6820SOL     OW24247   0.697   5.466   0.209  0.2752  0.0300 -0.2351
 6820SOL    HW124248   0.696   5.371   0.206  1.4045  0.0434 -2.3118
 6820SOL    HW224249   0.619   5.493   0.159 -0.6144  0.2351  1.1981
 6821SOL     OW24250   2.454   2.867   9.090 -0.2070  0.0703 -0.1660
 6821SOL    HW124251   2.540   2.848   9.128  0.9985 -0.2916 -2.8485
 6821SOL    HW224252   2.474   2.905   9.004 -2.7472  0.5638 -0.6026
 6822SOL     OW24253   3.315   5.621   1.126  0.6755  0.5005 -0.4942
 6822SOL    HW124254   3.378   5.665   1.183  0.5985 -1.4675  1.2373
 6822SOL    HW224255   3.328   5.528   1.144 -3.2666 -0.0109  0.6328
 6823SOL     OW24256   8.012   5.551   0.349 -0.0836  0.1894  0.4008
 6823SOL    HW124257   8.095   5.518   0.383  0.9299  1.4410 -0.7317
 6823SOL    HW224258   8.036   5.627   0.296 -2.0573  1.1380  0.7761
 6824SOL     OW24259   7.357   4.898   5.383 -0.6442 -0.2150 -0.1048
 6824SOL    HW124260   7.269   4.859   5.381 -0.4162 -0.7201 -0.4836
 6824SOL    HW224261   7.371   4.920   5.475 -1.3475  0.2826 -0.1057
 6825SOL     OW24262   6.706   9.806   3.826  0.1782 -0.2316 -0.2679
 6825SOL    HW124263   6.795   9.832   3.800 -0.0631 -0.4954 -1.4533
 6825SOL    HW224264   6.719   9.742   3.896  1.0557 -1.9218 -1.8766
 6826SOL     OW24265   3.297  10.236   7.292  0.1567  0.0913 -0.2716
 6826SOL    HW124266   3.219  10.286   7.316 -0.0864  0.3830 -1.5618
 6826SOL    HW224267   3.300  10.164   7.354  0.3977  1.5629  1.5220
 6827SOL     OW24268   1.590   1.520   9.877 -0.6199 -0.3585 -0.5878
 6827SOL    HW124269   1.507   1.513   9.926 -1.6527 -0.8754 -2.3370
 6827SOL    HW224270   1.654   1.476   9.933 -1.9156 -1.6165 -0.0389
 6828SOL     OW24271   6.698   1.548   9.270 -0.1839 -0.4028 -0.1191
 6828SOL    HW124272   6.743   1.623   9.308 -0.4592  0.6913 -1.8693
 6828SOL    HW224273   6.620   1.585   9.229  0.3788 -1.4009 -2.2368
 6829SOL     OW24274   0.474   3.439   5.673 -0.8939  0.6620 -0.6790
 6829SOL    HW124275   0.534   3.457   5.746 -1.6444 -2.0905  0.7606
 6829SOL    HW224276   0.387   3.456   5.709 -1.1804  1.1440 -1.5791
 6830SOL     OW24277   7.674   5.624   0.727 -0.1963  0.0361 -0.3166
 6830SOL    HW124278   7.609   5.596   0.792  0.4155  0.7703  0.6331
 6830SOL    HW224279   7.672   5.555   0.661 -0.2078 -1.2006  0.9169
 6831SOL     OW24280   6.208   1.666   1.396 -0.0019  0.5614  0.0990
 6831SOL    HW124281   6.197   1.617   1.477 -2.7873 -0.6924 -0.9078
 6831SOL    HW224282   6.300   1.656   1.373  0.2134 -1.4064  1.6565
 6832SOL     OW24283  10.114   9.690   3.880 -0.4785 -0.4840 -0.1425
 6832SOL    HW124284  10.186   9.628   3.878  2.1123  2.2862 -1.8826
 6832SOL    HW224285  10.060   9.667   3.804  0.9427 -0.1278 -1.2919
 6833SOL     OW24286   4.316   3.898   0.832  0.2234 -0.0427  0.1577
 6833SOL    HW124287   4.303   3.803   0.827 -1.2409  0.1838 -1.4797
 6833SOL    HW224288   4.313   3.918   0.926  0.3704 -1.5847  0.5168
 6834SOL     OW24289   8.930   7.105   8.922 -0.0123  0.3911 -0.0222
 6834SOL    HW124290   9.021   7.112   8.893 -0.2627  1.4161 -0.6372
 6834SOL    HW224291   8.912   7.011   8.923  1.3006  0.1221  0.9600
 6835SOL     OW24292   7.106   4.542   8.768  0.1324  0.1815 -0.5008
 6835SOL    HW124293   7.182   4.519   8.715  0.3711  0.8474 -0.4551
 6835SOL    HW224294   7.141   4.597   8.838 -0.1220 -0.9766  0.5727
 6836SOL     OW24295   4.844   4.466   1.478  0.3062 -0.3461  0.6724
 6836SOL    HW124296   4.923   4.414   1.493  0.5412 -0.2714 -0.2439
 6836SOL    HW224297   4.876   4.554   1.457  0.0833 -0.7006 -1.3462
 6837SOL     OW24298   7.179   9.798   1.689  0.2846 -0.4168  0.2686
 6837SOL    HW124299   7.193   9.706   1.667  2.8850 -0.0847  0.2576
 6837SOL    HW224300   7.103   9.823   1.637 -0.9897 -2.7055  0.8565
 6838SOL     OW24301   7.954   2.808   2.759  0.6853  0.0323 -0.2553
 6838SOL    HW124302   8.029   2.841   2.709  1.0987 -1.4359 -0.6561
 6838SOL    HW224303   7.991   2.744   2.819  0.0357  0.9687  1.2104
 6839SOL     OW24304   8.909   1.582   0.648 -0.7205 -0.3302 -0.0730
 6839SOL    HW124305   8.934   1.571   0.556 -0.3834  0.9754 -0.1528
 6839SOL    HW224306   8.821   1.620   0.644  0.5351  2.9252  0.0071
 6840SOL     OW24307   0.571   2.667   0.747  0.1583 -0.2573 -0.6673
 6840SOL    HW124308   0.562   2.745   0.802 -2.1882 -0.4688 -0.6829
 6840SOL    HW224309   0.616   2.604   0.804 -0.6534  0.1119  0.4320
 6841SOL     OW24310   7.689   9.414   1.373 -0.1233  0.1479 -0.4123
 6841SOL    HW124311   7.731   9.340   1.329  0.4183  0.5832 -0.6435
 6841SOL    HW224312   7.605   9.425   1.327 -1.4027 -1.9274  1.2768
 6842SOL     OW24313   9.991   8.482   4.609  0.0502  0.1092 -0.3902
 6842SOL    HW124314   9.905   8.440   4.606  0.1059 -0.0214 -0.0653
 6842SOL    HW224315  10.032   8.457   4.526  0.7108 -1.7916  0.4645
 6843SOL     OW24316   1.288   9.620   5.496  0.1470  0.3224  0.4160
 6843SOL    HW124317   1.214   9.569   5.531  1.8861 -1.0200  2.4186
 6843SOL    HW224318   1.280   9.706   5.538 -1.0493  0.6913 -0.5190
 6844SOL     OW24319   4.761   7.555   9.503  0.1166 -0.3798  0.4230
 6844SOL    HW124320   4.800   7.470   9.482 -0.5039 -0.0198 -2.6154
 6844SOL    HW224321   4.812   7.587   9.578  1.6763 -2.5256  0.3661
 6845SOL     OW24322   0.208   8.906   3.587 -0.9826  0.3200  0.0022
 6845SOL    HW124323   0.134   8.957   3.554 -0.2659  2.8168  1.9005
 6845SOL    HW224324   0.255   8.967   3.645  0.1927 -2.4302  2.1721
 6846SOL     OW24325   2.644   6.692   6.439 -0.1264 -0.3217 -0.4840
 6846SOL    HW124326   2.688   6.698   6.524  0.5848  1.4373 -0.9260
 6846SOL    HW224327   2.561   6.648   6.458  1.3923 -2.9499  0.5101
 6847SOL     OW24328   2.621   6.744   7.021  0.4683  0.1720 -0.1884
 6847SOL    HW124329   2.700   6.691   7.037  0.5282  0.2933 -0.0857
 6847SOL    HW224330   2.553   6.679   7.004  0.1309 -0.0326  1.6906
 6848SOL     OW24331   0.661   5.656   9.231  0.0412  0.2580 -0.2224
 6848SOL    HW124332   0.754   5.678   9.222  0.2346  0.1113  1.1678
 6848SOL    HW224333   0.624   5.729   9.281 -0.9770  1.1425 -2.1439
 6849SOL     OW24334   5.118   2.053   8.920  0.0718  0.1806 -0.3151
 6849SOL    HW124335   5.131   2.054   8.825 -0.0564 -1.1706 -0.3731
 6849SOL    HW224336   5.083   1.966   8.938 -3.0263  1.4857  0.5816
 6850SOL     OW24337   8.650   0.555   1.227  0.2895  0.4072 -0.5036
 6850SOL    HW124338   8.693   0.470   1.237  1.3488  0.8788 -0.9406
 6850SOL    HW224339   8.617   0.576   1.314 -1.2625 -1.1017 -0.6786
 6851SOL     OW24340   1.846   1.350   4.037  0.1884  0.4669  0.2273
 6851SOL    HW124341   1.871   1.433   4.076  0.2112 -0.0410  1.3401
 6851SOL    HW224342   1.928   1.300   4.034 -0.0855 -0.0481  0.9581
 6852SOL     OW24343   9.462   7.374   2.116 -0.2119  0.2140 -0.0497
 6852SOL    HW124344   9.486   7.282   2.127 -4.2776 -1.0217  0.0506
 6852SOL    HW224345   9.448   7.406   2.205 -0.4152  0.4542 -0.1680
 6853SOL     OW24346   5.225   2.692   8.591 -0.2125 -0.3096  0.4579
 6853SOL    HW124347   5.286   2.649   8.650 -0.7048 -0.5505  0.8009
 6853SOL    HW224348   5.274   2.705   8.510  0.3623 -0.2768  0.8084
 6854SOL     OW24349   0.520   1.645   2.477  0.0694  0.6022 -0.0142
 6854SOL    HW124350   0.552   1.598   2.400 -1.2558  1.1744 -0.9447
 6854SOL    HW224351   0.521   1.579   2.547  1.3441  0.0877 -0.4827
 6855SOL     OW24352   1.988   9.977   5.355 -0.4111 -0.3007 -0.5683
 6855SOL    HW124353   1.971   9.927   5.434  1.0916  0.7468  0.4588
 6855SOL    HW224354   1.901  10.007   5.326 -1.1120 -1.8396 -0.1294
 6856SOL     OW24355   1.028   2.258   4.987 -0.7101 -0.2665  0.1023
 6856SOL    HW124356   1.042   2.352   4.980 -3.0832  0.0599 -1.6600
 6856SOL    HW224357   1.114   2.219   4.971 -0.1486  1.5611 -1.7228
 6857SOL     OW24358  10.256   0.018   5.902 -0.0087  0.0350  0.4599
 6857SOL    HW124359  10.303  -0.008   5.982 -0.4737  0.1185  0.7653
 6857SOL    HW224360  10.186   0.075   5.933  0.7674  1.3606 -0.1753
 6858SOL     OW24361   0.883   2.474   4.650  0.1199 -0.0518  0.0344
 6858SOL    HW124362   0.874   2.401   4.711  3.8633 -0.3309  0.4987
 6858SOL    HW224363   0.855   2.551   4.700  0.1336 -0.6740  1.0183
 6859SOL     OW24364   3.836   0.148   1.681  0.5408  0.2865  0.3453
 6859SOL    HW124365   3.823   0.154   1.586  0.5509 -0.4266  0.2959
 6859SOL    HW224366   3.749   0.163   1.718 -0.2904 -3.0717  0.0698
 6860SOL     OW24367   3.772   0.126   1.426  0.7430 -0.0044  0.8592
 6860SOL    HW124368   3.705   0.102   1.363  0.2879  1.5966  0.6710
 6860SOL    HW224369   3.853   0.126   1.376  0.5228  0.3058  0.4917
 6861SOL     OW24370   2.055   7.522   5.922  0.1733 -0.2971 -0.4013
 6861SOL    HW124371   1.975   7.560   5.959  1.0265 -0.9206  2.2817
 6861SOL    HW224372   2.117   7.595   5.920  0.9510 -0.8020  2.1115
 6862SOL     OW24373   6.266   3.713   3.085 -0.5233  0.0530  0.1195
 6862SOL    HW124374   6.257   3.645   3.018 -0.6192  1.1782 -1.0525
 6862SOL    HW224375   6.359   3.734   3.085 -0.5024 -0.0426  0.4318
 6863SOL     OW24376   5.719   5.047   3.255  0.5167 -0.1331  0.1162
 6863SOL    HW124377   5.639   5.079   3.297  1.1399  0.4876  0.8474
 6863SOL    HW224378   5.731   4.959   3.291  0.2262 -0.1814  0.0980
 6864SOL     OW24379   3.198   1.594   5.596  0.0347  0.9142 -0.1958
 6864SOL    HW124380   3.292   1.582   5.578 -0.2968 -0.3879 -1.2630
 6864SOL    HW224381   3.156   1.526   5.544 -1.4997  1.3368  0.4584
 6865SOL     OW24382   0.021   0.401   5.276  0.3892 -0.0314 -0.3106
 6865SOL    HW124383  -0.062   0.422   5.233  0.1855 -0.7195 -0.2612
 6865SOL    HW224384   0.058   0.331   5.222  0.5130 -0.3460  0.1829
 6866SOL     OW24385   5.040   1.912   4.036 -0.4133  0.1446  0.0812
 6866SOL    HW124386   5.057   2.001   4.007  0.9908 -0.0781  0.1407
 6866SOL    HW224387   5.117   1.888   4.088 -0.7467 -1.1073  0.0436
 6867SOL     OW24388   2.572   5.860   4.549 -0.0401  0.7077  0.0690
 6867SOL    HW124389   2.557   5.945   4.591  0.8637  0.6294  0.5794
 6867SOL    HW224390   2.610   5.881   4.464  1.0606  0.8033  0.5755
 6868SOL     OW24391   2.501   4.284   6.153 -0.3505 -0.6494  0.0437
 6868SOL    HW124392   2.556   4.270   6.230 -0.2093 -0.8227 -0.0871
 6868SOL    HW224393   2.558   4.327   6.089 -0.4300 -0.6243 -0.0115
 6869SOL     OW24394   0.046   5.899   0.485 -1.0936 -0.3006  0.1721
 6869SOL    HW124395   0.127   5.890   0.536 -1.8087 -0.0479  1.3905
 6869SOL    HW224396   0.062   5.847   0.406 -0.2310 -1.3592  1.0030
 6870SOL     OW24397   7.792   4.617   5.692 -0.7656 -0.4562  0.0915
 6870SOL    HW124398   7.714   4.638   5.641 -2.2649  0.5276  2.5641
 6870SOL    HW224399   7.764   4.543   5.747  0.5975 -1.1495 -0.1200
 6871SOL     OW24400   0.720   5.234   8.561  0.1699 -0.1945 -0.6123
 6871SOL    HW124401   0.777   5.269   8.629  0.3043 -0.4648 -0.5856
 6871SOL    HW224402   0.777   5.222   8.485  0.6922 -2.5461  0.0534
 6872SOL     OW24403   3.825   1.033   2.726  0.0770  0.2399 -0.6023
 6872SOL    HW124404   3.887   1.083   2.780 -0.7952  0.4913  0.2036
 6872SOL    HW224405   3.807   1.090   2.651 -2.1659  1.9751  1.1000
 6873SOL     OW24406   5.903   0.584   3.144  0.2577  0.5288 -0.0084
 6873SOL    HW124407   5.883   0.490   3.152  2.6966  0.0420  1.3526
 6873SOL    HW224408   5.957   0.591   3.066  0.3670  0.7586  0.0872
 6874SOL     OW24409   4.589   4.326   3.226  0.2797 -0.7131 -0.2715
 6874SOL    HW124410   4.644   4.377   3.286 -0.0975 -1.2908  0.5901
 6874SOL    HW224411   4.501   4.361   3.240 -0.2914 -2.7429  1.6520
 6875SOL     OW24412   8.867   4.439   1.726 -0.7367  0.0018  0.2748
 6875SOL    HW124413   8.860   4.463   1.633  2.1332  0.4501  0.0735
 6875SOL    HW224414   8.831   4.514   1.773 -2.8338 -0.5066 -0.4187
 6876SOL     OW24415   4.733   0.632   0.054  1.0915  0.0434  0.4209
 6876SOL    HW124416   4.756   0.679   0.135  1.4465 -0.3065  0.5273
 6876SOL    HW224417   4.661   0.575   0.079 -0.2106  1.4125  0.0002
 6877SOL     OW24418   4.783   5.469   1.439  0.0562  0.6314  0.2074
 6877SOL    HW124419   4.829   5.550   1.458 -0.2169  0.2604  2.8427
 6877SOL    HW224420   4.707   5.495   1.386 -0.2841  2.1601  1.4069
 6878SOL     OW24421   8.901   9.352   3.916  0.1017  0.3665 -0.1946
 6878SOL    HW124422   8.865   9.291   3.851 -1.0897  0.9591 -0.1166
 6878SOL    HW224423   8.933   9.426   3.864  3.9363 -1.3152 -0.5509
 6879SOL     OW24424   9.836   6.090   2.266  0.6144 -0.1833 -0.0074
 6879SOL    HW124425   9.777   6.165   2.255  0.4045 -0.3996 -0.3866
 6879SOL    HW224426   9.842   6.078   2.361 -1.1374 -1.0781  0.0381
 6880SOL     OW24427   7.260   8.086   2.249 -0.0581  0.0489 -0.4548
 6880SOL    HW124428   7.265   8.122   2.160 -1.2603 -0.1705 -0.6290
 6880SOL    HW224429   7.347   8.046   2.263  0.0570 -0.1759 -1.6523
 6881SOL     OW24430   6.299   7.007   9.712  0.2665  0.0639  0.6175
 6881SOL    HW124431   6.361   6.934   9.709  0.2254 -0.0175  1.4564
 6881SOL    HW224432   6.350   7.083   9.685  1.0572  0.1896  2.3219
 6882SOL     OW24433   3.521   9.418   8.323 -0.1868  0.5451 -0.3511
 6882SOL    HW124434   3.461   9.346   8.307  0.5587  0.3092 -2.5384
 6882SOL    HW224435   3.512   9.438   8.416 -1.5815 -1.2921 -0.0424
 6883SOL     OW24436   5.538   3.869   5.465 -0.1119  0.1982 -0.0134
 6883SOL    HW124437   5.566   3.792   5.415 -0.6482  2.1183 -3.6721
 6883SOL    HW224438   5.614   3.928   5.460 -1.2883  1.6707 -1.4828
 6884SOL     OW24439   7.055   6.607   6.168  0.3723 -0.2722  0.4125
 6884SOL    HW124440   7.059   6.576   6.077  1.5285  2.1335 -0.4349
 6884SOL    HW224441   7.144   6.636   6.188 -0.8278  4.0047  0.4350
 6885SOL     OW24442   4.652   9.609   3.770  0.1696  0.3779 -0.3683
 6885SOL    HW124443   4.696   9.525   3.773 -1.1933 -0.3804 -0.7082
 6885SOL    HW224444   4.681   9.649   3.688 -0.0909 -0.2889 -0.7904
 6886SOL     OW24445   6.561   1.816   4.707  0.2919  0.6941 -0.3836
 6886SOL    HW124446   6.530   1.906   4.713  0.2739  0.8454 -2.0827
 6886SOL    HW224447   6.636   1.820   4.647  0.6343 -0.3429 -0.0548
 6887SOL     OW24448   2.094   6.758   3.907 -0.0472  0.3770  0.2031
 6887SOL    HW124449   2.088   6.728   3.998  2.7416  3.3031  1.5795
 6887SOL    HW224450   2.157   6.699   3.867  0.5173  0.4765  0.9166
 6888SOL     OW24451   0.149   0.220   5.107  0.6919  0.0488  0.3120
 6888SOL    HW124452   0.191   0.230   5.021  0.4306 -0.5629  0.1113
 6888SOL    HW224453   0.170   0.131   5.134 -0.1019 -0.1141  0.4117
 6889SOL     OW24454  10.199   5.214   5.608  0.3170  0.5706 -1.1594
 6889SOL    HW124455  10.186   5.307   5.589 -0.5378  0.4322 -1.2994
 6889SOL    HW224456  10.211   5.173   5.522 -1.4741  0.2523 -1.3117
 6890SOL     OW24457   8.427   0.878  10.191  0.4616  0.3614 -0.3564
 6890SOL    HW124458   8.426   0.902  10.283  1.1459  0.6096 -0.4079
 6890SOL    HW224459   8.361   0.934  10.150 -0.8171 -0.6738  0.1889
 6891SOL     OW24460   8.773   0.288   9.488 -0.2223 -0.1007  0.1933
 6891SOL    HW124461   8.735   0.369   9.522 -1.2550 -0.3917 -0.2497
 6891SOL    HW224462   8.712   0.259   9.420  0.2037 -1.1857  0.2564
 6892SOL     OW24463   7.296   1.861   1.304 -0.5207 -0.0072 -0.3483
 6892SOL    HW124464   7.253   1.794   1.251  0.1001 -0.1530 -0.6758
 6892SOL    HW224465   7.286   1.831   1.394 -1.0746 -0.0515 -0.4188
 6893SOL     OW24466   0.007  10.160   0.248 -0.1197  0.0411  0.8442
 6893SOL    HW124467  -0.024  10.211   0.323  0.4332 -0.7276  1.6185
 6893SOL    HW224468  -0.041  10.078   0.253 -0.2919  0.0932  0.1762
 6894SOL     OW24469   6.591   4.977   9.594  0.0428  0.2184  0.1856
 6894SOL    HW124470   6.641   4.907   9.552  0.5302 -0.2265  1.4660
 6894SOL    HW224471   6.587   4.952   9.686  0.6437  2.1075  0.7732
 6895SOL     OW24472   1.518   1.244   8.586  0.0300 -0.1941 -0.4443
 6895SOL    HW124473   1.603   1.204   8.568  0.8279  1.2948 -0.1481
 6895SOL    HW224474   1.503   1.304   8.513 -1.2735 -1.1879 -1.0257
 6896SOL     OW24475   2.744  10.331   2.146 -0.0094 -0.0720  0.1609
 6896SOL    HW124476   2.775  10.242   2.126  1.3662  0.7390 -1.6841
 6896SOL    HW224477   2.818  10.371   2.192  0.5369  0.9196 -1.4906
 6897SOL     OW24478   2.014   9.975   2.621  0.3371  0.4298  0.0901
 6897SOL    HW124479   1.969   9.941   2.543 -0.7147  0.6293  0.5922
 6897SOL    HW224480   2.096  10.009   2.588  0.5669 -0.8270 -0.7221
 6898SOL     OW24481   3.405   6.891   1.439  0.6173 -0.1274 -0.1899
 6898SOL    HW124482   3.482   6.835   1.433  0.8730  0.0405  1.1895
 6898SOL    HW224483   3.385   6.895   1.533  0.4371  1.8489 -0.2688
 6899SOL     OW24484   4.585   2.698   6.042 -0.5154  0.0775 -0.2630
 6899SOL    HW124485   4.500   2.705   6.085  0.4771 -0.6782  1.9866
 6899SOL    HW224486   4.604   2.605   6.041  0.9220  0.3202  0.7095
 6900SOL     OW24487   7.167  10.258   6.495  0.0980 -0.5524 -0.0192
 6900SOL    HW124488   7.178  10.245   6.401 -0.6114 -0.7778 -0.0790
 6900SOL    HW224489   7.256  10.268   6.529  0.4201 -1.4149 -0.5778
 6901SOL     OW24490   2.071   7.282   8.416 -0.3406  0.7608  0.1147
 6901SOL    HW124491   1.977   7.260   8.417 -0.1618 -0.0687 -0.0017
 6901SOL    HW224492   2.094   7.291   8.508  0.1855 -2.4752  0.4218
 6902SOL     OW24493   5.442   6.528   0.233  0.0022  0.3753 -0.1820
 6902SOL    HW124494   5.413   6.479   0.311  0.0125  0.7496  0.0612
 6902SOL    HW224495   5.536   6.542   0.248 -0.0589  0.7154 -0.1129
 6903SOL     OW24496   8.319   9.123   7.802 -0.4254  0.1529 -0.2577
 6903SOL    HW124497   8.259   9.112   7.876 -2.3260  0.4373 -1.6902
 6903SOL    HW224498   8.347   9.033   7.781  1.5872  0.1910  1.8590
 6904SOL     OW24499  10.082   7.823   3.723 -0.2557 -0.5486  0.0510
 6904SOL    HW124500  10.068   7.794   3.633 -1.7611  0.9408 -0.2449
 6904SOL    HW224501  10.047   7.912   3.725 -0.3251 -0.5813  2.1448
 6905SOL     OW24502   4.918   8.617   1.567  0.6394 -0.2302 -0.4781
 6905SOL    HW124503   4.975   8.608   1.490  2.4904  0.3263  0.7570
 6905SOL    HW224504   4.881   8.705   1.559 -0.5856 -0.8101 -1.5937
 6906SOL     OW24505   1.080   1.721   4.453  0.2133  0.2493  0.1827
 6906SOL    HW124506   1.111   1.811   4.458  0.1903  0.2369  0.6450
 6906SOL    HW224507   0.997   1.727   4.404 -0.0871  0.5635  0.7201
 6907SOL     OW24508   1.722   6.610   3.002  0.0379  0.4827 -0.7515
 6907SOL    HW124509   1.696   6.674   3.069  1.1658  0.5245 -0.3270
 6907SOL    HW224510   1.673   6.636   2.924  0.5396  1.9380 -0.6106
 6908SOL     OW24511   3.699   4.551   4.857 -0.4900 -0.0274  0.0775
 6908SOL    HW124512   3.638   4.563   4.930 -0.6891 -0.2385 -0.0531
 6908SOL    HW224513   3.643   4.546   4.779 -0.1873  2.0455 -0.3285
 6909SOL     OW24514   5.516   4.593   1.875  0.3596 -0.0593 -0.2691
 6909SOL    HW124515   5.426   4.624   1.863  0.0705 -1.3764 -1.7046
 6909SOL    HW224516   5.510   4.531   1.947  0.0312 -0.4589 -0.6354
 6910SOL     OW24517   7.174   2.983   2.408 -0.2408  0.2200  0.8675
 6910SOL    HW124518   7.205   2.999   2.497 -0.6422 -0.5323  1.1462
 6910SOL    HW224519   7.097   3.040   2.399  2.0440  3.4340 -0.4064
 6911SOL     OW24520   6.409   5.024   6.171  0.1632 -0.1777 -0.4619
 6911SOL    HW124521   6.414   5.069   6.086  1.1087  1.4081  0.3868
 6911SOL    HW224522   6.414   5.094   6.236 -2.1811 -1.2057  0.9538
 6912SOL     OW24523   1.483   7.938   0.133 -0.0260 -0.1888 -0.2845
 6912SOL    HW124524   1.438   7.911   0.213  1.4567 -1.7654  0.0508
 6912SOL    HW224525   1.575   7.948   0.159  0.6092 -1.4195 -1.9204
 6913SOL     OW24526   4.029   2.903   0.372  0.2776  1.0334  0.2732
 6913SOL    HW124527   4.064   2.819   0.402 -1.3700  0.0491 -0.4647
 6913SOL    HW224528   4.106   2.961   0.369  1.3978 -0.3548  1.0438
 6914SOL     OW24529   2.321   1.212   9.672 -0.2575 -0.7207 -0.1413
 6914SOL    HW124530   2.374   1.252   9.602  1.3254  0.7100  1.7607
 6914SOL    HW224531   2.232   1.243   9.654 -0.2124 -1.6528 -2.3509
 6915SOL     OW24532   8.699   8.509   2.367 -0.6879 -0.0799  0.1381
 6915SOL    HW124533   8.620   8.532   2.320  0.5083  0.8370 -1.5248
 6915SOL    HW224534   8.695   8.413   2.375 -1.0867 -0.2387 -1.5954
 6916SOL     OW24535   9.556   9.675   8.969  0.2545 -0.9055 -0.0875
 6916SOL    HW124536   9.567   9.770   8.973  0.1266 -0.9041  0.3760
 6916SOL    HW224537   9.467   9.661   9.003  0.0097 -1.1372 -0.8183
 6917SOL     OW24538   2.372   7.675   7.218 -0.6798  0.5860 -0.2450
 6917SOL    HW124539   2.295   7.665   7.162 -0.0776 -0.0458 -0.9902
 6917SOL    HW224540   2.377   7.594   7.268  1.4795 -1.0197 -2.7929
 6918SOL     OW24541   6.530   6.089   3.632 -0.5878  0.1520  0.0774
 6918SOL    HW124542   6.577   6.017   3.590 -0.8774 -0.7327  1.2012
 6918SOL    HW224543   6.574   6.099   3.717 -1.5370  0.2291  0.5731
 6919SOL     OW24544   7.374   0.234  10.087 -0.1947 -0.1239 -0.3950
 6919SOL    HW124545   7.324   0.159  10.120 -0.4422 -0.0710 -0.6523
 6919SOL    HW224546   7.464   0.203  10.084 -0.1882 -0.1710  0.2132
 6920SOL     OW24547   3.264   1.183   9.063 -0.4021  0.2517 -0.1754
 6920SOL    HW124548   3.306   1.266   9.085 -0.7126  0.2162  0.5851
 6920SOL    HW224549   3.226   1.197   8.976 -0.2834  0.8406 -0.1340
 6921SOL     OW24550   8.302   2.606   5.982  0.4817  0.1377 -0.1297
 6921SOL    HW124551   8.232   2.661   6.018 -0.0994  0.8394 -2.1857
 6921SOL    HW224552   8.277   2.592   5.891  2.4532 -0.5854 -0.6103
 6922SOL     OW24553   4.216   2.689   1.648 -0.4240 -0.0749 -0.2006
 6922SOL    HW124554   4.189   2.605   1.610 -0.5710  0.4234 -1.2492
 6922SOL    HW224555   4.289   2.718   1.593  0.8514 -0.3640  1.2764
 6923SOL     OW24556   2.457   7.210   4.718  0.3998 -0.0117  0.3676
 6923SOL    HW124557   2.463   7.115   4.727 -3.6573 -0.6364 -1.2769
 6923SOL    HW224558   2.442   7.242   4.807 -0.3981 -1.1937  0.6791
 6924SOL     OW24559   5.289   4.883   2.896  0.4331  0.5019  0.1878
 6924SOL    HW124560   5.273   4.818   2.827 -1.3527 -1.1051  1.9921
 6924SOL    HW224561   5.369   4.852   2.940  1.4374  1.3967 -0.9433
 6925SOL     OW24562   3.717   2.779   9.977 -0.1691 -0.0167  0.5342
 6925SOL    HW124563   3.624   2.771   9.954 -0.0810  0.9386 -0.2039
 6925SOL    HW224564   3.720   2.762  10.072 -0.9125 -1.2971  0.3565
 6926SOL     OW24565   8.655   5.446   1.127  0.0579 -0.6460 -0.1024
 6926SOL    HW124566   8.690   5.529   1.096 -0.1939 -0.2954  0.5371
 6926SOL    HW224567   8.687   5.381   1.064  0.2318 -0.0651 -0.6190
 6927SOL     OW24568   2.826   6.212  10.214  0.1428 -0.2119 -0.4947
 6927SOL    HW124569   2.909   6.239  10.176  0.4208  0.3923  0.5015
 6927SOL    HW224570   2.774   6.182  10.140  0.8443  0.4573 -1.2705
 6928SOL     OW24571   4.665  10.198   5.490  0.0544 -0.2838  0.2219
 6928SOL    HW124572   4.579  10.166   5.519  0.3419  0.1405  1.6350
 6928SOL    HW224573   4.682  10.274   5.546  1.5790 -0.6811  0.3492
 6929SOL     OW24574   9.422   7.803   4.659  0.1087 -0.1504  0.2282
 6929SOL    HW124575   9.409   7.771   4.569  2.2391 -0.0135 -0.1881
 6929SOL    HW224576   9.354   7.760   4.710 -0.6748 -0.8344 -1.3261
 6930SOL     OW24577   7.725   6.197  10.289  0.1237 -0.2808 -0.5588
 6930SOL    HW124578   7.747   6.211  10.381 -0.3706  1.7278 -0.7044
 6930SOL    HW224579   7.807   6.214  10.242 -0.1402  0.9120 -0.6253
 6931SOL     OW24580   2.785   4.690   5.639 -0.3185 -0.2375 -0.2081
 6931SOL    HW124581   2.756   4.769   5.685 -2.4982 -0.7987 -0.5219
 6931SOL    HW224582   2.797   4.625   5.708  0.1653 -0.0283 -0.0872
 6932SOL     OW24583   7.056   1.823   7.850 -0.1598  0.3533 -0.2130
 6932SOL    HW124584   6.997   1.750   7.869 -0.4461  0.4907 -0.5814
 6932SOL    HW224585   7.030   1.854   7.764  0.6709  0.1944 -0.5382
 6933SOL     OW24586   7.190   3.660   8.368 -0.0652  0.0364  0.2721
 6933SOL    HW124587   7.156   3.574   8.346  0.9638  0.2254 -2.3876
 6933SOL    HW224588   7.225   3.695   8.286 -3.5724  4.5286  0.2782
 6934SOL     OW24589   3.500   4.382   3.866  0.0595 -0.6083  0.6369
 6934SOL    HW124590   3.480   4.431   3.945 -0.0058  0.3882  0.0241
 6934SOL    HW224591   3.588   4.347   3.879  0.3299  0.1545  0.8542
 6935SOL     OW24592   2.080   5.596   2.808  0.4311 -0.2036  0.0035
 6935SOL    HW124593   2.110   5.637   2.727 -0.7178 -0.4798 -0.5763
 6935SOL    HW224594   1.984   5.597   2.802  0.3517 -1.8530  0.5358
 6936SOL     OW24595   7.018   9.237   9.688 -0.0857  0.3157  0.3363
 6936SOL    HW124596   7.038   9.144   9.673 -1.6194 -0.3723  2.0763
 6936SOL    HW224597   7.103   9.278   9.703  0.6115 -0.8159 -0.3291
 6937SOL     OW24598   9.350   6.003   4.825 -0.1398 -0.1917 -0.2138
 6937SOL    HW124599   9.436   6.043   4.841  0.7081 -2.0928  0.3367
 6937SOL    HW224600   9.339   6.006   4.730 -0.4883  1.9850 -0.1595
 6938SOL     OW24601   4.626   5.092   6.124 -0.2546 -0.0173 -0.3328
 6938SOL    HW124602   4.642   4.997   6.125  1.1944  0.2113 -0.5348
 6938SOL    HW224603   4.605   5.113   6.216  0.9328 -0.2985  0.0161
 6939SOL     OW24604   6.589   0.013   9.928 -0.1420 -0.6377 -0.5240
 6939SOL    HW124605   6.517   0.056   9.974 -1.1245 -2.3754 -0.3633
 6939SOL    HW224606   6.612   0.074   9.858 -0.0927  1.0524  0.9019
 6940SOL     OW24607   1.043   0.960   3.949 -0.0316 -0.0330 -0.7101
 6940SOL    HW124608   0.977   0.912   4.000 -0.3322 -1.3277 -2.2261
 6940SOL    HW224609   1.122   0.907   3.956  0.2795  0.4342 -0.6108
 6941SOL     OW24610   0.453   3.865   3.543 -0.4063 -0.0682  0.1819
 6941SOL    HW124611   0.479   3.934   3.605  1.0997 -0.9889  0.6316
 6941SOL    HW224612   0.378   3.822   3.585 -0.8562  0.7834  0.2689
 6942SOL     OW24613   2.884   8.969   4.125  0.3829  0.2816 -0.5233
 6942SOL    HW124614   2.804   8.970   4.178 -1.2667  2.0069 -2.8336
 6942SOL    HW224615   2.901   8.876   4.108 -1.3660 -0.1142 -0.2853
 6943SOL     OW24616   6.979   3.966   1.190  0.5229 -0.2782 -0.1906
 6943SOL    HW124617   6.977   3.931   1.100  0.0537  0.8052 -0.6130
 6943SOL    HW224618   7.061   4.016   1.194  1.4354 -1.7428  0.5662
 6944SOL     OW24619   6.478   4.210   5.291 -0.4303 -0.1668  0.3448
 6944SOL    HW124620   6.547   4.268   5.257  0.4966 -1.3543  0.1258
 6944SOL    HW224621   6.465   4.144   5.223 -1.4342 -0.2553  0.6069
 6945SOL     OW24622  10.338   5.376   7.753 -0.2007 -0.5255  0.0580
 6945SOL    HW124623  10.265   5.320   7.726 -0.0735 -0.5376 -0.2609
 6945SOL    HW224624  10.302   5.427   7.826  0.0712 -1.9048  1.1892
 6946SOL     OW24625  10.127   7.642   9.522  0.3635 -0.0868  0.0986
 6946SOL    HW124626  10.195   7.582   9.554 -0.3978  0.3622  2.8227
 6946SOL    HW224627  10.170   7.727   9.521  0.7588 -0.2757 -1.4751
 6947SOL     OW24628   2.523   8.208   1.414 -0.5847  0.3824 -0.1410
 6947SOL    HW124629   2.598   8.168   1.459  0.6395  0.1335 -2.3038
 6947SOL    HW224630   2.448   8.182   1.467  0.5121 -2.1362  0.3309
 6948SOL     OW24631   4.060   1.672   5.807  0.8187  0.3102 -0.4819
 6948SOL    HW124632   4.102   1.687   5.891 -0.0648 -0.6808  0.1746
 6948SOL    HW224633   3.976   1.718   5.813  0.4115 -0.4079 -0.5000
 6949SOL     OW24634   8.761   5.004   0.426 -0.0742 -0.2580  0.1747
 6949SOL    HW124635   8.672   4.985   0.397  0.1156  0.8876 -1.2538
 6949SOL    HW224636   8.789   4.923   0.470 -0.9346 -1.5633 -1.5462
 6950SOL     OW24637   6.597   8.788   1.067  0.6358 -0.8486  0.0188
 6950SOL    HW124638   6.607   8.750   0.980  1.7262 -0.4222 -0.0534
 6950SOL    HW224639   6.670   8.753   1.118  1.2832  0.5936  0.1287
 6951SOL     OW24640   9.526   3.758   1.894  0.1550  0.1478 -0.0299
 6951SOL    HW124641   9.579   3.679   1.880 -1.5838 -0.8728 -1.1982
 6951SOL    HW224642   9.539   3.809   1.814  0.5300  0.6032  0.3197
 6952SOL     OW24643   8.941   9.423   7.033  0.4364  0.3722 -0.0306
 6952SOL    HW124644   8.996   9.501   7.037  0.2011  0.5446 -0.0931
 6952SOL    HW224645   8.985   9.365   6.971  1.3063 -0.1010  0.9845
 6953SOL     OW24646   6.054   0.305   4.330 -0.3111  0.0415  0.1116
 6953SOL    HW124647   6.144   0.291   4.302 -0.6429  1.1904 -1.7155
 6953SOL    HW224648   6.052   0.397   4.359 -1.1532  0.4577 -1.1691
 6954SOL     OW24649   0.354   1.298   9.688 -0.4367  0.1047  0.0055
 6954SOL    HW124650   0.389   1.224   9.637  0.4595  0.7949 -0.4125
 6954SOL    HW224651   0.281   1.330   9.636 -1.1940 -0.8351  0.4693
 6955SOL     OW24652   2.152   8.171  10.321 -0.0526 -0.0401 -0.4303
 6955SOL    HW124653   2.061   8.142  10.327 -0.2522  0.7027  0.3208
 6955SOL    HW224654   2.195   8.132  10.397 -0.0667  0.7071 -0.0308
 6956SOL     OW24655   6.875   3.432   9.098  0.1776  0.1674  0.0649
 6956SOL    HW124656   6.890   3.388   9.181  1.2871  0.7248  0.1737
 6956SOL    HW224657   6.810   3.378   9.054  1.4943 -1.5962  0.1839
 6957SOL     OW24658   3.301   8.106   5.313 -0.3536  0.3419  0.3887
 6957SOL    HW124659   3.357   8.031   5.289 -1.2985 -0.3429  0.2760
 6957SOL    HW224660   3.362   8.169   5.352  0.4901 -0.4255  0.3614
 6958SOL     OW24661  10.304   2.055   1.848 -0.0282 -0.1365  0.2300
 6958SOL    HW124662  10.292   2.106   1.929 -1.5649  0.4176 -0.3135
 6958SOL    HW224663  10.310   1.964   1.878  2.1056  0.2455  1.1563
 6959SOL     OW24664   9.873   1.347   0.076  0.1437 -0.1335 -0.6660
 6959SOL    HW124665   9.814   1.394   0.017 -0.3968 -0.1792 -0.1759
 6959SOL    HW224666   9.946   1.320   0.021  1.7698  3.4325 -0.5552
 6960SOL     OW24667   6.919   5.564   7.196  0.4137 -0.4089 -0.1342
 6960SOL    HW124668   6.908   5.568   7.291 -1.3459  3.1390 -0.3167
 6960SOL    HW224669   6.851   5.504   7.167 -1.4365  1.1841  0.6912
 6961SOL     OW24670   2.803   8.900   2.400 -0.1065  0.4799  0.6399
 6961SOL    HW124671   2.833   8.991   2.401 -0.4386  0.6168 -0.7596
 6961SOL    HW224672   2.865   8.854   2.342 -0.8406  0.1474  0.1069
 6962SOL     OW24673   1.847   7.724   0.848 -0.4111 -0.0083 -0.1616
 6962SOL    HW124674   1.930   7.690   0.882 -0.7249  1.2767  2.1148
 6962SOL    HW224675   1.873   7.800   0.795  0.0541 -1.7994 -2.7007
 6963SOL     OW24676   6.641   5.553   0.043  0.3386 -0.2502  0.4213
 6963SOL    HW124677   6.548   5.576   0.037  0.4989  0.6733  1.1942
 6963SOL    HW224678   6.667   5.581   0.131  1.2442 -0.8924  0.3716
 6964SOL     OW24679   4.361   4.545   5.202  0.8339  0.3157  0.0135
 6964SOL    HW124680   4.377   4.599   5.279  0.3740 -0.2611  0.5240
 6964SOL    HW224681   4.267   4.551   5.186  0.5970 -1.0870  0.6780
 6965SOL     OW24682   0.202   7.316   1.265 -0.4687  0.4680 -0.3259
 6965SOL    HW124683   0.175   7.237   1.310 -0.3609  1.2680  1.2016
 6965SOL    HW224684   0.130   7.378   1.279 -0.7947  0.5096 -1.9514
 6966SOL     OW24685   2.383   7.412   3.537 -0.5132 -0.4601  0.6627
 6966SOL    HW124686   2.442   7.487   3.538 -0.0472 -0.8218  0.4603
 6966SOL    HW224687   2.328   7.424   3.615 -0.6942  0.2836  0.4303
 6967SOL     OW24688   7.511   4.881   3.973 -0.2364 -0.4020  0.1885
 6967SOL    HW124689   7.515   4.796   3.929 -0.1875 -0.6534  0.6766
 6967SOL    HW224690   7.444   4.930   3.924  1.0010 -0.0527 -1.2292
 6968SOL     OW24691   7.510   1.049   0.668 -0.4268 -0.0154 -0.0647
 6968SOL    HW124692   7.538   0.980   0.727  0.7973  0.4922 -0.0101
 6968SOL    HW224693   7.592   1.082   0.629 -1.0923  0.5229 -1.0616
 6969SOL     OW24694   2.613   9.634   0.323 -0.4693  0.4196  0.0430
 6969SOL    HW124695   2.689   9.580   0.346 -1.0787 -0.6908 -0.4745
 6969SOL    HW224696   2.613   9.703   0.388 -0.7854 -1.3059  1.9911
 6970SOL     OW24697   7.013   4.902   1.198 -0.0820  0.0863  1.0321
 6970SOL    HW124698   7.062   4.876   1.276  1.7354  0.5793  0.1024
 6970SOL    HW224699   6.978   4.820   1.163 -0.3667 -0.2090  1.9867
 6971SOL     OW24700   6.514   7.866   4.577  0.0862  0.0648 -0.5707
 6971SOL    HW124701   6.511   7.943   4.521  2.1874  0.1326 -0.6643
 6971SOL    HW224702   6.543   7.795   4.519  1.1028 -0.1262  0.1386
 6972SOL     OW24703   6.174   5.048   4.576 -0.1542 -0.5995  0.4394
 6972SOL    HW124704   6.242   4.981   4.570 -1.2098 -1.7111  0.3216
 6972SOL    HW224705   6.195   5.111   4.507  1.3302 -0.3478  1.0976
 6973SOL     OW24706   6.747   3.735   3.975  0.9272  0.1958  0.2061
 6973SOL    HW124707   6.678   3.782   3.929  0.0170 -0.4880  0.8395
 6973SOL    HW224708   6.789   3.681   3.907 -0.5756 -1.0111  0.2008
 6974SOL     OW24709   9.862   1.691   6.953  0.3510  0.1783  0.2047
 6974SOL    HW124710   9.801   1.696   6.880  2.0604 -0.8470 -1.4063
 6974SOL    HW224711   9.868   1.597   6.972 -1.5735  0.5177  3.1177
 6975SOL     OW24712   4.991   2.084   8.223  0.2116 -0.8198 -0.4343
 6975SOL    HW124713   4.929   2.085   8.150 -0.0970 -1.3118 -0.1757
 6975SOL    HW224714   4.941   2.118   8.297  1.2606  2.3941 -1.0206
 6976SOL     OW24715   5.002   8.904   0.942  0.4188 -0.3286  0.0259
 6976SOL    HW124716   5.021   8.998   0.932  0.2925 -0.2926  0.1203
 6976SOL    HW224717   4.986   8.892   1.035  0.4485 -0.4483  0.0160
 6977SOL     OW24718   4.645   6.189   3.374 -0.1249 -0.2789 -0.3177
 6977SOL    HW124719   4.739   6.192   3.391 -0.0818  1.3889 -0.7062
 6977SOL    HW224720   4.637   6.147   3.289  0.1718 -1.3818  0.1733
 6978SOL     OW24721   7.902  10.119   3.117 -0.2260  0.3694 -0.6864
 6978SOL    HW124722   7.860  10.202   3.141  0.9897  0.6750  0.5395
 6978SOL    HW224723   7.953  10.139   3.039 -1.0752  0.4004 -1.2390
 6979SOL     OW24724   8.175   9.025   9.253  0.2203 -0.3654 -0.2439
 6979SOL    HW124725   8.200   8.986   9.169  0.2558  0.3714 -0.5853
 6979SOL    HW224726   8.212   8.966   9.319  1.4665 -0.1820 -0.7456
 6980SOL     OW24727   1.554  10.326   2.906 -0.4806 -0.1708 -0.0067
 6980SOL    HW124728   1.575  10.316   2.814  0.6029  2.8351 -0.1903
 6980SOL    HW224729   1.544  10.237   2.939  0.8894 -1.3615 -2.5984
 6981SOL     OW24730   7.416   5.806   4.296  0.5111 -0.4020 -0.1932
 6981SOL    HW124731   7.331   5.812   4.252 -0.6526 -2.2096  1.6120
 6981SOL    HW224732   7.441   5.714   4.287  0.1498 -0.9099  2.8748
 6982SOL     OW24733   2.468   2.226   8.049  0.2025  0.4152 -0.1813
 6982SOL    HW124734   2.485   2.191   8.137 -0.2861  0.7656  0.0565
 6982SOL    HW224735   2.479   2.151   7.991  0.0551  0.0685  0.2309
 6983SOL     OW24736   5.019   0.493   8.558 -0.0545  0.6418 -0.2902
 6983SOL    HW124737   4.949   0.466   8.618 -1.1096 -0.4435 -1.9087
 6983SOL    HW224738   4.997   0.583   8.534 -1.5705 -0.0064 -1.5623
 6984SOL     OW24739   5.959   7.068   3.740  0.0249  0.2559 -0.7791
 6984SOL    HW124740   5.917   6.983   3.756 -0.0854  0.5369  0.6273
 6984SOL    HW224741   6.000   7.089   3.824  1.0055  1.0747 -1.4471
 6985SOL     OW24742   9.125   9.870   7.372 -0.2861 -0.1106  0.4866
 6985SOL    HW124743   9.118   9.775   7.362  1.9102 -0.5712  2.3027
 6985SOL    HW224744   9.047   9.895   7.421 -1.2105 -0.8406 -0.5698
 6986SOL     OW24745   1.537   1.881   1.083  0.1730 -0.7173 -0.2056
 6986SOL    HW124746   1.541   1.933   1.163 -0.1813  2.7135 -2.2165
 6986SOL    HW224747   1.467   1.817   1.099 -1.3789  1.2732  1.4987
 6987SOL     OW24748   8.640   1.421   5.219 -0.5890 -0.4674  0.2265
 6987SOL    HW124749   8.656   1.395   5.310 -0.4469 -1.0712  0.0325
 6987SOL    HW224750   8.726   1.449   5.187 -0.4430 -1.1800 -0.0126
 6988SOL     OW24751   7.718   4.794   5.018  0.5288 -0.0773  0.4773
 6988SOL    HW124752   7.659   4.722   4.996 -1.2513  2.0746 -2.4970
 6988SOL    HW224753   7.669   4.848   5.079 -0.8923  1.8596 -2.2074
 6989SOL     OW24754   2.078   6.817   3.307 -0.1757  0.1227  0.1857
 6989SOL    HW124755   2.113   6.862   3.385 -0.2891 -0.5420  0.6287
 6989SOL    HW224756   2.136   6.742   3.295  1.7317  1.8458 -2.2221
 6990SOL     OW24757   1.951   6.168   2.105  0.0076  0.0342  0.6702
 6990SOL    HW124758   1.860   6.146   2.087 -0.8381  1.6990  2.5227
 6990SOL    HW224759   1.948   6.223   2.184  2.8826 -2.5233  2.8598
 6991SOL     OW24760   2.341   0.461   0.261 -0.3586  0.0252 -0.3230
 6991SOL    HW124761   2.324   0.513   0.340 -2.2301 -0.4674 -0.3509
 6991SOL    HW224762   2.308   0.374   0.283 -1.7159  0.0977 -1.9192
 6992SOL     OW24763   0.576   9.167  10.323 -0.0269  0.1242 -0.0711
 6992SOL    HW124764   0.572   9.262  10.314 -0.9219  0.1646  0.5957
 6992SOL    HW224765   0.657   9.151  10.372 -1.2823  0.7880  2.4044
 6993SOL     OW24766   4.823   6.485   0.785 -0.2536 -0.1703 -0.6442
 6993SOL    HW124767   4.828   6.542   0.862  2.0161 -1.0523 -0.0505
 6993SOL    HW224768   4.903   6.503   0.737 -1.2683 -0.2128 -2.4223
 6994SOL     OW24769   0.118   6.240   7.335 -0.6538  0.6379  0.3553
 6994SOL    HW124770   0.086   6.203   7.253 -0.0967 -1.0436  0.8556
 6994SOL    HW224771   0.188   6.300   7.309  0.1812 -0.5985 -0.3797
 6995SOL     OW24772   6.982   2.846   4.539 -0.6498 -0.4709  0.1183
 6995SOL    HW124773   6.924   2.770   4.547 -1.7774  0.4132  0.5144
 6995SOL    HW224774   7.055   2.827   4.599 -0.1078 -1.9385 -0.9604
 6996SOL     OW24775   1.666   9.972   5.031  0.0862  0.0939 -0.3529
 6996SOL    HW124776   1.691  10.057   4.994  0.2224 -0.8269 -2.5109
 6996SOL    HW224777   1.575   9.961   5.005  0.0639 -0.4335 -0.0572
 6997SOL     OW24778   6.461   7.566   1.627  0.1847 -0.3150 -0.5524
 6997SOL    HW124779   6.409   7.644   1.606  0.5887 -0.0966 -0.7651
 6997SOL    HW224780   6.491   7.580   1.717 -0.6292 -0.7298 -0.2099
 6998SOL     OW24781   7.702   2.114   7.965 -0.2485  0.7965 -0.4182
 6998SOL    HW124782   7.739   2.142   7.881 -1.4645  0.8236 -0.9694
 6998SOL    HW224783   7.612   2.146   7.963 -1.4582 -2.2275 -0.6755
 6999SOL     OW24784   0.925   7.795   0.475 -0.4423  0.5638  0.4005
 6999SOL    HW124785   0.979   7.738   0.530 -0.9138  0.4262  0.7246
 6999SOL    HW224786   0.986   7.830   0.410  0.0996  0.6417  0.9435
 7000SOL     OW24787   6.295   0.505   6.184 -0.0976  0.2517 -0.1159
 7000SOL    HW124788   6.203   0.482   6.182 -0.0716  0.1704 -0.4750
 7000SOL    HW224789   6.297   0.594   6.218 -0.2587  0.0175  0.5072
 7001SOL     OW24790   6.208   9.623   7.857  0.3483 -0.2826 -0.2574
 7001SOL    HW124791   6.242   9.573   7.931 -0.3379 -0.5790 -0.1372
 7001SOL    HW224792   6.273   9.691   7.842  1.1548 -1.0417 -0.2419
 7002SOL     OW24793   0.520  10.267   7.764 -0.3095 -0.0537  0.2787
 7002SOL    HW124794   0.575  10.236   7.692 -1.1574 -0.9880  0.0145
 7002SOL    HW224795   0.564  10.346   7.795  0.6872 -0.2760 -0.5131
 7003SOL     OW24796   9.189   1.865   4.366 -0.3561 -0.4924 -0.1893
 7003SOL    HW124797   9.275   1.825   4.355 -0.8946 -1.6666 -0.2884
 7003SOL    HW224798   9.146   1.813   4.434 -1.2741 -0.4245 -0.6967
 7004SOL     OW24799   3.067   3.714   3.008 -0.3851  0.1575 -1.0221
 7004SOL    HW124800   2.997   3.654   3.034 -0.1534 -0.8917 -2.6894
 7004SOL    HW224801   3.122   3.664   2.949  1.0005  1.4056 -0.8582
 7005SOL     OW24802   1.911   7.969   9.738 -0.1513 -0.2862 -0.0748
 7005SOL    HW124803   1.850   7.964   9.665 -0.8819 -0.0000  0.5003
 7005SOL    HW224804   1.962   7.888   9.733  0.0269 -0.1223 -1.0766
 7006SOL     OW24805   4.285   8.996   9.543 -0.5317  0.0327  0.4702
 7006SOL    HW124806   4.217   9.051   9.582 -0.7526  0.4118 -0.4249
 7006SOL    HW224807   4.294   9.029   9.453  0.6446 -0.1855  0.4898
 7007SOL     OW24808   2.786   0.349   5.110  0.4592 -0.3028  0.1138
 7007SOL    HW124809   2.775   0.396   5.192  0.2659  1.3940 -0.8385
 7007SOL    HW224810   2.708   0.293   5.103 -0.6731  1.2210  0.0455
 7008SOL     OW24811   7.530   5.749   1.838  1.1342  0.4384  0.0586
 7008SOL    HW124812   7.474   5.819   1.805  1.3417  0.2197 -0.7720
 7008SOL    HW224813   7.469   5.688   1.880  0.7547  0.2360 -0.7750
 7009SOL     OW24814  10.178   3.456   4.426  0.2329 -0.3111  0.8132
 7009SOL    HW124815  10.255   3.480   4.478  0.4078  0.1415  0.3483
 7009SOL    HW224816  10.213   3.412   4.349  0.2114  1.8888 -0.5399
 7010SOL     OW24817   9.305   7.085   3.145 -0.0200 -0.1819 -0.2208
 7010SOL    HW124818   9.386   7.042   3.116 -0.5934 -0.3773 -1.5773
 7010SOL    HW224819   9.236   7.040   3.097 -0.7303  1.5999 -0.9452
 7011SOL     OW24820   7.161   6.524   0.051  0.1479  0.6638 -0.3253
 7011SOL    HW124821   7.210   6.605   0.064  1.1499  0.0575 -0.2200
 7011SOL    HW224822   7.168   6.506  -0.043  1.1993 -0.0686 -0.1227
 7012SOL     OW24823   2.772   7.432   2.264 -0.2673 -0.2929  0.7855
 7012SOL    HW124824   2.687   7.471   2.245 -0.9047 -1.4323  1.2358
 7012SOL    HW224825   2.827   7.506   2.292 -0.4983  0.7893 -1.3752
 7013SOL     OW24826   0.440   7.975  10.244  0.2690 -0.7481  0.1054
 7013SOL    HW124827   0.419   8.064  10.218 -2.3144 -1.5148 -0.7530
 7013SOL    HW224828   0.523   7.982  10.291 -0.4360  2.2588  1.0976
 7014SOL     OW24829   3.034   0.027   3.501  0.5641 -0.4623 -0.0530
 7014SOL    HW124830   3.034  -0.037   3.572  2.7732 -1.6959 -1.0645
 7014SOL    HW224831   2.942   0.031   3.472  0.1811 -2.3089  0.8023
 7015SOL     OW24832   6.693   9.037   9.020  0.7119 -0.0151 -0.6235
 7015SOL    HW124833   6.656   9.086   9.093  3.2193 -0.3713  1.0072
 7015SOL    HW224834   6.734   8.960   9.060  0.9788 -0.9604 -2.5714
 7016SOL     OW24835   2.672   6.015   8.248  0.0691 -0.6253  0.1545
 7016SOL    HW124836   2.697   5.985   8.160  0.3526  0.2678 -0.0742
 7016SOL    HW224837   2.755   6.025   8.294  0.0839  1.1343 -0.2098
 7017SOL     OW24838   9.590   9.535   4.208 -0.3353 -0.4111  0.3350
 7017SOL    HW124839   9.590   9.444   4.237 -2.3681 -0.5781  0.0058
 7017SOL    HW224840   9.525   9.537   4.137 -1.0801  1.4741  1.0071
 7018SOL     OW24841   7.147   5.518   8.359  0.4346 -0.0599  0.7218
 7018SOL    HW124842   7.113   5.428   8.357 -0.6245  0.3281 -1.0372
 7018SOL    HW224843   7.069   5.573   8.363  1.0676  0.8096  1.5517
 7019SOL     OW24844   9.822   6.776   4.914  0.0609  0.9349 -0.0699
 7019SOL    HW124845   9.773   6.797   4.835  0.9942  1.9626 -0.4013
 7019SOL    HW224846   9.904   6.826   4.905  1.4094 -1.1179  0.1994
 7020SOL     OW24847   1.387   0.905   8.723  0.4005 -0.3473 -0.1121
 7020SOL    HW124848   1.295   0.883   8.738  0.7496 -1.7824  0.0635
 7020SOL    HW224849   1.395   0.997   8.751 -1.2123  0.1667 -1.2277
 7021SOL     OW24850   8.342   5.341   9.823 -0.5043 -0.5719 -0.0395
 7021SOL    HW124851   8.328   5.362   9.915  2.3041  0.8222  0.1601
 7021SOL    HW224852   8.389   5.257   9.825  1.3630  0.4214 -0.0153
 7022SOL     OW24853   5.031   9.917   1.936  0.3657  0.3769  0.0578
 7022SOL    HW124854   4.989   9.836   1.907  0.0681  0.2266  0.8820
 7022SOL    HW224855   5.000   9.984   1.875  0.2594 -0.0382 -0.3532
 7023SOL     OW24856   4.498   8.733   2.634 -0.0238 -0.2408  0.2527
 7023SOL    HW124857   4.511   8.825   2.611  1.5936 -0.8133 -1.3492
 7023SOL    HW224858   4.419   8.707   2.587 -0.4437  0.3064  0.6546
 7024SOL     OW24859   2.358  10.268   5.028  0.2070 -0.4735  0.5298
 7024SOL    HW124860   2.301  10.336   5.065  1.1771 -0.1562  1.5024
 7024SOL    HW224861   2.350  10.194   5.088  2.0406  0.1563  1.6478
 7025SOL     OW24862   4.353   4.267   1.020  0.2574 -0.0990  0.2571
 7025SOL    HW124863   4.407   4.226   1.088  0.3814  0.5444  0.5504
 7025SOL    HW224864   4.394   4.352   1.005 -0.0530 -0.0422 -0.2820
 7026SOL     OW24865   6.404   1.882   0.458  0.0130 -0.1520  0.1431
 7026SOL    HW124866   6.339   1.817   0.485 -1.1412 -0.4234 -2.8678
 7026SOL    HW224867   6.353   1.949   0.413  1.6458  0.4799 -0.8376
 7027SOL     OW24868   1.464   8.473   8.498  0.4496 -0.0302 -0.5951
 7027SOL    HW124869   1.541   8.429   8.533  1.2538  0.3687 -1.7980
 7027SOL    HW224870   1.494   8.515   8.417 -1.0315  0.1228 -1.1089
 7028SOL     OW24871   8.351   3.229   3.244 -0.5609 -0.7362  0.4551
 7028SOL    HW124872   8.408   3.190   3.311  0.1304  0.3483  0.5137
 7028SOL    HW224873   8.324   3.155   3.190 -1.1603 -1.6454  1.9387
 7029SOL     OW24874   1.573   1.979   0.016 -0.4774  0.0077 -0.4995
 7029SOL    HW124875   1.650   1.962   0.070 -1.3985 -0.8863  0.5928
 7029SOL    HW224876   1.515   1.904   0.034 -1.1109  0.0620 -2.1938
 7030SOL     OW24877   9.782   0.110   4.033  0.1039 -0.0912  0.1398
 7030SOL    HW124878   9.753   0.019   4.041  0.3132 -0.1599  0.1370
 7030SOL    HW224879   9.787   0.141   4.124  0.1397 -0.1175  0.1469
 7031SOL     OW24880   6.052   7.829   9.046 -0.1714  0.4347  0.4208
 7031SOL    HW124881   6.016   7.740   9.053  0.4962  0.3042  4.0139
 7031SOL    HW224882   6.136   7.824   9.091  0.0890  2.8044  0.3186
 7032SOL     OW24883   2.734   3.716   3.404  0.7171  0.2149 -0.0391
 7032SOL    HW124884   2.771   3.765   3.331  2.4607 -1.8343 -0.6277
 7032SOL    HW224885   2.669   3.659   3.365  0.5052  0.2454  0.2612
 7033SOL     OW24886   5.132   0.191   7.392  0.0250 -0.5513  0.5806
 7033SOL    HW124887   5.171   0.185   7.479  2.3780  1.4927 -0.1860
 7033SOL    HW224888   5.075   0.268   7.397 -1.1267 -1.3974  0.7219
 7034SOL     OW24889   2.594   2.571   7.233 -0.4365 -0.0373  0.2704
 7034SOL    HW124890   2.516   2.625   7.248 -1.1874 -0.0749 -2.7190
 7034SOL    HW224891   2.559   2.486   7.205  0.6483 -0.2352 -0.5635
 7035SOL     OW24892   9.629   8.831   5.132 -0.4731  0.1699 -0.6678
 7035SOL    HW124893   9.662   8.890   5.064 -1.3276  2.0151  0.4405
 7035SOL    HW224894   9.649   8.743   5.099  1.7594  1.0645 -1.9249
 7036SOL     OW24895   0.260   3.947   6.908  0.6240 -0.2272  0.3774
 7036SOL    HW124896   0.296   3.897   6.835  0.6036 -0.1254  0.2961
 7036SOL    HW224897   0.316   4.024   6.914  1.0986 -0.6116  0.9689
 7037SOL     OW24898   7.663   7.617   4.646 -0.0479 -0.3110 -0.1694
 7037SOL    HW124899   7.568   7.611   4.644 -0.0805  0.0456  0.2144
 7037SOL    HW224900   7.693   7.531   4.676 -0.3535  0.2906  2.0139
 7038SOL     OW24901   6.488   4.899   6.465 -0.3873  0.4838 -0.4296
 7038SOL    HW124902   6.541   4.848   6.526  0.0587  0.3255 -0.9472
 7038SOL    HW224903   6.407   4.848   6.456  0.1057 -0.2113 -1.0431
 7039SOL     OW24904   3.099   3.096   2.042 -0.4968 -0.1686  0.2741
 7039SOL    HW124905   3.049   3.037   1.986 -0.8630 -1.1440  1.6017
 7039SOL    HW224906   3.157   3.039   2.092 -1.0904  0.5398  1.8208
 7040SOL     OW24907   0.843   3.748   8.428  0.1960  0.0110 -0.0550
 7040SOL    HW124908   0.757   3.768   8.391  0.3858  0.4003 -0.2825
 7040SOL    HW224909   0.845   3.798   8.510  1.0585  1.7606 -1.0929
 7041SOL     OW24910   3.782   0.179   2.475  0.4634 -0.2794  0.5252
 7041SOL    HW124911   3.855   0.240   2.488 -0.4550  0.8292  0.6630
 7041SOL    HW224912   3.758   0.152   2.563  1.1984 -1.2596  0.4345
 7042SOL     OW24913  10.042   6.363   5.843 -0.3102 -0.3005 -0.1586
 7042SOL    HW124914  10.000   6.285   5.807 -1.6498  1.3653 -2.5117
 7042SOL    HW224915   9.978   6.400   5.904 -1.1076  0.6192 -1.4869
 7043SOL     OW24916   6.249   0.480   5.135  0.1427  0.5554 -0.1099
 7043SOL    HW124917   6.241   0.429   5.216 -1.5842  1.2659  0.2071
 7043SOL    HW224918   6.262   0.414   5.067 -1.4753 -0.3182  0.3720
 7044SOL     OW24919   3.839   5.839   2.527 -0.2136  0.1920  0.4080
 7044SOL    HW124920   3.786   5.831   2.448 -0.1526 -0.5484  0.4328
 7044SOL    HW224921   3.928   5.822   2.498 -0.4585 -2.5458  1.0069
 7045SOL     OW24922   0.028   2.942   1.417  0.3402 -0.2177 -0.4971
 7045SOL    HW124923  -0.029   2.872   1.385 -1.0951  0.6885 -0.0210
 7045SOL    HW224924   0.007   2.951   1.509 -0.2240  1.4675 -0.7485
 7046SOL     OW24925   1.966   6.866   7.395  0.0589 -0.4602  0.4604
 7046SOL    HW124926   1.953   6.958   7.372  1.9155 -0.3172 -0.1556
 7046SOL    HW224927   1.883   6.839   7.435 -1.3202  0.8634 -1.3277
 7047SOL     OW24928   1.722   6.794   0.463  0.3092 -0.1769 -0.3545
 7047SOL    HW124929   1.630   6.797   0.488  0.5353  1.0321  0.3892
 7047SOL    HW224930   1.723   6.828   0.373  0.0996  0.4897 -0.1138
 7048SOL     OW24931   4.255   6.109   7.462 -0.2975 -0.4129  0.0822
 7048SOL    HW124932   4.167   6.095   7.426 -0.1595 -0.4615 -0.2378
 7048SOL    HW224933   4.249   6.080   7.553 -0.4876 -0.8647 -0.0743
 7049SOL     OW24934   8.633   0.575   9.311 -0.3971 -0.0780 -0.0292
 7049SOL    HW124935   8.704   0.572   9.247 -1.0546 -2.4934 -0.7264
 7049SOL    HW224936   8.677   0.573   9.396  0.4213 -2.6718 -0.4470
 7050SOL     OW24937   0.811   1.671   1.330  0.6256 -0.2164 -0.3445
 7050SOL    HW124938   0.815   1.588   1.283  1.2875 -0.4107  0.0402
 7050SOL    HW224939   0.902   1.689   1.354  0.5356  0.8167 -0.7657
 7051SOL     OW24940   5.376   8.364  10.321  0.4417 -0.0472 -0.0411
 7051SOL    HW124941   5.362   8.367  10.226 -3.6094 -0.6482  0.3729
 7051SOL    HW224942   5.387   8.456  10.346  2.0813  0.0778 -1.0978
 7052SOL     OW24943   3.310   3.734   5.473  0.3481  0.0205 -0.1374
 7052SOL    HW124944   3.319   3.811   5.529  0.8485 -0.5292  0.5474
 7052SOL    HW224945   3.215   3.727   5.458  0.1162 -0.3254  1.3659
 7053SOL     OW24946  10.035   6.134   8.097  0.0367  0.5288  0.6026
 7053SOL    HW124947  10.008   6.214   8.143 -1.2194  1.4745 -1.6013
 7053SOL    HW224948  10.099   6.165   8.032  0.6611 -0.5138  0.6960
 7054SOL     OW24949   3.811   0.464   6.944  0.9995  0.3043  0.5344
 7054SOL    HW124950   3.833   0.374   6.969 -1.2445 -1.2619 -2.3650
 7054SOL    HW224951   3.726   0.456   6.900  1.7828  3.4694 -1.9369
 7055SOL     OW24952   1.277   5.762   2.875  0.1268  0.3570 -0.1337
 7055SOL    HW124953   1.369   5.770   2.852  0.3529 -0.7904  0.2782
 7055SOL    HW224954   1.277   5.715   2.959 -0.8756 -2.0004 -1.3494
 7056SOL     OW24955   9.093   7.326   2.242  0.0019  0.3179 -0.5274
 7056SOL    HW124956   9.028   7.269   2.201  0.9443  0.5422 -2.4327
 7056SOL    HW224957   9.155   7.346   2.172  1.8688  0.5057  1.1060
 7057SOL     OW24958   3.445   5.005   2.634 -0.1407 -0.4082 -0.1853
 7057SOL    HW124959   3.519   5.040   2.683  0.8236  0.4039 -2.1164
 7057SOL    HW224960   3.401   4.946   2.695  1.3716  0.0356  1.4001
 7058SOL     OW24961   9.582   0.975   8.062  0.4984 -0.1210 -0.0238
 7058SOL    HW124962   9.500   1.017   8.038  1.4618  0.6177 -2.2843
 7058SOL    HW224963   9.579   0.968   8.157 -2.0690  0.0707 -0.0364
 7059SOL     OW24964   0.626   9.783   6.976  0.1019  0.3328 -0.0640
 7059SOL    HW124965   0.615   9.755   7.066 -0.3201 -0.1603 -0.2623
 7059SOL    HW224966   0.558   9.849   6.962  1.0269  1.4073  0.3706
 7060SOL     OW24967   7.663   2.733   6.734  0.2737 -0.1021  0.3358
 7060SOL    HW124968   7.669   2.646   6.772 -3.0542 -1.0511 -1.0085
 7060SOL    HW224969   7.675   2.720   6.640 -0.5613  0.8518  0.0824
 7061SOL     OW24970   1.034   0.390   7.688  0.1278  0.3533 -0.4331
 7061SOL    HW124971   0.970   0.399   7.759  0.3671  1.5627 -0.3470
 7061SOL    HW224972   0.986   0.346   7.618 -0.7659  1.1240 -0.3228
 7062SOL     OW24973   0.032   2.539   9.089  0.0312  0.2839 -0.5822
 7062SOL    HW124974   0.098   2.544   9.020  0.8259  0.7567  0.1912
 7062SOL    HW224975   0.079   2.506   9.166 -0.6371  0.5757 -0.0304
 7063SOL     OW24976  10.137   4.654   4.294  0.8678  0.0762  0.2386
 7063SOL    HW124977  10.203   4.584   4.299 -0.6827 -1.4480  0.2315
 7063SOL    HW224978  10.182   4.726   4.250  1.7871 -1.8259 -2.1560
 7064SOL     OW24979   7.996   3.449   1.357  0.2019 -0.5581  0.6584
 7064SOL    HW124980   8.066   3.451   1.292  0.5098 -1.0618  0.9746
 7064SOL    HW224981   8.038   3.472   1.439 -0.2538  0.4279  0.6413
 7065SOL     OW24982   7.709   7.822   2.456  0.7133  0.1095 -0.4056
 7065SOL    HW124983   7.620   7.830   2.421  1.0717  1.5915 -1.0434
 7065SOL    HW224984   7.745   7.744   2.412 -0.4493 -0.8881  0.3388
 7066SOL     OW24985   7.938   1.599   2.560  0.3035 -0.2176  0.5373
 7066SOL    HW124986   8.019   1.644   2.534 -0.1007 -0.1507 -0.6875
 7066SOL    HW224987   7.885   1.597   2.480 -0.4678 -1.2160  1.0450
 7067SOL     OW24988   7.041   0.834   6.180  0.1242  0.0089 -0.4328
 7067SOL    HW124989   7.022   0.907   6.240  0.7455 -1.2055  1.3077
 7067SOL    HW224990   6.985   0.763   6.210  0.8569 -0.7999 -0.9469
 7068SOL     OW24991   7.320   6.942   4.156 -0.3202  0.3998  0.1222
 7068SOL    HW124992   7.317   6.873   4.090  1.8898 -0.1670  0.5660
 7068SOL    HW224993   7.298   7.022   4.107 -2.3243 -0.4728 -0.5090
 7069SOL     OW24994   8.419   0.363   3.674  0.7674 -0.8754  0.0143
 7069SOL    HW124995   8.344   0.330   3.626 -0.8483 -0.4522  2.1311
 7069SOL    HW224996   8.423   0.456   3.651  2.1295 -1.3194 -1.8595
 7070SOL     OW24997   4.345   9.040   9.277  0.0067  0.1346 -0.0641
 7070SOL    HW124998   4.320   9.112   9.219 -1.2951 -1.1372 -1.1365
 7070SOL    HW224999   4.323   8.961   9.229  0.4229 -0.9893  1.5127
 7071SOL     OW25000   5.444   9.476   5.822 -0.0854  0.3825  0.1328
 7071SOL    HW125001   5.523   9.457   5.873  0.6816 -0.8647 -1.4446
 7071SOL    HW225002   5.379   9.414   5.855  0.2428 -0.0440 -0.0084
 7072SOL     OW25003   2.063   4.013   4.532 -0.7352 -0.2521  0.5021
 7072SOL    HW125004   2.069   3.954   4.457  1.0096 -1.3895  1.4471
 7072SOL    HW225005   2.110   4.092   4.505  0.7726 -1.0403  0.6614
 7073SOL     OW25006   3.126   7.773   9.309  0.1418 -0.0709 -0.4382
 7073SOL    HW125007   3.206   7.797   9.355  0.0698 -1.6273  0.5611
 7073SOL    HW225008   3.063   7.754   9.379 -0.8875  0.4100 -1.2047
 7074SOL     OW25009  10.289   2.926   9.959 -0.2301  0.0436  0.3909
 7074SOL    HW125010  10.248   2.990   9.901 -0.9008 -0.3191  0.4553
 7074SOL    HW225011  10.225   2.912  10.029  0.6909  0.6904  1.3817
 7075SOL     OW25012   9.582   8.068   0.684 -0.1246  0.3851 -0.3742
 7075SOL    HW125013   9.661   8.119   0.699  0.3629 -0.4913  0.0970
 7075SOL    HW225014   9.595   7.987   0.734 -2.9598  1.7818  3.0673
 7076SOL     OW25015   0.393   4.400   1.815 -0.2622 -0.0737 -0.0322
 7076SOL    HW125016   0.379   4.374   1.724  1.3349 -2.4271  0.3062
 7076SOL    HW225017   0.305   4.420   1.848 -0.9333  0.2339 -1.8876
 7077SOL     OW25018   5.347   3.969   3.521 -0.3561  0.7186  0.4985
 7077SOL    HW125019   5.401   4.043   3.493  0.6971 -0.5548 -1.0063
 7077SOL    HW225020   5.257   4.000   3.511  0.0065  2.5940  2.2534
 7078SOL     OW25021   4.345   4.463   8.571  0.0749 -0.5048 -0.1449
 7078SOL    HW125022   4.292   4.539   8.547 -0.0196 -1.0335 -1.6902
 7078SOL    HW225023   4.286   4.389   8.560  0.8698 -1.0171 -1.0685
 7079SOL     OW25024   3.989   3.590   6.944 -0.3042 -0.2287  0.1852
 7079SOL    HW125025   4.022   3.654   7.006  2.9608 -2.3553  0.9228
 7079SOL    HW225026   3.988   3.635   6.860  2.9998  0.5732  0.4613
 7080SOL     OW25027   8.276   7.046   4.969 -0.5479 -0.3990 -0.7961
 7080SOL    HW125028   8.268   6.955   4.942 -1.9538 -0.8206  0.9016
 7080SOL    HW225029   8.360   7.050   5.014 -0.4854 -0.8638 -0.8653
 7081SOL     OW25030   6.529  10.011   9.569  0.4115 -0.2609 -0.2627
 7081SOL    HW125031   6.572  10.046   9.491  0.6675 -0.9687 -0.4443
 7081SOL    HW225032   6.585   9.938   9.597 -0.4026 -0.8790 -0.2118
 7082SOL     OW25033  10.229   4.538   2.298 -0.5885  0.0032  0.0267
 7082SOL    HW125034  10.252   4.618   2.345  1.3273 -0.3314 -0.2319
 7082SOL    HW225035  10.240   4.468   2.362  1.4522 -0.3936 -0.6762
 7083SOL     OW25036   8.688   3.385   3.781 -0.0462  0.1741  0.0416
 7083SOL    HW125037   8.749   3.312   3.782  0.8967  0.9068  1.7199
 7083SOL    HW225038   8.706   3.431   3.699  0.1088 -0.8414 -0.5087
 7084SOL     OW25039   4.521   1.749   9.649  0.0166  0.2142  0.3134
 7084SOL    HW125040   4.574   1.786   9.720  0.1436  1.4504 -0.3826
 7084SOL    HW225041   4.572   1.676   9.616  0.2018 -0.0418  1.1444
 7085SOL     OW25042   2.644   6.700   4.103  0.3746  0.1462 -0.1987
 7085SOL    HW125043   2.636   6.661   4.191  1.2961  0.1842 -0.0843
 7085SOL    HW225044   2.649   6.624   4.044  1.7206  0.0711 -0.0181
 7086SOL     OW25045   0.123   2.085   7.131  0.0460 -0.1856  0.6549
 7086SOL    HW125046   0.098   2.163   7.180  0.3349  0.7631 -0.6574
 7086SOL    HW225047   0.202   2.053   7.174  0.0102  0.3302  1.1087
 7087SOL     OW25048   9.114   6.043  10.258  0.0567  0.4432  0.1986
 7087SOL    HW125049   9.050   6.103  10.219 -0.0116  0.8768  0.9756
 7087SOL    HW225050   9.063   5.990  10.319  0.5411  1.2312  1.3099
 7088SOL     OW25051   2.968   6.415   5.095  0.1051  0.1367  0.2764
 7088SOL    HW125052   2.965   6.324   5.068  1.1175 -0.0065  0.6014
 7088SOL    HW225053   2.912   6.461   5.032 -0.8366 -0.7740  0.4360
 7089SOL     OW25054  10.243   6.152   3.293  0.3361  0.3538  0.3858
 7089SOL    HW125055  10.153   6.123   3.306  0.2037 -1.4796 -3.1549
 7089SOL    HW225056  10.296   6.073   3.305  1.2878  1.0479  0.8844
 7090SOL     OW25057   3.170   0.204   0.306  0.0667  0.6939  0.1250
 7090SOL    HW125058   3.162   0.192   0.212 -1.0760 -1.1255  0.4094
 7090SOL    HW225059   3.138   0.293   0.322 -1.1844  0.4903 -1.0600
 7091SOL     OW25060   5.629   9.206   4.696  0.4693 -0.2470 -0.5873
 7091SOL    HW125061   5.680   9.273   4.651 -0.6559 -0.9270 -3.0531
 7091SOL    HW225062   5.587   9.252   4.768  0.0047  1.6703 -2.0039
 7092SOL     OW25063   4.516   2.280   1.646  0.0298 -0.4889 -0.1673
 7092SOL    HW125064   4.519   2.276   1.550  1.1849  1.3486 -0.2626
 7092SOL    HW225065   4.579   2.348   1.669 -2.0785  0.9873  1.7463
 7093SOL     OW25066   1.596   2.340   5.620 -0.0628  0.2414  0.1291
 7093SOL    HW125067   1.657   2.392   5.568  1.6487 -2.4540 -0.7802
 7093SOL    HW225068   1.586   2.259   5.571 -1.6318 -0.8146  2.0430
 7094SOL     OW25069   0.811   5.165   6.181  0.1419  0.4039 -0.2038
 7094SOL    HW125070   0.841   5.245   6.225 -0.4553  0.8585 -0.6045
 7094SOL    HW225071   0.721   5.153   6.212 -0.1336  0.4830 -0.9489
 7095SOL     OW25072   5.683   7.518   0.704 -0.1798 -0.9216 -0.0026
 7095SOL    HW125073   5.595   7.521   0.665 -0.6808 -1.2740  1.0352
 7095SOL    HW225074   5.666   7.507   0.798  0.9469  1.2285  0.5122
 7096SOL     OW25075   5.711   8.261   8.391  0.6034  0.2465 -0.6447
 7096SOL    HW125076   5.727   8.182   8.442  2.9134  0.6944 -0.5787
 7096SOL    HW225077   5.671   8.322   8.453  0.2052 -0.3533 -0.3065
 7097SOL     OW25078   7.179   0.432   1.264 -0.5804 -0.0303  0.1913
 7097SOL    HW125079   7.141   0.387   1.189  1.4018  0.8374 -1.4407
 7097SOL    HW225080   7.121   0.411   1.337 -2.2678 -1.3909 -1.4444
 7098SOL     OW25081   0.955   0.950   7.085 -0.2689 -0.2679 -0.4998
 7098SOL    HW125082   0.917   0.865   7.107 -1.3153  0.1370 -0.6720
 7098SOL    HW225083   0.888   1.013   7.113  1.3490  0.6351  1.5804
 7099SOL     OW25084   9.792   7.626   0.283  0.5884  0.0613 -0.5958
 7099SOL    HW125085   9.720   7.612   0.221  0.6142 -1.0801 -0.3812
 7099SOL    HW225086   9.863   7.571   0.250  0.1575 -1.6452  1.1642
 7100SOL     OW25087   8.391   9.661   8.559  0.0181 -0.3396 -0.4596
 7100SOL    HW125088   8.363   9.700   8.642 -0.6115 -1.4079 -0.1533
 7100SOL    HW225089   8.359   9.722   8.492 -1.7592 -0.7631 -0.0357
 7101SOL     OW25090   6.286   4.708  10.080  0.2118  0.5446 -0.4239
 7101SOL    HW125091   6.298   4.616  10.058  0.0267  0.4146  0.0129
 7101SOL    HW225092   6.356   4.726  10.143  0.4093  0.7727 -0.7051
 7102SOL     OW25093   3.752   3.369   6.315 -0.6856  0.1704  0.0538
 7102SOL    HW125094   3.753   3.441   6.378 -0.1210 -0.6724  1.0313
 7102SOL    HW225095   3.668   3.326   6.328 -0.6109  0.0576  0.1703
 7103SOL     OW25096   9.958   8.485   1.326  0.3753 -0.5631  0.0060
 7103SOL    HW125097  10.000   8.440   1.399 -1.2587 -0.0956  1.2987
 7103SOL    HW225098   9.868   8.452   1.325 -0.0549  0.5442 -0.8510
 7104SOL     OW25099   7.409   2.487   6.623 -0.6791 -0.2056 -0.2768
 7104SOL    HW125100   7.436   2.531   6.542  0.5649  1.0798  0.7919
 7104SOL    HW225101   7.466   2.410   6.629 -0.5212 -0.0993 -0.4290
 7105SOL     OW25102   3.327   2.954   9.875 -0.2508 -0.2593  0.0764
 7105SOL    HW125103   3.318   2.866   9.912  2.8254 -0.7982 -0.1885
 7105SOL    HW225104   3.362   3.007   9.946  1.6695 -0.2703 -0.8064
 7106SOL     OW25105   4.642   4.325   9.841  0.0671 -0.3792 -0.4505
 7106SOL    HW125106   4.636   4.420   9.849  1.9232 -0.3458  1.2674
 7106SOL    HW225107   4.553   4.294   9.856 -0.5880  1.0605 -1.1216
 7107SOL     OW25108   2.871   9.735   2.396 -0.4723 -0.2229  0.2539
 7107SOL    HW125109   2.816   9.720   2.320 -3.0313  2.3607  1.3984
 7107SOL    HW225110   2.849   9.664   2.456  0.5737 -1.5029 -0.8026
 7108SOL     OW25111   2.289   1.273   0.563 -0.5319  0.2179  0.0644
 7108SOL    HW125112   2.366   1.326   0.583  0.3566 -0.5033 -1.3188
 7108SOL    HW225113   2.323   1.185   0.549 -1.8655 -0.5533  1.3694
 7109SOL     OW25114   6.387   1.737   0.729  0.0404  0.2440 -0.3784
 7109SOL    HW125115   6.347   1.666   0.781  1.1394 -1.1192 -1.3159
 7109SOL    HW225116   6.315   1.797   0.711 -1.0904 -0.9785 -0.1140
 7110SOL     OW25117   7.475   1.641   3.223  0.5893  0.1628 -0.5353
 7110SOL    HW125118   7.489   1.725   3.180  0.6857 -0.3109 -1.4585
 7110SOL    HW225119   7.501   1.656   3.314  0.3934  1.1824 -0.6347
 7111SOL     OW25120   8.217   7.755   9.165  0.2429 -0.3418 -0.1853
 7111SOL    HW125121   8.123   7.770   9.163  0.4309  1.2004  0.8511
 7111SOL    HW225122   8.244   7.758   9.073 -0.6612 -0.4928 -0.4660
 7112SOL     OW25123   0.172   7.790   2.631 -0.1953  0.7912  0.3097
 7112SOL    HW125124   0.256   7.804   2.674 -0.2225  2.8546 -0.1856
 7112SOL    HW225125   0.109   7.838   2.685 -1.1435 -0.9495  0.8280
 7113SOL     OW25126   9.753   9.606   2.769  0.2937 -0.6228  0.5140
 7113SOL    HW125127   9.662   9.584   2.790 -0.1000  0.0743 -0.4245
 7113SOL    HW225128   9.748   9.654   2.687  1.7211 -2.5938 -0.8019
 7114SOL     OW25129   6.639   3.423   0.869 -0.2829 -0.1245 -0.6554
 7114SOL    HW125130   6.692   3.368   0.925 -1.5408 -0.3885  0.3085
 7114SOL    HW225131   6.674   3.511   0.882 -0.9965 -0.0603  1.1377
 7115SOL     OW25132  10.276   4.595   3.230  0.1127 -0.3381  0.9608
 7115SOL    HW125133  10.304   4.509   3.264  3.2392  0.7357  1.4492
 7115SOL    HW225134  10.252   4.645   3.307  1.9611  0.3542  1.1497
 7116SOL     OW25135   4.894   2.916   3.364 -0.2495  0.1737  0.0298
 7116SOL    HW125136   4.837   2.976   3.414 -1.4088  0.0501 -1.0912
 7116SOL    HW225137   4.883   2.944   3.273  0.4307 -0.7444 -0.3376
 7117SOL     OW25138   0.972   0.949   9.476  0.0289 -0.4100  0.4313
 7117SOL    HW125139   0.924   0.909   9.404 -0.8630  1.7202 -0.2433
 7117SOL    HW225140   0.947   0.897   9.553 -0.2267 -1.7568 -0.5287
 7118SOL     OW25141   7.235  10.075   7.724  0.1873  0.2879  0.4271
 7118SOL    HW125142   7.223  10.004   7.787  0.4210 -0.4321 -0.3253
 7118SOL    HW225143   7.192  10.044   7.644  0.9144  0.6812 -0.1320
 7119SOL     OW25144   6.403   2.435   6.234  0.5610  0.4023  0.7648
 7119SOL    HW125145   6.416   2.342   6.214  1.0409  0.2781  1.6121
 7119SOL    HW225146   6.430   2.481   6.154 -0.0887 -0.1961  0.1819
 7120SOL     OW25147   8.178   6.751   5.896 -0.1235  0.8149 -0.3536
 7120SOL    HW125148   8.124   6.806   5.952 -0.9045 -0.6043  0.3365
 7120SOL    HW225149   8.126   6.671   5.883  1.7588 -0.6029  0.3241
 7121SOL     OW25150   3.372   8.230   1.380  0.3529  0.1909  0.8430
 7121SOL    HW125151   3.305   8.281   1.334  0.6475 -1.0733 -1.1343
 7121SOL    HW225152   3.451   8.243   1.328  0.5452 -1.8249  0.5388
 7122SOL     OW25153   0.048   3.322   8.689 -0.4946 -0.2161  0.4908
 7122SOL    HW125154  -0.036   3.363   8.712 -0.8327 -0.0174 -0.9803
 7122SOL    HW225155   0.077   3.280   8.770 -1.9605 -0.1944  1.0599
 7123SOL     OW25156   3.369   8.903   4.192  0.6045  0.0247  0.2545
 7123SOL    HW125157   3.320   8.861   4.263  2.0533 -0.4037  1.0521
 7123SOL    HW225158   3.433   8.836   4.165  3.1597  1.6676  1.7368
 7124SOL     OW25159   4.803  10.163   3.935 -0.2013 -0.4917  0.2937
 7124SOL    HW125160   4.751  10.147   4.014  2.1605 -0.0138  2.0527
 7124SOL    HW225161   4.744  10.213   3.878 -1.5478  0.4009  2.3255
 7125SOL     OW25162   1.330   1.555   4.963 -0.1982 -0.6029 -0.5518
 7125SOL    HW125163   1.235   1.560   4.974 -0.1284  0.8358 -0.3367
 7125SOL    HW225164   1.348   1.613   4.888  0.3950 -1.8601 -1.4080
 7126SOL     OW25165   5.516   3.110   3.013  0.1095  0.1835 -0.1092
 7126SOL    HW125166   5.544   3.200   2.996 -0.2791  0.1919 -0.7553
 7126SOL    HW225167   5.512   3.069   2.926  0.6962 -0.5869  0.2112
 7127SOL     OW25168   4.423   1.289   2.870 -0.1867 -0.4069  0.6725
 7127SOL    HW125169   4.482   1.256   2.938  0.2209 -2.0707 -0.4363
 7127SOL    HW225170   4.459   1.255   2.788 -0.7091  1.4982 -0.4033
 7128SOL     OW25171   7.777   4.478   9.841 -0.4932 -0.2662  0.4277
 7128SOL    HW125172   7.860   4.440   9.812 -0.5849  1.1496 -1.9752
 7128SOL    HW225173   7.721   4.403   9.861  1.3325 -1.2543  2.2197
 7129SOL     OW25174   2.087   0.730   2.023  0.1967 -0.3966 -0.1281
 7129SOL    HW125175   2.077   0.676   2.101  0.2165  1.3149  1.1139
 7129SOL    HW225176   2.079   0.668   1.950 -1.3306 -1.8191  1.1626
 7130SOL     OW25177   2.712   9.787   0.752 -0.0676 -0.1742  0.8245
 7130SOL    HW125178   2.774   9.811   0.683 -0.2043 -0.2762  0.6666
 7130SOL    HW225179   2.691   9.695   0.735  0.0737 -0.2649  1.1377
 7131SOL     OW25180   3.413   3.081   0.626  0.2235 -0.2954  0.4011
 7131SOL    HW125181   3.399   3.001   0.576 -1.8674 -0.0244  0.4453
 7131SOL    HW225182   3.484   3.126   0.580  0.4201 -1.4552 -0.4958
 7132SOL     OW25183   3.257  10.284   1.423 -0.3243  0.7019 -0.1616
 7132SOL    HW125184   3.174  10.327   1.404 -1.1992 -0.4941  0.7938
 7132SOL    HW225185   3.297  10.338   1.492 -1.3076  0.1535  0.8723
 7133SOL     OW25186   4.151   3.920   2.250  0.1967 -0.0523 -0.0479
 7133SOL    HW125187   4.219   3.983   2.223 -0.8682  0.8576 -0.7338
 7133SOL    HW225188   4.070   3.971   2.248 -1.1142 -1.9680 -3.0011
 7134SOL     OW25189   0.429   6.118   3.553 -0.2515 -0.4632 -0.0231
 7134SOL    HW125190   0.414   6.029   3.584 -0.9912 -0.3219  0.0222
 7134SOL    HW225191   0.507   6.110   3.497 -0.8695 -1.3149 -0.7836
 7135SOL     OW25192   4.708   4.792   1.125 -0.1046  0.5993 -0.3327
 7135SOL    HW125193   4.783   4.734   1.119  0.8009  1.5378  1.2101
 7135SOL    HW225194   4.721   4.841   1.207 -1.5364  1.9704 -0.8557
 7136SOL     OW25195   1.008   3.787   7.345  0.3132  0.1525  0.1124
 7136SOL    HW125196   0.999   3.760   7.254  1.0412 -3.1437  0.8805
 7136SOL    HW225197   1.095   3.827   7.350 -0.4139  2.0195 -0.8850
 7137SOL     OW25198   9.970   8.396   2.086  0.4129 -0.1355  0.4560
 7137SOL    HW125199  10.001   8.425   2.171  1.2829 -1.8312  0.7555
 7137SOL    HW225200   9.934   8.309   2.101 -1.2590  0.3443 -0.5612
 7138SOL     OW25201   5.908   2.307   5.314  0.1795 -0.2938 -0.4563
 7138SOL    HW125202   5.973   2.377   5.307 -1.0739  0.9134 -0.5082
 7138SOL    HW225203   5.953   2.228   5.283  1.5874  0.5129 -0.5204
 7139SOL     OW25204   7.544   9.571   7.605  0.6292  0.2578 -0.0271
 7139SOL    HW125205   7.535   9.483   7.642  0.5799  0.2724 -0.0050
 7139SOL    HW225206   7.602   9.617   7.666  0.9098  0.1433 -0.2068
 7140SOL     OW25207   2.100   5.028   0.282  0.1273 -0.2080  0.3901
 7140SOL    HW125208   2.141   4.950   0.320  4.5113  0.7138 -1.7917
 7140SOL    HW225209   2.084   5.004   0.190  0.8319  1.1452 -0.1140
 7141SOL     OW25210   6.044   6.094   1.567 -0.3292 -0.0278 -0.1146
 7141SOL    HW125211   6.045   6.153   1.643 -2.6975 -0.5217  0.3858
 7141SOL    HW225212   6.126   6.044   1.575 -0.3305  0.1863  1.9250
 7142SOL     OW25213   2.518   4.872   1.264 -0.2587  0.7505  0.3781
 7142SOL    HW125214   2.611   4.856   1.283 -0.7151 -2.1039  0.6865
 7142SOL    HW225215   2.478   4.881   1.351 -0.6000 -0.6053  0.3893
 7143SOL     OW25216   3.570   5.833   0.118 -0.4291 -0.5246 -0.2954
 7143SOL    HW125217   3.610   5.746   0.118  0.4566 -0.3535  3.9282
 7143SOL    HW225218   3.478   5.817   0.139 -0.2175 -0.5089  0.7194
 7144SOL     OW25219   5.650   3.505   2.531  0.1400  0.5674 -0.0365
 7144SOL    HW125220   5.626   3.422   2.491  0.6067  1.1314 -1.5635
 7144SOL    HW225221   5.649   3.568   2.459  0.3487  1.7763  0.9766
 7145SOL     OW25222   6.234   0.150   1.011  0.2995 -0.4272 -0.0493
 7145SOL    HW125223   6.287   0.216   0.966  0.9628 -0.6852  0.3449
 7145SOL    HW225224   6.241   0.072   0.957 -1.0598  0.0078 -0.8921
 7146SOL     OW25225   7.767   9.721   5.994 -0.0095 -0.4440 -0.2820
 7146SOL    HW125226   7.763   9.795   5.934 -0.2954  0.6785  1.0755
 7146SOL    HW225227   7.675   9.699   6.011  0.0700 -1.3748 -0.9561
 7147SOL     OW25228   2.908   4.722   0.395 -0.8106  0.1170  0.1632
 7147SOL    HW125229   2.976   4.786   0.376 -0.9996  0.3947  0.4220
 7147SOL    HW225230   2.951   4.637   0.382 -0.3138  0.2838  0.6623
 7148SOL     OW25231   8.698   7.702   1.666  0.1533 -0.1115 -0.0802
 7148SOL    HW125232   8.705   7.726   1.574  0.6372  2.2597  0.5044
 7148SOL    HW225233   8.629   7.758   1.700  1.1499  0.2928  1.3652
 7149SOL     OW25234   8.385   9.586   2.632 -0.5491  0.3393 -0.3441
 7149SOL    HW125235   8.312   9.628   2.677  0.7737  0.4465  1.8466
 7149SOL    HW225236   8.426   9.657   2.582 -2.0454  0.2168 -1.8339
 7150SOL     OW25237   2.610   0.880   4.367  0.2083  0.5632  0.6463
 7150SOL    HW125238   2.572   0.794   4.347  0.6360  0.6961 -0.8786
 7150SOL    HW225239   2.565   0.940   4.308 -0.0970  1.4063  1.7127
 7151SOL     OW25240   9.882   7.798   0.628  0.1217 -0.3926 -0.4337
 7151SOL    HW125241   9.928   7.716   0.642 -1.6251 -1.5945 -1.3919
 7151SOL    HW225242   9.873   7.805   0.533 -1.8378 -0.3498 -0.2815
 7152SOL     OW25243   3.177   1.426   7.071 -0.7155 -0.0104 -0.0702
 7152SOL    HW125244   3.086   1.455   7.072 -1.1885 -1.3964 -1.0817
 7152SOL    HW225245   3.184   1.371   6.994  0.5798 -1.2264  0.8679
 7153SOL     OW25246   2.670   3.362   4.794  0.0330  0.2799 -0.6886
 7153SOL    HW125247   2.584   3.322   4.787  0.4398 -0.8679  0.5107
 7153SOL    HW225248   2.724   3.315   4.731  0.7549 -1.8698  1.3855
 7154SOL     OW25249   7.423   1.481  10.321 -0.6169 -0.0041 -0.8355
 7154SOL    HW125250   7.365   1.405  10.326  0.2842 -0.6874 -0.1511
 7154SOL    HW225251   7.467   1.471  10.236  0.2065 -0.8325 -0.3468
 7155SOL     OW25252   2.602   7.482   4.902 -0.0494 -0.0389 -0.2504
 7155SOL    HW125253   2.558   7.519   4.826  2.7909  2.3461 -0.9059
 7155SOL    HW225254   2.552   7.402   4.922 -1.6569 -0.1184 -3.8121
 7156SOL     OW25255   1.936   1.759   3.036  0.5826 -0.9144  0.0508
 7156SOL    HW125256   1.873   1.777   3.106  0.4495  0.4964 -0.3967
 7156SOL    HW225257   1.883   1.750   2.957  0.7840 -1.8502  0.0144
 7157SOL     OW25258   8.828   4.623   7.253 -0.3750  0.3893  0.1152
 7157SOL    HW125259   8.846   4.630   7.159 -1.3692  0.3907 -0.0879
 7157SOL    HW225260   8.743   4.666   7.265  0.1904  1.2692  1.1817
 7158SOL     OW25261   0.609   8.165   9.864 -0.2443 -0.5738 -0.1770
 7158SOL    HW125262   0.546   8.237   9.856 -1.1464 -1.3079  0.1577
 7158SOL    HW225263   0.690   8.207   9.894 -0.8700  0.2547  0.4110
 7159SOL     OW25264   1.170   6.714   0.695 -0.7358 -0.3146  0.1374
 7159SOL    HW125265   1.159   6.620   0.681  0.3017 -0.3789 -0.3161
 7159SOL    HW225266   1.259   6.723   0.729 -1.7735  0.2466  2.9638
 7160SOL     OW25267  10.203   0.218   7.018  0.5445  0.0672  0.0738
 7160SOL    HW125268  10.120   0.253   6.985  1.4455  1.3519 -0.9428
 7160SOL    HW225269  10.270   0.256   6.961  1.9569  0.1554  1.6921
 7161SOL     OW25270  10.078   6.806   0.140 -0.1897  0.0335 -0.0294
 7161SOL    HW125271  10.011   6.817   0.073  0.3381  0.9320 -0.4194
 7161SOL    HW225272  10.093   6.894   0.174  0.2334 -0.2729  0.6026
 7162SOL     OW25273   3.998   6.389   4.471 -0.2542  0.2710  0.3134
 7162SOL    HW125274   3.977   6.318   4.532 -1.8191  0.6636  0.2774
 7162SOL    HW225275   3.919   6.443   4.469  0.9420  2.1021  0.4350
 7163SOL     OW25276   6.061   1.899  10.209 -0.6426 -0.1406  0.3309
 7163SOL    HW125277   6.069   1.896  10.114  0.2139  0.0085  0.3894
 7163SOL    HW225278   5.971   1.927  10.225 -0.7733 -0.1040 -0.4321
 7164SOL     OW25279   8.661   4.389   6.071  0.0661 -0.3237 -0.2839
 7164SOL    HW125280   8.588   4.332   6.093  0.4330 -0.4015  0.7862
 7164SOL    HW225281   8.622   4.458   6.018 -0.6167 -0.8544 -0.4860
 7165SOL     OW25282   1.765   9.333   9.998 -0.2168 -0.9529  0.0724
 7165SOL    HW125283   1.685   9.286   9.975 -0.6802 -0.4363  0.5942
 7165SOL    HW225284   1.836   9.281   9.959 -0.8432 -1.0417 -0.9839
 7166SOL     OW25285   3.510   4.053   8.609 -0.1215  0.9669 -0.4384
 7166SOL    HW125286   3.520   4.148   8.607  0.0456  1.0060  1.1018
 7166SOL    HW225287   3.449   4.036   8.681  1.0924 -0.1601  0.3770
 7167SOL     OW25288   0.065   7.438   8.847  0.9440  0.0237  0.3040
 7167SOL    HW125289   0.141   7.475   8.893  0.7594 -0.3221  0.9080
 7167SOL    HW225290   0.018   7.389   8.915 -0.3677  1.0444  0.1724
 7168SOL     OW25291   1.021   7.584   5.769  1.2554  0.4323  0.4778
 7168SOL    HW125292   0.942   7.553   5.812  1.2184 -0.6355 -0.3148
 7168SOL    HW225293   1.004   7.573   5.675  3.0449 -1.6939  0.3327
 7169SOL     OW25294   2.630   2.988   7.515 -0.5202 -0.1937 -0.0048
 7169SOL    HW125295   2.593   3.046   7.581 -1.5876 -0.9555  0.0864
 7169SOL    HW225296   2.570   2.995   7.441  1.0699  1.2637 -1.2626
 7170SOL     OW25297   2.395   7.331   1.915 -0.1374 -0.1806  0.1122
 7170SOL    HW125298   2.391   7.394   1.843 -1.4067 -0.7971 -0.3922
 7170SOL    HW225299   2.326   7.359   1.975  0.8677  0.2864  1.0805
 7171SOL     OW25300   4.659   4.410   7.850  0.1864  0.3635  0.7015
 7171SOL    HW125301   4.614   4.476   7.902  3.2563  1.5995  2.0605
 7171SOL    HW225302   4.624   4.327   7.880 -1.0965  1.2258  1.6786
 7172SOL     OW25303   6.812   0.297   6.573  0.1610  0.2433 -0.0813
 7172SOL    HW125304   6.758   0.312   6.495  2.2174  0.8988 -1.4514
 7172SOL    HW225305   6.865   0.376   6.582  0.1017  0.1204  1.9278
 7173SOL     OW25306   5.675   6.094   7.239 -0.2026 -1.2421  0.2636
 7173SOL    HW125307   5.608   6.161   7.228  0.5328 -0.5336 -0.0713
 7173SOL    HW225308   5.631   6.012   7.218 -0.2065 -0.4932 -3.1978
 7174SOL     OW25309  10.158   9.411   5.580 -0.4838 -0.2141  0.5311
 7174SOL    HW125310  10.089   9.426   5.516  0.6579  0.1617 -0.6465
 7174SOL    HW225311  10.216   9.487   5.571  1.0268 -1.3687  0.2235
 7175SOL     OW25312   0.894   0.437   8.167 -0.2463  0.3463 -0.0464
 7175SOL    HW125313   0.971   0.494   8.175 -0.4730  0.7810 -0.8458
 7175SOL    HW225314   0.887   0.394   8.252  0.8112  0.3907  0.0718
 7176SOL     OW25315   7.619   8.318   2.776 -0.1266 -0.2996 -0.1033
 7176SOL    HW125316   7.708   8.339   2.748  0.0523  0.6497  1.0854
 7176SOL    HW225317   7.610   8.359   2.862 -1.4285 -1.1109  0.1889
 7177SOL     OW25318  10.068   7.616   1.457 -0.0713  0.2099 -0.5297
 7177SOL    HW125319  10.039   7.539   1.505 -1.2310  0.2275 -1.1610
 7177SOL    HW225320  10.157   7.632   1.488 -0.2519 -0.6630  0.4874
 7178SOL     OW25321   1.949   7.280   2.232 -0.0479 -0.3767 -0.1189
 7178SOL    HW125322   1.913   7.258   2.318  1.3937 -2.8362 -0.0462
 7178SOL    HW225323   1.937   7.200   2.180  0.7238  0.4502 -1.6357
 7179SOL     OW25324   4.154   9.998   2.196  0.0245  0.5914 -0.1012
 7179SOL    HW125325   4.223  10.060   2.217 -0.1964  0.4064  1.3208
 7179SOL    HW225326   4.076  10.051   2.182 -0.2368  0.6668  1.4217
 7180SOL     OW25327   8.695   4.386   1.391 -0.4919  0.1917 -0.3135
 7180SOL    HW125328   8.708   4.468   1.439  1.8331 -0.5538  0.4584
 7180SOL    HW225329   8.635   4.409   1.320 -1.8153  1.9722  1.2659
 7181SOL     OW25330   2.699   5.525   4.097  0.7789 -0.2709  0.5505
 7181SOL    HW125331   2.619   5.576   4.084  1.1785 -0.2304 -2.4981
 7181SOL    HW225332   2.690   5.487   4.184 -1.6499  1.2774  1.0561
 7182SOL     OW25333   0.053  10.197   2.399  0.5221 -0.3207 -0.1260
 7182SOL    HW125334   0.075  10.191   2.492  0.1818 -0.3604 -0.0468
 7182SOL    HW225335  -0.019  10.136   2.388  0.2787  0.0012 -0.3264
 7183SOL     OW25336   3.374   2.880   6.235  0.5550 -0.2170  0.2155
 7183SOL    HW125337   3.400   2.916   6.320  1.3349 -2.3150  0.9222
 7183SOL    HW225338   3.430   2.804   6.223  0.1159 -0.2523 -1.9790
 7184SOL     OW25339   9.876   3.730   6.080  0.1172 -0.2096  0.6286
 7184SOL    HW125340   9.787   3.698   6.079  0.2734 -0.6575 -0.1840
 7184SOL    HW225341   9.916   3.690   6.157 -0.5156  0.4037  1.2928
 7185SOL     OW25342   4.456   9.852   3.599  0.2278 -0.0205  0.3606
 7185SOL    HW125343   4.448   9.933   3.549 -1.3114  0.0500  0.6703
 7185SOL    HW225344   4.388   9.795   3.564 -0.9964  0.0756  2.3904
 7186SOL     OW25345   7.751   2.590   4.624  0.4007  0.2244 -0.2131
 7186SOL    HW125346   7.721   2.679   4.605 -0.6641 -0.3266 -1.3238
 7186SOL    HW225347   7.834   2.582   4.578  0.1259  0.4161 -0.7518
 7187SOL     OW25348   2.715   8.053   8.639  0.0053  0.4947 -0.3737
 7187SOL    HW125349   2.621   8.060   8.624 -0.0303 -0.9862 -0.9556
 7187SOL    HW225350   2.752   8.039   8.551  0.7877  1.1782 -0.1651
 7188SOL     OW25351   9.220   3.927  10.356  0.0906 -0.0709  0.0789
 7188SOL    HW125352   9.185   4.009  10.391  1.8158  1.8221 -2.2929
 7188SOL    HW225353   9.303   3.916  10.402 -0.3640 -0.7881  0.7436
 7189SOL     OW25354   8.321  10.265   2.182  0.1005 -0.4095  0.0830
 7189SOL    HW125355   8.306  10.175   2.211  0.0277 -0.6354 -0.6315
 7189SOL    HW225356   8.378  10.256   2.105 -1.4616  0.0009 -1.1836
 7190SOL     OW25357   1.664   3.912   6.040 -0.1870 -0.3246  0.2181
 7190SOL    HW125358   1.728   3.854   5.998 -1.1890 -1.5276  0.3098
 7190SOL    HW225359   1.680   3.997   6.001  0.9498 -0.7682 -0.3379
 7191SOL     OW25360   0.796   3.775   5.989  0.4822  0.5480  0.1915
 7191SOL    HW125361   0.776   3.861   6.027  0.1062  0.7846 -0.5131
 7191SOL    HW225362   0.746   3.713   6.042  0.7881  0.7550  0.7313
 7192SOL     OW25363   6.148   2.981   4.776 -0.2295  0.0218 -0.3170
 7192SOL    HW125364   6.126   2.954   4.686  0.1687  1.4412 -0.8623
 7192SOL    HW225365   6.243   2.982   4.778 -0.1873 -1.6131  0.6575
 7193SOL     OW25366   5.205   3.909   6.604  0.1990  0.5809 -0.1430
 7193SOL    HW125367   5.294   3.930   6.578  1.1533 -2.9794 -0.3287
 7193SOL    HW225368   5.167   3.867   6.527 -2.4898  3.7733 -0.7958
 7194SOL     OW25369   9.424   1.628   3.297 -0.1451 -0.3392  0.5099
 7194SOL    HW125370   9.350   1.580   3.261  0.2075 -0.8889  0.4987
 7194SOL    HW225371   9.476   1.654   3.220 -0.0709 -0.3809  0.5457
 7195SOL     OW25372   4.580   9.876   2.022  0.2816 -0.5127  0.1802
 7195SOL    HW125373   4.600   9.806   1.960  1.4336  2.4188 -3.1110
 7195SOL    HW225374   4.486   9.869   2.038 -0.2819 -0.8669 -2.7963
 7196SOL     OW25375   9.855   1.761   7.538  0.3154 -0.1446 -0.3320
 7196SOL    HW125376   9.827   1.719   7.456  2.3971 -0.0952 -1.1204
 7196SOL    HW225377   9.928   1.817   7.512  0.4146  0.5787  1.4292
 7197SOL     OW25378   6.549   4.083   4.656 -0.3083  0.2788 -0.1081
 7197SOL    HW125379   6.612   4.011   4.663 -0.1316  0.3281 -1.0698
 7197SOL    HW225380   6.541   4.116   4.745 -0.2574 -0.8189  0.3263
 7198SOL     OW25381   3.336   4.468   6.887 -0.3959 -0.2202  0.0756
 7198SOL    HW125382   3.343   4.374   6.870  0.5678  0.0126 -0.9144
 7198SOL    HW225383   3.410   4.487   6.945 -0.6653 -0.0892  0.3800
 7199SOL     OW25384   7.661   1.288   9.475 -0.4266 -0.0382  0.5992
 7199SOL    HW125385   7.592   1.354   9.465 -0.7533 -0.5973 -1.1133
 7199SOL    HW225386   7.615   1.210   9.506 -0.2619  0.1000  1.2115
 7200SOL     OW25387  10.325   6.350   4.740  0.1662 -0.2932 -0.0673
 7200SOL    HW125388  10.307   6.303   4.822  2.0642 -0.2710  0.4098
 7200SOL    HW225389  10.260   6.315   4.678  0.4719 -2.3927  0.6968
 7201SOL     OW25390   3.335   5.578   4.441 -0.4251  0.4089  0.3743
 7201SOL    HW125391   3.412   5.628   4.466  1.7399 -2.4753 -0.0499
 7201SOL    HW225392   3.308   5.616   4.357  2.4385 -0.3406 -1.0182
 7202SOL     OW25393   1.561   1.027   0.347  0.2347  0.4741  0.7302
 7202SOL    HW125394   1.481   0.974   0.349  0.2068  0.5409  1.6114
 7202SOL    HW225395   1.632   0.964   0.336  0.1082  0.3572  0.5800
 7203SOL     OW25396   1.507   4.650   6.778  0.2002 -0.3285 -0.0593
 7203SOL    HW125397   1.545   4.618   6.697 -1.0479  0.6845 -1.0844
 7203SOL    HW225398   1.581   4.686   6.827  0.9111 -0.6083 -0.9138
 7204SOL     OW25399   6.644   5.253   5.924  0.1489  0.0691 -0.1591
 7204SOL    HW125400   6.583   5.278   5.854 -1.3695  0.1450  1.1429
 7204SOL    HW225401   6.651   5.158   5.917  0.2690  0.1105 -0.6241
 7205SOL     OW25402   1.134   2.434   4.312  0.7565 -0.0219  0.5312
 7205SOL    HW125403   1.044   2.451   4.342  0.4322  0.1852 -0.5284
 7205SOL    HW225404   1.170   2.374   4.378 -0.8674 -1.8204 -0.1257
 7206SOL     OW25405   6.241   7.517   8.614  0.0447  0.0281  0.1383
 7206SOL    HW125406   6.199   7.514   8.700  2.0909  0.9981  1.2501
 7206SOL    HW225407   6.307   7.449   8.617 -0.4689 -0.5415 -1.0445
 7207SOL     OW25408   3.059   3.244   0.371  0.1746  0.2391 -0.1384
 7207SOL    HW125409   3.004   3.186   0.318 -0.8402  0.6319  0.4543
 7207SOL    HW225410   3.069   3.199   0.454  1.0891 -0.0084 -0.3775
 7208SOL     OW25411   6.787   4.193   2.206 -0.4616 -0.1782 -0.2205
 7208SOL    HW125412   6.705   4.194   2.155  0.5389 -0.3821 -1.9113
 7208SOL    HW225413   6.763   4.229   2.291 -2.4043 -0.6246 -0.5357
 7209SOL     OW25414   3.944   8.195   5.494 -0.2649 -0.1374 -0.6844
 7209SOL    HW125415   4.025   8.185   5.545 -0.6195  1.3708  0.1995
 7209SOL    HW225416   3.943   8.117   5.438 -0.2149 -2.2408  2.0471
 7210SOL     OW25417   5.004   2.310   5.628 -0.3951  0.1667 -0.2767
 7210SOL    HW125418   4.943   2.384   5.626 -0.2424  0.2970 -0.1397
 7210SOL    HW225419   4.965   2.245   5.570 -0.8490  0.1070  0.0873
 7211SOL     OW25420   8.642   3.655   1.694 -0.4938 -0.4225 -0.0991
 7211SOL    HW125421   8.585   3.732   1.697 -0.1552 -0.1764  0.1116
 7211SOL    HW225422   8.690   3.663   1.612  0.7580  0.4863  0.6822
 7212SOL     OW25423   5.034   2.028   1.160 -0.4703  0.8631  0.1298
 7212SOL    HW125424   5.037   2.053   1.068 -0.5106  0.9296  0.1463
 7212SOL    HW225425   5.119   1.988   1.177 -1.0366 -0.6178 -0.3595
 7213SOL     OW25426   2.370   6.897   4.355 -0.3220 -0.3024 -0.0569
 7213SOL    HW125427   2.456   6.929   4.329 -0.2418 -0.6007 -0.1627
 7213SOL    HW225428   2.332   6.969   4.406  0.1843 -0.3528  0.4062
 7214SOL     OW25429   1.150   8.915   3.363  0.0802 -0.3492  0.6527
 7214SOL    HW125430   1.150   9.010   3.366  0.8213 -0.3515  1.0399
 7214SOL    HW225431   1.228   8.892   3.312 -0.9108 -0.7307 -0.7313
 7215SOL     OW25432   4.330   9.496   6.028  0.1607 -0.8387 -0.3513
 7215SOL    HW125433   4.375   9.542   5.957 -0.4493 -0.2440 -0.3568
 7215SOL    HW225434   4.239   9.523   6.020 -0.2616 -2.2357 -0.5074
 7216SOL     OW25435   2.779   1.843   4.501 -0.0618 -0.1841  0.4889
 7216SOL    HW125436   2.761   1.785   4.427  1.2006  0.4920 -0.3834
 7216SOL    HW225437   2.797   1.784   4.575  1.8030 -0.9800 -0.5262
 7217SOL     OW25438   0.775   0.195   3.681 -0.6642  0.2768  0.4586
 7217SOL    HW125439   0.725   0.192   3.763 -0.8470  4.4418  0.7066
 7217SOL    HW225440   0.747   0.277   3.639  0.5971 -0.9124 -3.0618
 7218SOL     OW25441   8.872   6.378   7.034  0.1849  0.0664  0.0026
 7218SOL    HW125442   8.958   6.343   7.055 -0.6178 -1.2907  1.2371
 7218SOL    HW225443   8.843   6.423   7.114 -0.0597  0.9762 -0.5701
 7219SOL     OW25444   9.887   0.420   1.340 -0.1933 -0.1872  0.0563
 7219SOL    HW125445   9.869   0.330   1.367 -2.3205 -0.3644 -1.6125
 7219SOL    HW225446   9.891   0.416   1.244 -0.0363  1.4432 -0.0377
 7220SOL     OW25447   1.043   7.995   7.163  0.2606 -0.5340 -0.7421
 7220SOL    HW125448   0.977   7.933   7.194  1.2081 -1.8745 -1.3004
 7220SOL    HW225449   1.095   8.016   7.242  0.3654 -1.0032 -0.6846
 7221SOL     OW25450   0.530   0.251   4.955  0.2319 -0.2295 -0.2097
 7221SOL    HW125451   0.561   0.196   4.883 -0.4749 -0.2757 -0.4762
 7221SOL    HW225452   0.443   0.279   4.929 -0.7198 -1.5537  1.3139
 7222SOL     OW25453   7.980   0.391   1.015  0.3959 -0.1142 -0.4419
 7222SOL    HW125454   7.957   0.369   1.105  0.1990  0.1797 -0.4185
 7222SOL    HW225455   7.964   0.485   1.009  0.9885 -0.0223 -0.6096
 7223SOL     OW25456   0.939   8.117   0.575  0.7769  0.1868 -0.0611
 7223SOL    HW125457   1.024   8.092   0.613  1.0144  2.0425  0.7220
 7223SOL    HW225458   0.936   8.212   0.584 -2.3893  0.0117  2.1326
 7224SOL     OW25459   7.069   5.870   2.650  0.3439  0.3977 -0.0919
 7224SOL    HW125460   7.164   5.880   2.662  0.3299  0.0132  0.4068
 7224SOL    HW225461   7.060   5.798   2.588  0.3849  0.7838 -0.5475
 7225SOL     OW25462  10.025   8.126   1.358 -0.1244 -0.0724 -0.2997
 7225SOL    HW125463  10.034   8.215   1.392 -2.1804 -0.3771  1.2423
 7225SOL    HW225464  10.082   8.073   1.414  0.1735  0.1003 -0.4381
 7226SOL     OW25465   1.197   6.289   6.581  0.2795 -0.2293 -0.5481
 7226SOL    HW125466   1.249   6.329   6.651 -0.0747  0.3529 -0.6091
 7226SOL    HW225467   1.109   6.281   6.618 -0.3484  1.7106 -1.4883
 7227SOL     OW25468   2.793   4.263   1.007 -0.3328 -0.1301 -0.5319
 7227SOL    HW125469   2.738   4.303   0.939 -0.3272  0.6151 -0.1023
 7227SOL    HW225470   2.879   4.304   0.996 -0.5726  0.6949  0.5190
 7228SOL     OW25471   3.388   0.309   9.776 -0.6270 -0.0804 -0.6188
 7228SOL    HW125472   3.334   0.384   9.750  1.5985  1.9067  0.1578
 7228SOL    HW225473   3.393   0.315   9.871  1.3893  0.1483 -0.7096
 7229SOL     OW25474   7.926   6.565   2.972 -0.0446 -0.4290 -0.2534
 7229SOL    HW125475   7.980   6.520   2.907 -1.2156 -0.5898 -1.1414
 7229SOL    HW225476   7.934   6.510   3.051  1.4725 -0.1674 -0.2025
 7230SOL     OW25477   7.946   0.607   0.332 -0.4472 -0.5179  0.1800
 7230SOL    HW125478   8.010   0.647   0.390  0.5648 -0.6082 -0.8292
 7230SOL    HW225479   7.926   0.523   0.372 -0.7362 -0.0546  1.0385
 7231SOL     OW25480   4.658   5.433   4.994 -0.9171 -0.4183 -0.2912
 7231SOL    HW125481   4.671   5.363   4.930 -1.1183 -1.1103  0.4003
 7231SOL    HW225482   4.569   5.419   5.026 -0.2666 -1.1226  1.3214
 7232SOL     OW25483  10.058   2.321   2.935 -0.1869 -0.0160  0.1164
 7232SOL    HW125484  10.112   2.399   2.923 -1.0289  0.6710  0.7484
 7232SOL    HW225485  10.056   2.307   3.029 -0.2235 -0.6749  0.0208
 7233SOL     OW25486   1.902   6.957   0.027 -0.1684 -0.1638 -0.1803
 7233SOL    HW125487   1.917   6.985  -0.063  0.2179 -0.0122 -0.0678
 7233SOL    HW225488   1.844   7.023   0.064  0.3508  0.2282 -0.0623
 7234SOL     OW25489   8.341   4.097   7.691 -0.1149 -0.2588 -0.1899
 7234SOL    HW125490   8.263   4.052   7.721 -0.5861  1.7315  1.8546
 7234SOL    HW225491   8.413   4.055   7.737 -0.4824  0.5833  1.2143
 7235SOL     OW25492   5.412   3.929   4.151 -0.2972  0.0134 -0.2271
 7235SOL    HW125493   5.423   3.927   4.056  0.3212  1.0578 -0.1957
 7235SOL    HW225494   5.337   3.872   4.167 -0.9232  0.4551 -1.4201
 7236SOL     OW25495   5.499   9.989   7.835  0.2318 -0.0386  0.0405
 7236SOL    HW125496   5.518  10.059   7.898 -0.4862 -0.4700  0.7637
 7236SOL    HW225497   5.500  10.032   7.750 -0.3051  0.8812  0.4810
 7237SOL     OW25498   6.130   3.327   7.885  0.8435  0.6984 -0.0410
 7237SOL    HW125499   6.085   3.326   7.800  1.2478  2.4409 -0.3259
 7237SOL    HW225500   6.211   3.279   7.869  0.8679  0.9163 -0.6205
 7238SOL     OW25501   0.528   9.762   7.808  0.8407 -0.1432 -0.2520
 7238SOL    HW125502   0.549   9.696   7.874 -1.5903  0.4586  1.2637
 7238SOL    HW225503   0.453   9.725   7.761 -0.3573  1.3240  0.4099
 7239SOL     OW25504   2.839   4.267   6.663  0.2263  0.2059  0.2033
 7239SOL    HW125505   2.929   4.268   6.633  0.6285 -0.4316  1.3377
 7239SOL    HW225506   2.817   4.359   6.678  0.9650  0.3047  0.7076
 7240SOL     OW25507   7.316   5.214   7.885 -0.0723 -0.1258 -0.4125
 7240SOL    HW125508   7.265   5.263   7.820  0.8512  0.0460 -1.0198
 7240SOL    HW225509   7.283   5.124   7.878  1.1317 -0.4760 -2.3282
 7241SOL     OW25510   9.494   7.209   1.051 -0.1721  0.4393  0.0693
 7241SOL    HW125511   9.406   7.237   1.072 -0.2598  0.7221 -0.6557
 7241SOL    HW225512   9.497   7.208   0.955  0.2251 -0.7673  0.0772
 7242SOL     OW25513   5.326   8.554   0.927 -0.6961 -0.3449  0.1156
 7242SOL    HW125514   5.416   8.584   0.916 -0.6980 -0.2569  0.3288
 7242SOL    HW225515   5.272   8.626   0.893 -0.6756 -0.6299 -0.5258
 7243SOL     OW25516   0.678   0.999   9.918 -0.1933  0.4164  0.5124
 7243SOL    HW125517   0.737   0.985   9.992  1.6009  1.2001 -0.6956
 7243SOL    HW225518   0.731   1.046   9.854 -0.9827 -2.0352 -2.1550
 7244SOL     OW25519   5.514   8.832   3.125 -0.4144 -0.5866  0.3600
 7244SOL    HW125520   5.545   8.877   3.203  0.0048  0.7544 -0.5401
 7244SOL    HW225521   5.451   8.768   3.157  0.9643 -1.2325  1.9478
 7245SOL     OW25522   8.939   1.124   8.468 -0.5277 -0.5983  0.4631
 7245SOL    HW125523   8.884   1.167   8.534 -0.2363  3.2635 -1.5223
 7245SOL    HW225524   8.876   1.086   8.406 -1.0885  1.9251 -0.6520
 7246SOL     OW25525   3.243   1.264   8.566  0.0219 -0.1226 -0.3502
 7246SOL    HW125526   3.326   1.309   8.583 -1.5059  3.2812 -1.1156
 7246SOL    HW225527   3.204   1.253   8.653 -0.2770  1.6473 -0.2232
 7247SOL     OW25528   3.371   4.450   5.789  0.3477  0.4054 -0.4516
 7247SOL    HW125529   3.364   4.495   5.705  0.0217  0.7375 -0.2491
 7247SOL    HW225530   3.326   4.367   5.775 -0.6500  0.9099 -0.2963
 7248SOL     OW25531   3.667   8.279   2.163 -0.0577  0.1986 -0.4537
 7248SOL    HW125532   3.698   8.367   2.142 -2.2418  0.7710 -1.5372
 7248SOL    HW225533   3.693   8.225   2.088  0.2601  0.1689 -0.3236
 7249SOL     OW25534   3.916   6.499   2.282 -0.4835  0.1977 -0.2424
 7249SOL    HW125535   3.894   6.414   2.244 -1.2516  0.5672 -0.6506
 7249SOL    HW225536   4.010   6.494   2.298 -0.5447 -0.7704 -0.1461
 7250SOL     OW25537   1.380   5.473   0.867 -0.2988  0.4145 -0.1138
 7250SOL    HW125538   1.367   5.472   0.962  0.9031  0.7683  0.0720
 7250SOL    HW225539   1.382   5.380   0.842 -2.0369  0.3249 -0.0289
 7251SOL     OW25540   1.193   3.045   5.127  0.2497 -0.5286 -0.5109
 7251SOL    HW125541   1.257   3.111   5.103 -0.3234  0.1767 -0.1462
 7251SOL    HW225542   1.117   3.095   5.157 -1.3271 -1.2490 -2.9565
 7252SOL     OW25543   7.645   2.072   3.722 -0.2239 -0.0060 -0.6051
 7252SOL    HW125544   7.590   2.012   3.772 -0.6978 -0.4580 -1.6246
 7252SOL    HW225545   7.732   2.032   3.724  0.0260  0.5710  0.7888
 7253SOL     OW25546   0.236   9.889   7.985  0.2315  0.2510  1.1452
 7253SOL    HW125547   0.228   9.973   7.940 -0.4548  0.3285  1.3897
 7253SOL    HW225548   0.182   9.829   7.933  0.2047  0.1147  1.3292
 7254SOL     OW25549   4.166   6.121   6.010 -0.0646 -0.1070 -0.3238
 7254SOL    HW125550   4.091   6.118   6.069 -1.0680  1.2973 -1.4660
 7254SOL    HW225551   4.230   6.062   6.050 -1.9598 -1.8074  0.3917
 7255SOL     OW25552   8.456  10.050   5.054 -0.2325  0.1789  0.7479
 7255SOL    HW125553   8.446  10.016   5.143  0.4624  0.8630  1.1015
 7255SOL    HW225554   8.465  10.144   5.066 -1.4529  0.4358 -0.1618
 7256SOL     OW25555   0.120   4.570   7.482  0.3692  0.2775  0.1252
 7256SOL    HW125556   0.196   4.537   7.530  0.3294 -0.7624 -0.4921
 7256SOL    HW225557   0.149   4.651   7.442  1.3896 -0.4502 -0.6665
 7257SOL     OW25558   9.625   0.038   9.680 -0.2963  0.1924 -0.0614
 7257SOL    HW125559   9.649   0.085   9.600  0.0709  0.9163  0.4681
 7257SOL    HW225560   9.707   0.001   9.711 -0.5095 -0.4430 -0.2344
 7258SOL     OW25561   1.268   9.609   7.304 -0.4752 -0.3784 -0.2354
 7258SOL    HW125562   1.338   9.544   7.312 -0.8115 -0.5756  1.3246
 7258SOL    HW225563   1.203   9.583   7.369 -1.2478  0.7603 -0.5179
 7259SOL     OW25564   6.434   5.235   4.596  0.0694  0.2117 -0.0725
 7259SOL    HW125565   6.362   5.243   4.534  0.5285  1.4044 -0.4826
 7259SOL    HW225566   6.431   5.315   4.648  0.8512  0.1010  0.1661
 7260SOL     OW25567   9.042   0.701   3.439 -0.4337 -0.2497  0.3761
 7260SOL    HW125568   9.048   0.781   3.491 -0.0191 -0.2381  0.3129
 7260SOL    HW225569   9.128   0.660   3.447 -0.3157 -0.1775 -0.4185
 7261SOL     OW25570   2.258   8.460   5.726  0.3066  1.1603  0.3231
 7261SOL    HW125571   2.245   8.367   5.744  1.5471  0.9066  0.0125
 7261SOL    HW225572   2.170   8.498   5.727 -0.1576  0.0877  0.9981
 7262SOL     OW25573   3.847   3.839  10.146 -0.0063 -0.7487 -0.0308
 7262SOL    HW125574   3.896   3.759  10.162 -2.2850 -1.9984  1.2817
 7262SOL    HW225575   3.855   3.888  10.228 -0.3958 -0.6636 -0.0435
 7263SOL     OW25576   2.510   6.593   1.877  0.0576  0.4283 -0.1070
 7263SOL    HW125577   2.598   6.575   1.910 -0.1772  0.4329  0.5377
 7263SOL    HW225578   2.507   6.551   1.792  0.5540  0.0843  0.0427
 7264SOL     OW25579   4.012   3.203   5.921  0.4689  0.6135 -0.1481
 7264SOL    HW125580   3.959   3.210   6.000  0.3372  1.0806 -0.2774
 7264SOL    HW225581   3.969   3.136   5.868  2.0013 -1.6498  1.2988
 7265SOL     OW25582  10.356   2.274   3.862 -0.4714  0.1927 -0.5834
 7265SOL    HW125583  10.421   2.230   3.917 -1.6915 -0.7326  0.1564
 7265SOL    HW225584  10.380   2.250   3.773  1.2403  1.3219 -0.4754
 7266SOL     OW25585   2.727   6.604   7.670  0.4507 -0.0162 -0.0004
 7266SOL    HW125586   2.740   6.567   7.583  0.7186 -1.8838  0.8019
 7266SOL    HW225587   2.799   6.569   7.722 -1.1175 -1.0030  1.5957
 7267SOL     OW25588   4.610   4.240   7.208 -0.1234 -0.4379  0.0886
 7267SOL    HW125589   4.600   4.267   7.117 -0.3139 -0.8199 -0.0099
 7267SOL    HW225590   4.641   4.149   7.203 -1.1520 -0.8293  0.3927
 7268SOL     OW25591   0.974   5.507  10.038 -0.4460 -0.4311  0.1168
 7268SOL    HW125592   0.923   5.573   9.990 -1.5093 -0.4260  1.2060
 7268SOL    HW225593   1.056   5.500   9.989 -1.9832 -1.4393 -2.5316
 7269SOL     OW25594   0.859   9.371   9.237 -0.1273 -0.2179  0.0710
 7269SOL    HW125595   0.806   9.389   9.159 -1.6906 -0.5023  1.0129
 7269SOL    HW225596   0.936   9.427   9.227 -0.9308  0.7578 -1.0328
 7270SOL     OW25597   3.845   0.570   7.740  0.5265 -0.2823  0.0318
 7270SOL    HW125598   3.780   0.638   7.754 -0.9183 -1.7231  0.6912
 7270SOL    HW225599   3.863   0.573   7.645 -1.0099 -0.2841 -0.2757
 7271SOL     OW25600   8.953   2.883   6.426  0.6599  0.5503  0.1103
 7271SOL    HW125601   8.922   2.811   6.371 -0.3665  0.3926  0.8615
 7271SOL    HW225602   9.046   2.864   6.440  0.6485 -0.0569 -0.5671
 7272SOL     OW25603   1.993   8.560   2.124  0.0047  0.0769 -0.7182
 7272SOL    HW125604   2.040   8.536   2.204 -0.0866  0.7304 -0.4623
 7272SOL    HW225605   1.937   8.633   2.150 -0.7683 -0.3496 -1.1434
 7273SOL     OW25606   1.721   0.377   7.810  0.0005 -0.9854  0.1481
 7273SOL    HW125607   1.815   0.378   7.794 -0.0229 -1.6822 -0.0393
 7273SOL    HW225608   1.709   0.437   7.884  0.5720 -0.7951  0.0921
 7274SOL     OW25609  10.066   9.196   4.315 -0.0256  0.9367  0.1167
 7274SOL    HW125610  10.118   9.276   4.306  0.4524  0.8353  1.7704
 7274SOL    HW225611   9.981   9.218   4.277  0.3566  1.9694 -0.1593
 7275SOL     OW25612   1.382   1.935   2.009  0.3618 -0.0661  0.4291
 7275SOL    HW125613   1.404   1.930   2.102  0.0963  1.0619  0.5669
 7275SOL    HW225614   1.303   1.882   1.999 -0.2811  0.7491  1.0801
 7276SOL     OW25615   4.263   2.565   4.162 -0.4691  0.2889  0.2336
 7276SOL    HW125616   4.217   2.648   4.152 -0.1803  0.5613  1.0868
 7276SOL    HW225617   4.301   2.547   4.076 -0.6467  0.9688  0.0143
 7277SOL     OW25618   4.482   4.049   9.923 -0.2910  0.1025 -0.2379
 7277SOL    HW125619   4.425   4.126   9.923  2.7564  2.5491  0.5193
 7277SOL    HW225620   4.478   4.017  10.013 -1.3493 -0.5312 -0.4867
 7278SOL     OW25621  10.044   6.058   6.103 -0.6241  0.1521  0.5159
 7278SOL    HW125622  10.136   6.081   6.092 -0.6963  0.4394  0.4920
 7278SOL    HW225623  10.038   5.966   6.077 -0.6296  0.5569 -1.0492
 7279SOL     OW25624   5.227  10.290   9.124 -0.0967 -0.1644 -0.1949
 7279SOL    HW125625   5.306  10.340   9.145  0.3970  1.3765 -4.6643
 7279SOL    HW225626   5.198  10.255   9.208  2.4177  3.4098  2.4699
 7280SOL     OW25627   7.563   5.138   4.867  0.3674  0.1350 -0.3664
 7280SOL    HW125628   7.593   5.187   4.944 -0.6208  0.9923 -0.5077
 7280SOL    HW225629   7.633   5.075   4.851  0.3267 -0.4740  1.5828
 7281SOL     OW25630   9.512   4.702   7.728 -0.5208  0.2365 -0.0841
 7281SOL    HW125631   9.553   4.616   7.726 -0.0387  0.4751 -1.9767
 7281SOL    HW225632   9.569   4.754   7.785  0.0896 -0.2542 -0.2337
 7282SOL     OW25633   9.824  10.020   6.527 -0.2008  0.5037  0.1423
 7282SOL    HW125634   9.789  10.060   6.448  2.2771  0.1256 -1.2693
 7282SOL    HW225635   9.843  10.093   6.585 -0.7111  0.9124 -0.2042
 7283SOL     OW25636   5.182   0.545   7.954 -0.2336 -0.0166  0.0601
 7283SOL    HW125637   5.258   0.509   8.000 -0.0068  1.0578  0.5515
 7283SOL    HW225638   5.124   0.576   8.024 -0.2816  0.8463 -0.3559
 7284SOL     OW25639   9.414   0.811   1.314 -0.1033  0.2366 -0.2060
 7284SOL    HW125640   9.469   0.862   1.255  1.5294  0.5482  1.4709
 7284SOL    HW225641   9.446   0.834   1.402 -1.5131 -1.2199  0.7429
 7285SOL     OW25642   5.784   9.635   4.380  0.3611 -0.0678  0.1612
 7285SOL    HW125643   5.778   9.615   4.286 -1.4992  0.3289  0.1498
 7285SOL    HW225644   5.853   9.701   4.386  0.0794  0.3709 -1.0338
 7286SOL     OW25645   4.829   5.923   1.995 -0.3887 -0.2444  0.2992
 7286SOL    HW125646   4.770   5.989   2.030 -1.3846 -0.3569 -1.0824
 7286SOL    HW225647   4.798   5.909   1.905  1.9332 -0.0802 -0.5889
 7287SOL     OW25648   3.566   6.260   0.358 -0.3440 -0.1422 -0.7611
 7287SOL    HW125649   3.524   6.324   0.416 -1.6516 -0.6297 -1.1161
 7287SOL    HW225650   3.549   6.175   0.400  1.3352 -0.2925 -0.3129
 7288SOL     OW25651   1.165   9.801   5.155  0.2097 -0.0799  0.2357
 7288SOL    HW125652   1.161   9.822   5.249 -1.0583 -1.1523  0.4563
 7288SOL    HW225653   1.158   9.706   5.152  0.8526 -0.0927 -0.9308
 7289SOL     OW25654   7.660   3.523   1.167 -0.5456 -0.3765  0.1802
 7289SOL    HW125655   7.620   3.494   1.248 -1.9220 -0.0299 -0.3453
 7289SOL    HW225656   7.594   3.581   1.127  1.3551  2.1099  0.3640
 7290SOL     OW25657   1.739   3.867   2.079 -0.2357 -0.7710  0.5019
 7290SOL    HW125658   1.650   3.842   2.104 -0.5829 -0.3798 -0.3237
 7290SOL    HW225659   1.730   3.910   1.994  0.5879  0.3313  0.9385
 7291SOL     OW25660   0.401   5.998   3.001  0.6397  0.1060  0.0420
 7291SOL    HW125661   0.356   6.028   3.080 -0.7635 -1.3237 -0.1730
 7291SOL    HW225662   0.336   5.948   2.953  1.8643 -0.2224 -1.3662
 7292SOL     OW25663   9.912   7.814   5.129 -0.2851  0.0659 -0.2838
 7292SOL    HW125664   9.952   7.794   5.214  1.0875 -0.1908 -0.9648
 7292SOL    HW225665   9.896   7.728   5.090  0.0260  0.1911 -0.6921
 7293SOL     OW25666   1.200   9.627   6.665  0.7447  0.1975  0.4754
 7293SOL    HW125667   1.194   9.665   6.752 -0.8169  0.1280  0.4222
 7293SOL    HW225668   1.143   9.680   6.610 -0.2714 -1.2482  0.0640
 7294SOL     OW25669   1.026   2.313   6.575  0.0970  0.1071  0.6254
 7294SOL    HW125670   1.097   2.342   6.518 -1.7988  0.8471 -1.5283
 7294SOL    HW225671   1.061   2.237   6.621  3.2980  2.2581  2.0754
 7295SOL     OW25672   6.693   1.961   1.036 -0.0000 -0.2723 -0.0725
 7295SOL    HW125673   6.705   2.017   0.959  1.2114 -1.0641 -0.5039
 7295SOL    HW225674   6.629   1.895   1.007 -0.0147 -0.2075 -0.1918
 7296SOL     OW25675   8.423   0.726   5.129 -0.5851  0.0187  0.6505
 7296SOL    HW125676   8.419   0.799   5.067 -0.7273  0.2465  0.9232
 7296SOL    HW225677   8.502   0.742   5.180 -0.7182  0.0892  0.8375
 7297SOL     OW25678   3.375   9.153   0.078  0.5061 -0.2859 -0.6627
 7297SOL    HW125679   3.448   9.092   0.090  1.0203  0.4153 -0.1340
 7297SOL    HW225680   3.417   9.239   0.072 -0.2762  0.1219 -0.4043
 7298SOL     OW25681   5.585   1.044   1.734 -0.2909 -0.3705  0.3823
 7298SOL    HW125682   5.616   1.054   1.643 -1.6518 -0.3902 -0.1059
 7298SOL    HW225683   5.529   1.120   1.748 -2.8886 -2.0644 -0.0234
 7299SOL     OW25684   3.144   8.020   0.854 -0.3196  0.2421  0.4592
 7299SOL    HW125685   3.070   8.009   0.794 -0.5643  1.4417  0.5260
 7299SOL    HW225686   3.115   7.979   0.935 -1.1531  1.2466  0.6730
 7300SOL     OW25687   4.805   7.191   6.185 -0.3120  0.4884 -0.2930
 7300SOL    HW125688   4.749   7.118   6.158  1.1165 -0.0860 -1.8987
 7300SOL    HW225689   4.823   7.174   6.278 -1.5167 -0.1531 -0.1614
 7301SOL     OW25690   4.634   3.177   7.748 -0.1032  0.3096 -0.1293
 7301SOL    HW125691   4.611   3.105   7.807  1.1028  0.5885  0.7413
 7301SOL    HW225692   4.559   3.187   7.691  0.2980 -2.7656 -1.4082
 7302SOL     OW25693   6.893   4.852   3.129 -0.5692 -0.2987 -0.4110
 7302SOL    HW125694   6.863   4.828   3.216  0.0828 -1.8027 -0.5663
 7302SOL    HW225695   6.834   4.806   3.070 -0.7461  0.3705 -0.7628
 7303SOL     OW25696   2.343   2.266   7.424 -0.0371  0.0067  0.2685
 7303SOL    HW125697   2.353   2.323   7.348 -0.3506  0.2327  0.3956
 7303SOL    HW225698   2.412   2.295   7.484  0.0046  0.0422  0.2038
 7304SOL     OW25699   0.369   2.060   5.329 -0.2781 -0.2190 -0.1883
 7304SOL    HW125700   0.412   1.984   5.291 -0.1182  0.0359 -0.5227
 7304SOL    HW225701   0.291   2.073   5.276  1.4433  1.9351 -2.4142
 7305SOL     OW25702   4.657   5.223   3.933 -0.0119 -0.7807 -0.6849
 7305SOL    HW125703   4.665   5.316   3.953  1.0447 -0.5809 -1.8811
 7305SOL    HW225704   4.664   5.179   4.018  0.9039  0.1624 -0.2417
 7306SOL     OW25705   0.130   3.085   6.893 -0.0493 -0.3220  0.1623
 7306SOL    HW125706   0.096   3.063   6.980  0.0417  1.5880  0.7119
 7306SOL    HW225707   0.225   3.082   6.904 -0.0256  0.9759  0.4426
 7307SOL     OW25708   3.329  10.297   5.309  0.2474 -0.4953  0.5486
 7307SOL    HW125709   3.372  10.323   5.391  1.4126  0.4034 -0.3045
 7307SOL    HW225710   3.236  10.311   5.325  0.5156  0.3083  1.5115
 7308SOL     OW25711   1.316   0.624   4.750  0.6221  0.0735 -0.0407
 7308SOL    HW125712   1.222   0.622   4.768  0.5508  0.7872 -0.2873
 7308SOL    HW225713   1.326   0.693   4.684  1.4089  0.5328  0.5333
 7309SOL     OW25714   2.418   9.844   6.352 -0.8741  0.6631 -0.2820
 7309SOL    HW125715   2.355   9.915   6.353 -1.4718  0.1670  1.4804
 7309SOL    HW225716   2.365   9.764   6.348 -0.1971  0.2451 -3.4799
 7310SOL     OW25717  10.012   7.119   6.299  0.0563  0.5344  0.1827
 7310SOL    HW125718  10.084   7.095   6.358  1.8521  2.3663 -1.1087
 7310SOL    HW225719   9.933   7.111   6.353  1.3172 -0.4992  2.0004
 7311SOL     OW25720   1.342   9.835   1.080 -0.3552 -0.2846  0.0042
 7311SOL    HW125721   1.437   9.845   1.080 -0.3537 -0.2045  0.9160
 7311SOL    HW225722   1.312   9.893   1.010  0.3051 -0.8156 -0.7509
 7312SOL     OW25723   6.819   6.079   6.555  0.1275 -0.1118  0.0736
 7312SOL    HW125724   6.797   6.172   6.559 -3.3835 -0.8114  0.0066
 7312SOL    HW225725   6.791   6.051   6.467  2.6308 -0.9957 -0.5402
 7313SOL     OW25726   9.800   8.119   0.861  0.4408  0.2123  0.1549
 7313SOL    HW125727   9.885   8.114   0.817  0.6729  1.8571  0.3701
 7313SOL    HW225728   9.774   8.210   0.853 -1.9864 -0.5140 -1.1236
 7314SOL     OW25729   0.697   7.138   0.392 -0.1201 -0.3379  0.6234
 7314SOL    HW125730   0.711   7.081   0.467  0.8614 -0.7701  0.1394
 7314SOL    HW225731   0.627   7.095   0.342 -1.4374  0.4371  1.7261
 7315SOL     OW25732   6.861   9.216   3.260  0.1223  0.2687 -0.3338
 7315SOL    HW125733   6.890   9.219   3.351  0.1546 -0.9345 -0.2816
 7315SOL    HW225734   6.772   9.252   3.261  0.3334  0.7805  0.0771
 7316SOL     OW25735   8.328   6.127   7.520  0.8424 -0.0153  0.3901
 7316SOL    HW125736   8.370   6.060   7.466  0.6155 -0.1192  0.3409
 7316SOL    HW225737   8.234   6.116   7.503  0.9048  3.0203 -2.8080
 7317SOL     OW25738   6.824   9.751   9.125 -0.3702  0.5273 -0.0993
 7317SOL    HW125739   6.744   9.788   9.086 -0.1434  1.5254  0.3394
 7317SOL    HW225740   6.805   9.658   9.136 -0.4269  0.1690 -2.6577
 7318SOL     OW25741   6.418   1.148   5.492 -0.1543 -0.5761  0.1111
 7318SOL    HW125742   6.355   1.112   5.555 -0.8138 -1.8083 -1.2055
 7318SOL    HW225743   6.374   1.141   5.407  0.1743  2.2940 -0.3767
 7319SOL     OW25744   5.000   2.662   5.754  0.1636  0.0190  0.5710
 7319SOL    HW125745   4.960   2.591   5.705 -1.5736  1.6677 -0.4938
 7319SOL    HW225746   5.094   2.640   5.755 -0.0895 -1.3704 -1.2310
 7320SOL     OW25747   1.735   7.524   2.982  0.2934  0.5610  0.2519
 7320SOL    HW125748   1.688   7.496   3.060 -0.3597  0.5269 -0.1451
 7320SOL    HW225749   1.772   7.609   3.006  0.3292  0.4231  0.6876
 7321SOL     OW25750   3.004   4.181   0.394  0.1981  0.2145  0.2089
 7321SOL    HW125751   2.954   4.207   0.471  0.0778  1.7086 -0.3462
 7321SOL    HW225752   3.060   4.256   0.375  0.0514 -0.0232 -1.2955
 7322SOL     OW25753   2.084   1.118   5.224 -0.2159 -0.5674 -0.2507
 7322SOL    HW125754   2.128   1.033   5.223  1.2524  0.1710 -1.0024
 7322SOL    HW225755   1.992   1.097   5.238 -0.0142 -2.3590 -1.3449
 7323SOL     OW25756   5.442   9.174   2.410  0.1901 -0.5335  0.5985
 7323SOL    HW125757   5.427   9.206   2.499 -0.0710  2.0429 -0.2882
 7323SOL    HW225758   5.537   9.164   2.403  0.3410  0.6824  0.7417
 7324SOL     OW25759   8.231   4.818   2.641  0.0881 -0.2866 -0.6610
 7324SOL    HW125760   8.150   4.771   2.621 -0.3142  0.6733 -1.3747
 7324SOL    HW225761   8.240   4.810   2.736 -1.1338  0.0114 -0.4951
 7325SOL     OW25762   6.495   3.414   7.886  1.0898 -0.3272 -0.3117
 7325SOL    HW125763   6.450   3.332   7.868  0.4897  0.2453 -1.5763
 7325SOL    HW225764   6.440   3.460   7.949  1.4619 -0.9065  0.4501
 7326SOL     OW25765   8.350   1.263   2.622  0.2897  0.5481  0.0933
 7326SOL    HW125766   8.281   1.233   2.562  0.6298 -1.9119  0.8021
 7326SOL    HW225767   8.303   1.289   2.701  0.0880 -1.0866  0.5624
 7327SOL     OW25768   7.519   5.599   7.907 -0.5033  0.7676  0.2033
 7327SOL    HW125769   7.535   5.505   7.893  0.8089  1.1061 -0.8071
 7327SOL    HW225770   7.445   5.620   7.851  1.2039  0.9454 -2.1221
 7328SOL     OW25771   0.978   1.756   8.083  0.1225  0.4361  0.0748
 7328SOL    HW125772   0.929   1.724   8.008  1.4319  1.9803 -1.5345
 7328SOL    HW225773   0.926   1.829   8.116  0.9594  1.7121 -1.2840
 7329SOL     OW25774   8.838   8.771   2.623 -0.4058 -0.0167  0.4196
 7329SOL    HW125775   8.884   8.706   2.570 -0.3253 -0.4675  1.0320
 7329SOL    HW225776   8.750   8.735   2.634 -1.1571  1.1505 -1.3030
 7330SOL     OW25777   8.707   8.990   2.240 -0.0570 -0.5161  0.0787
 7330SOL    HW125778   8.669   8.918   2.191  0.3379  0.3907 -1.6341
 7330SOL    HW225779   8.801   8.972   2.242 -0.1044 -0.7373  0.8668
 7331SOL     OW25780   8.889   1.080   9.857 -0.3549 -0.2559 -0.0649
 7331SOL    HW125781   8.801   1.056   9.829 -0.6649  0.0507  0.6279
 7331SOL    HW225782   8.881   1.171   9.885 -0.3776 -0.9243  2.3105
 7332SOL     OW25783   7.392   7.821   1.024 -0.0008 -0.1571 -0.0436
 7332SOL    HW125784   7.390   7.890   0.957  0.3147 -0.2550 -0.1573
 7332SOL    HW225785   7.485   7.801   1.034 -0.1557 -1.4637 -0.9306
 7333SOL     OW25786   7.484   7.168   7.809 -0.6123 -0.3690  0.2138
 7333SOL    HW125787   7.573   7.186   7.780 -0.7422  0.6907  0.4563
 7333SOL    HW225788   7.429   7.189   7.734 -0.9972  2.8701  1.2703
 7334SOL     OW25789   8.958   4.664   1.518 -0.6936  0.0920  0.0751
 7334SOL    HW125790   8.978   4.616   1.438 -0.6799  1.1728 -0.5879
 7334SOL    HW225791   9.035   4.650   1.574 -1.2677 -1.7606  0.4576
 7335SOL     OW25792   1.236   2.770   5.980 -0.4503 -0.1183 -0.1983
 7335SOL    HW125793   1.188   2.761   5.897  1.4333 -0.9251 -1.2617
 7335SOL    HW225794   1.171   2.749   6.047 -2.1113  0.8205 -1.4185
 7336SOL     OW25795   3.192   4.535   5.989 -0.3691  0.0209  0.3132
 7336SOL    HW125796   3.159   4.472   5.924  1.2121  0.6555 -1.1865
 7336SOL    HW225797   3.255   4.588   5.940  0.4015  0.9523  2.2493
 7337SOL     OW25798   6.220   4.781   9.137  0.1137 -0.0477 -0.3271
 7337SOL    HW125799   6.215   4.874   9.114 -0.1811 -0.2282 -0.9833
 7337SOL    HW225800   6.258   4.781   9.225  0.0231  0.7001 -0.2823
 7338SOL     OW25801   7.198   6.891   9.762  0.2666  0.1671  0.0997
 7338SOL    HW125802   7.172   6.946   9.836  1.7048 -0.6502  1.2828
 7338SOL    HW225803   7.253   6.948   9.708 -0.0722  0.5184  0.1201
 7339SOL     OW25804   8.585   5.418   5.841 -0.4965 -0.0197  0.0553
 7339SOL    HW125805   8.661   5.359   5.839  0.9710  1.7531  0.9221
 7339SOL    HW225806   8.587   5.463   5.757 -0.9812 -0.4086 -0.1716
 7340SOL     OW25807  10.065   9.869   4.905  0.0658  0.1357 -0.9535
 7340SOL    HW125808  10.003   9.931   4.867 -1.0042 -0.6448 -0.5221
 7340SOL    HW225809  10.099   9.914   4.983 -1.7328 -0.3057  0.1459
 7341SOL     OW25810   8.895   7.798   6.719 -0.0669  0.2152  0.1829
 7341SOL    HW125811   8.874   7.796   6.626  1.4798 -0.7380 -0.1835
 7341SOL    HW225812   8.990   7.787   6.723 -0.3587 -3.2508  1.9105
 7342SOL     OW25813   3.374   5.823   3.936  0.0045  0.5225  0.4828
 7342SOL    HW125814   3.359   5.809   3.842 -0.0898  0.9933  0.4277
 7342SOL    HW225815   3.291   5.797   3.977 -0.1433  0.8396  0.3874
 7343SOL     OW25816   8.296   4.455   9.609 -0.5912 -0.1199 -0.1097
 7343SOL    HW125817   8.244   4.515   9.663 -2.5315 -1.2386 -0.6425
 7343SOL    HW225818   8.352   4.409   9.671  0.7431  2.0070  0.3383
 7344SOL     OW25819   4.480   2.193   9.382 -0.5651 -0.2860  0.0947
 7344SOL    HW125820   4.472   2.114   9.437  0.0453 -0.0340  0.5497
 7344SOL    HW225821   4.408   2.249   9.412 -0.6811 -0.4503  0.1303
 7345SOL     OW25822  10.203   9.928   2.635 -0.4037  0.0880  0.0808
 7345SOL    HW125823  10.125   9.939   2.580 -0.3242  1.5936  0.2298
 7345SOL    HW225824  10.203  10.005   2.692  2.5362  1.5128 -1.6211
 7346SOL     OW25825   6.614   6.581   1.518  0.3444 -0.2859  0.5731
 7346SOL    HW125826   6.694   6.632   1.536  0.9600 -0.8029 -0.6103
 7346SOL    HW225827   6.608   6.580   1.423 -0.0902 -1.7752  0.6046
 7347SOL     OW25828   2.231   4.493   2.910 -0.2747  0.7299  0.9691
 7347SOL    HW125829   2.222   4.540   2.993 -1.1176  1.3034  0.5634
 7347SOL    HW225830   2.229   4.562   2.843  0.3546  0.2716  0.4587
 7348SOL     OW25831   3.114   1.895   2.519  0.0856  0.5074  0.2036
 7348SOL    HW125832   3.169   1.881   2.442  0.2492  0.7660  0.2712
 7348SOL    HW225833   3.039   1.837   2.506  0.4491  0.0313  0.1812
 7349SOL     OW25834   3.171   7.663   2.179 -0.2458 -0.1126 -0.0862
 7349SOL    HW125835   3.162   7.623   2.265 -0.6659  0.0611 -0.0444
 7349SOL    HW225836   3.115   7.609   2.122 -1.5114  0.9080  0.1430
 7350SOL     OW25837  10.004   3.111   4.347 -0.0147 -0.4728 -0.6040
 7350SOL    HW125838  10.093   3.121   4.380 -0.2031  0.1214 -0.2731
 7350SOL    HW225839   9.974   3.029   4.385  1.1705 -1.9017 -2.5186
 7351SOL     OW25840   6.501   3.022   0.045 -0.5428 -0.5166  0.7351
 7351SOL    HW125841   6.447   2.949   0.015  0.5661 -0.8255 -0.6477
 7351SOL    HW225842   6.453   3.101   0.019 -0.0065 -0.7858 -1.1841
 7352SOL     OW25843   6.408   7.657   4.755  0.0285  0.0488 -0.2195
 7352SOL    HW125844   6.431   7.730   4.698 -0.5577 -0.7757 -1.5634
 7352SOL    HW225845   6.464   7.585   4.726 -1.4091 -0.8397 -0.8720
 7353SOL     OW25846   1.494   6.933   5.945  0.3213 -0.0015  0.5143
 7353SOL    HW125847   1.452   6.968   5.867  1.1746  0.4195  0.2338
 7353SOL    HW225848   1.505   7.009   6.002  1.5663  0.0752  0.1857
 7354SOL     OW25849   7.653   8.285   9.664 -0.1044  0.1315  0.3479
 7354SOL    HW125850   7.660   8.362   9.608 -1.6625 -1.3421 -2.0146
 7354SOL    HW225851   7.560   8.279   9.686 -0.3110 -1.9044 -0.8553
 7355SOL     OW25852   8.395   3.574   2.326 -0.4194  0.0205  0.2591
 7355SOL    HW125853   8.413   3.514   2.399 -0.9547  1.5468  1.7077
 7355SOL    HW225854   8.461   3.643   2.335 -0.5507  0.2874 -0.6831
 7356SOL     OW25855   7.968   8.407   4.441 -0.2611 -0.0578 -0.2643
 7356SOL    HW125856   7.879   8.383   4.414 -0.3340  0.9609 -0.9688
 7356SOL    HW225857   7.956   8.454   4.523 -0.3642 -0.0456 -0.2854
 7357SOL     OW25858   3.711   8.316   0.563  0.3021 -0.5256  0.4409
 7357SOL    HW125859   3.797   8.345   0.533 -0.4253  1.5003  0.1302
 7357SOL    HW225860   3.657   8.316   0.485 -0.3341 -0.3555  0.8752
 7358SOL     OW25861   9.357   8.652   5.104 -0.2156  0.7035 -0.1487
 7358SOL    HW125862   9.395   8.677   5.188 -1.4571  1.0333  0.3345
 7358SOL    HW225863   9.350   8.734   5.056  0.5450  0.5080 -0.6212
 7359SOL     OW25864   6.185   5.469   7.325  0.2218 -0.3376 -0.2373
 7359SOL    HW125865   6.091   5.469   7.345  0.0908  0.3919 -0.7993
 7359SOL    HW225866   6.221   5.398   7.379 -0.2755  0.8533  1.7872
 7360SOL     OW25867   6.635   9.482   4.320  0.3164  0.2043 -0.3124
 7360SOL    HW125868   6.661   9.474   4.228 -0.5531 -1.1395 -0.4720
 7360SOL    HW225869   6.698   9.428   4.368  0.8605  1.0223 -0.0807
 7361SOL     OW25870   1.758   1.325   2.071  0.1784  0.1413  0.1399
 7361SOL    HW125871   1.817   1.390   2.033  0.1288 -0.6003 -1.3059
 7361SOL    HW225872   1.704   1.297   1.997  0.1236 -1.4487  0.7583
 7362SOL     OW25873   4.958   7.256   5.987  0.3416  0.0460 -0.5255
 7362SOL    HW125874   4.902   7.238   6.063 -0.5550  0.2525 -1.1112
 7362SOL    HW225875   4.905   7.315   5.932  0.4326 -1.0906 -1.9111
 7363SOL     OW25876   3.229   7.678   4.350  0.5903 -0.5124  0.2345
 7363SOL    HW125877   3.235   7.710   4.440  1.6463 -0.6838  0.2357
 7363SOL    HW225878   3.294   7.608   4.345 -0.2712 -1.2964 -0.3447
 7364SOL     OW25879   9.599   7.543   6.807  0.5645 -0.1614  0.2266
 7364SOL    HW125880   9.612   7.520   6.899  1.4270  3.7131  1.2685
 7364SOL    HW225881   9.683   7.580   6.779  0.3960 -1.4448 -2.2808
 7365SOL     OW25882   6.188   9.852   7.034  0.2512  0.6178  0.2004
 7365SOL    HW125883   6.185   9.844   7.129  0.7466 -2.8383  0.0518
 7365SOL    HW225884   6.270   9.898   7.016 -0.6526  2.8353  1.4145
 7366SOL     OW25885   3.780  10.012  10.161 -0.2541  0.8704 -0.1396
 7366SOL    HW125886   3.801  10.039  10.251 -1.0814  0.7491  0.1028
 7366SOL    HW225887   3.783  10.093  10.111 -1.7483  1.2870  0.3950
 7367SOL     OW25888   9.780   5.293   5.003 -0.3813 -0.3954 -0.0997
 7367SOL    HW125889   9.732   5.350   5.063 -0.9019 -0.4310 -0.4815
 7367SOL    HW225890   9.857   5.265   5.053  0.3316  1.3009 -0.1716
 7368SOL     OW25891   8.727   9.324   1.714 -0.8785  0.6000  0.2708
 7368SOL    HW125892   8.656   9.293   1.658  0.2468 -0.0286 -0.8579
 7368SOL    HW225893   8.684   9.352   1.794 -2.2818 -0.9078  0.0880
 7369SOL     OW25894   2.811   5.197   2.404 -0.3914 -0.0307  0.2758
 7369SOL    HW125895   2.719   5.197   2.432 -0.4865 -0.8992  0.0017
 7369SOL    HW225896   2.845   5.282   2.431 -1.5036  0.6284 -0.3311
 7370SOL     OW25897   8.142   8.833   4.025 -0.0387 -0.2862 -0.6829
 7370SOL    HW125898   8.067   8.775   4.041  0.0529 -0.1812  0.1672
 7370SOL    HW225899   8.150   8.884   4.106  0.1661  0.5974 -1.2485
 7371SOL     OW25900   0.889   2.848   1.461 -0.1747  0.2155 -0.3146
 7371SOL    HW125901   0.982   2.826   1.452 -0.0675  0.1225  0.9178
 7371SOL    HW225902   0.849   2.812   1.382  0.9845  1.1985 -1.3976
 7372SOL     OW25903   4.995   1.805   5.520  0.2878 -0.1335 -0.0760
 7372SOL    HW125904   4.917   1.815   5.574  0.7003 -1.9218  0.9045
 7372SOL    HW225905   5.046   1.885   5.537 -0.4543  0.1868  0.7169
 7373SOL     OW25906   7.057   0.865   1.536 -0.5570  0.2537  0.3563
 7373SOL    HW125907   7.066   0.799   1.467 -0.0928  1.7112 -1.0453
 7373SOL    HW225908   7.107   0.830   1.609 -1.2762 -1.4665  0.0742
 7374SOL     OW25909   1.220   1.754   2.436  0.1068 -0.3907  0.2728
 7374SOL    HW125910   1.295   1.795   2.392  1.7988  0.0134  3.2637
 7374SOL    HW225911   1.257   1.677   2.478 -1.3730 -0.6909  1.0718
 7375SOL     OW25912   0.853   2.769   7.166 -0.0167 -0.1204  0.2023
 7375SOL    HW125913   0.857   2.824   7.244 -0.7279  2.3370 -1.3701
 7375SOL    HW225914   0.797   2.817   7.106  1.2856 -1.4088 -2.1926
 7376SOL     OW25915   1.226   5.518   5.595  0.3504 -0.7196 -0.1444
 7376SOL    HW125916   1.268   5.600   5.569 -1.0618  0.1261  0.1320
 7376SOL    HW225917   1.292   5.473   5.647  0.5554  1.1302  1.3181
 7377SOL     OW25918   1.118   1.630   1.733  0.2143 -0.5969 -0.2633
 7377SOL    HW125919   1.055   1.557   1.735  1.3490 -1.6398 -0.8985
 7377SOL    HW225920   1.145   1.634   1.641  0.2448  0.5860 -0.2137
 7378SOL     OW25921   0.466   1.038   8.681  0.2306  0.1965 -0.3733
 7378SOL    HW125922   0.550   1.012   8.718  0.3558  0.2442 -0.6165
 7378SOL    HW225923   0.402   0.976   8.718  0.8787 -2.2213 -2.9344
 7379SOL     OW25924   2.916   4.622   5.413  0.4924  0.4324 -0.0834
 7379SOL    HW125925   3.005   4.649   5.436  1.1661 -1.4582 -0.2973
 7379SOL    HW225926   2.868   4.622   5.496  0.7794  1.0930  0.0895
 7380SOL     OW25927   7.175   0.176   0.981  0.2695 -0.0396 -0.3260
 7380SOL    HW125928   7.098   0.121   0.966 -0.3688  1.3036 -2.4470
 7380SOL    HW225929   7.149   0.263   0.950  1.5809  1.2800  1.9458
 7381SOL     OW25930   4.444   2.823   1.477  0.3570  0.2498 -0.0644
 7381SOL    HW125931   4.468   2.869   1.558 -3.0484  0.7547  0.8061
 7381SOL    HW225932   4.464   2.886   1.407  0.7299  0.9067  0.6184
 7382SOL     OW25933   3.149   8.598   8.530 -0.3699 -0.2683  0.0089
 7382SOL    HW125934   3.175   8.526   8.586 -0.9276 -0.0568  0.5435
 7382SOL    HW225935   3.210   8.669   8.551  0.0509 -0.5043 -0.3750
 7383SOL     OW25936   6.798   4.070   8.620  0.0217 -0.7345  0.4882
 7383SOL    HW125937   6.886   4.076   8.583 -0.3345 -0.5097 -0.3462
 7383SOL    HW225938   6.740   4.062   8.544 -0.5654 -2.5096  1.0528
 7384SOL     OW25939   2.707   8.267   0.052  0.4550  0.1939 -0.1747
 7384SOL    HW125940   2.743   8.221  -0.024 -1.1187 -0.0831 -0.7871
 7384SOL    HW225941   2.618   8.232   0.062 -0.4254  2.3008  0.0150
 7385SOL     OW25942   6.728   6.779   3.961 -0.4554  0.4136 -0.0264
 7385SOL    HW125943   6.650   6.735   3.995  1.2116 -1.5033  1.6147
 7385SOL    HW225944   6.801   6.739   4.009  1.7498  0.6316 -2.8838
 7386SOL     OW25945   8.134   2.087   0.447 -0.3632  0.1244 -0.1186
 7386SOL    HW125946   8.055   2.113   0.399  0.0004  1.8320  0.1387
 7386SOL    HW225947   8.119   1.996   0.470 -1.8780  0.1572 -0.8273
 7387SOL     OW25948   5.361   0.786   5.826 -0.2273 -0.0976 -0.0869
 7387SOL    HW125949   5.357   0.720   5.757  0.6162  0.3922 -0.6215
 7387SOL    HW225950   5.402   0.862   5.785 -0.2716  0.4178  0.7861
 7388SOL     OW25951   8.491   5.347   8.635 -0.2326 -0.6626  0.4372
 7388SOL    HW125952   8.432   5.410   8.594 -0.1577  0.3030  1.7509
 7388SOL    HW225953   8.493   5.273   8.574 -1.3482  0.0481 -0.5101
 7389SOL     OW25954   8.994   1.199   4.241  0.1930 -0.3461 -0.2364
 7389SOL    HW125955   8.903   1.229   4.231 -0.2537 -1.5066  0.1747
 7389SOL    HW225956   9.047   1.275   4.215 -0.8858  0.0155 -1.4887
 7390SOL     OW25957   5.575   4.849   6.365  0.5640  0.2913 -0.2493
 7390SOL    HW125958   5.645   4.905   6.398  0.0733  1.6494 -1.4454
 7390SOL    HW225959   5.603   4.760   6.390  2.8170  0.7574 -0.8731
 7391SOL     OW25960   3.908   5.235   1.175 -0.4356 -0.3968  0.4777
 7391SOL    HW125961   3.988   5.187   1.195  0.6239  0.9770 -0.2811
 7391SOL    HW225962   3.935   5.304   1.114 -1.9016  1.0677  1.3683
 7392SOL     OW25963   9.209   3.230   9.761 -0.3574  0.0665 -0.6805
 7392SOL    HW125964   9.169   3.210   9.846  1.8975 -1.4363  0.1084
 7392SOL    HW225965   9.302   3.213   9.773  0.6059  3.1805 -2.4797
 7393SOL     OW25966   5.507   8.708   8.978 -0.1298 -0.0024 -0.4374
 7393SOL    HW125967   5.468   8.787   9.014  0.2503  0.1374 -0.3215
 7393SOL    HW225968   5.483   8.638   9.039  1.5951  0.4422  0.8589
 7394SOL     OW25969   0.563   2.366   1.493 -0.5662 -0.5708 -0.2881
 7394SOL    HW125970   0.553   2.320   1.576 -0.4138 -0.9417 -0.4745
 7394SOL    HW225971   0.642   2.329   1.454  1.6587  2.2609  1.1227
 7395SOL     OW25972   3.577   0.432   3.977 -0.4236  0.2978 -0.2960
 7395SOL    HW125973   3.534   0.512   4.005 -1.0140  0.0030 -0.3511
 7395SOL    HW225974   3.644   0.462   3.916 -0.4128  0.7760 -0.0587
 7396SOL     OW25975   8.461   9.486   7.888  0.4936  1.0455  0.7843
 7396SOL    HW125976   8.526   9.548   7.853  3.0391 -1.8892 -0.1084
 7396SOL    HW225977   8.511   9.428   7.945 -1.2372 -1.5892 -0.1775
 7397SOL     OW25978   6.073   5.692   0.816  0.1365  0.2952 -0.4438
 7397SOL    HW125979   6.076   5.785   0.792 -0.9237  0.5632  0.3753
 7397SOL    HW225980   5.987   5.680   0.856  0.8051 -0.7137  0.7731
 7398SOL     OW25981   6.642   1.802   2.573 -0.6339  0.0920 -0.2467
 7398SOL    HW125982   6.728   1.766   2.550 -1.0140 -1.1278  0.1436
 7398SOL    HW225983   6.646   1.894   2.547  1.6913  0.7678  2.1253
 7399SOL     OW25984   2.074   1.624   3.828  0.2120 -0.1160 -0.3494
 7399SOL    HW125985   2.156   1.593   3.867 -0.4941 -0.6301  0.8069
 7399SOL    HW225986   2.046   1.553   3.770 -0.6413 -1.0699  1.1533
 7400SOL     OW25987   7.220   7.662   4.174  0.2657  0.3381  0.0621
 7400SOL    HW125988   7.206   7.567   4.177 -0.6021  0.4842  0.8763
 7400SOL    HW225989   7.250   7.685   4.262 -0.8242  0.9997  0.2804
 7401SOL     OW25990   1.630   9.662   6.819 -0.0491  0.1595  0.6136
 7401SOL    HW125991   1.600   9.579   6.857  1.0359 -1.1641 -1.2796
 7401SOL    HW225992   1.667   9.710   6.893  0.2950 -1.5213  1.5911
 7402SOL     OW25993  10.347   1.437   0.823 -1.1582  0.1319 -0.9164
 7402SOL    HW125994  10.269   1.401   0.864 -1.1791  1.3486  0.1710
 7402SOL    HW225995  10.405   1.460   0.896 -0.3141  0.4257 -1.6488
 7403SOL     OW25996   1.157   6.145   3.199  0.2176  0.3259  0.5249
 7403SOL    HW125997   1.093   6.088   3.242 -0.6557  1.5258  0.8422
 7403SOL    HW225998   1.129   6.148   3.108 -0.3421  1.0621  0.7174
 7404SOL     OW25999   6.885   2.771  10.261  0.8677  0.3333  0.4141
 7404SOL    HW126000   6.902   2.840  10.197  1.6983 -0.0865  0.1758
 7404SOL    HW226001   6.835   2.815  10.330  1.6787  1.2671  0.4271
 7405SOL     OW26002   2.260   4.072   0.283 -0.0029  0.1282 -0.6672
 7405SOL    HW126003   2.170   4.082   0.314  0.7440  1.0483  1.3919
 7405SOL    HW226004   2.251   4.051   0.190 -2.3950 -2.0205 -0.0755
 7406SOL     OW26005   0.650   4.226   3.868  0.3004  0.1446  0.4087
 7406SOL    HW126006   0.608   4.145   3.837  1.3167 -0.6305  0.9895
 7406SOL    HW226007   0.619   4.237   3.958  0.6164  0.0636  0.5314
 7407SOL     OW26008   0.033   3.216  10.362  0.1114  0.6647  0.3438
 7407SOL    HW126009  -0.013   3.288  10.318  0.1183  0.0982 -0.6192
 7407SOL    HW226010   0.122   3.219  10.325 -0.5287 -1.3038 -1.5329
 7408SOL     OW26011   0.937   7.179   8.704 -0.7531  0.1324  0.0712
 7408SOL    HW126012   1.017   7.230   8.714 -0.1972 -0.8965  1.1558
 7408SOL    HW226013   0.908   7.162   8.794 -0.9561 -1.3439 -0.2347
 7409SOL     OW26014   3.767   4.051   9.458  0.0570 -0.0102 -0.0096
 7409SOL    HW126015   3.711   4.122   9.426  0.9099  1.1930  1.0644
 7409SOL    HW226016   3.739   3.974   9.408 -1.3534  0.9241 -0.7281
 7410SOL     OW26017   2.619   5.263   5.142  0.3970 -0.5060 -0.1020
 7410SOL    HW126018   2.670   5.195   5.186 -0.3000 -0.0194  1.5241
 7410SOL    HW226019   2.536   5.265   5.189 -0.1226  0.5221 -1.0215
 7411SOL     OW26020   2.420   4.329   9.289  0.0773  0.8709 -0.1493
 7411SOL    HW126021   2.459   4.242   9.293  1.4090  1.4793  0.8163
 7411SOL    HW226022   2.473   4.376   9.225 -0.2376  1.1514 -0.2059
 7412SOL     OW26023  10.297   0.314   6.164 -0.4773 -0.1735 -0.1040
 7412SOL    HW126024  10.256   0.306   6.249 -0.3209  1.6296  0.1807
 7412SOL    HW226025  10.383   0.274   6.175  0.3388  1.7842  1.2184
 7413SOL     OW26026   0.979   5.723   3.640 -0.1956 -0.4535  0.0781
 7413SOL    HW126027   1.057   5.686   3.600  1.2339  0.5940  1.7968
 7413SOL    HW226028   0.937   5.771   3.568  0.0953 -1.9369 -1.1377
 7414SOL     OW26029   2.911   7.421   2.633  0.2190 -0.1363 -0.0889
 7414SOL    HW126030   2.957   7.345   2.595 -1.3188 -0.9308 -0.4490
 7414SOL    HW226031   2.822   7.390   2.645 -0.0480  1.1215  1.3274
 7415SOL     OW26032   6.986   9.046   0.441  0.1527 -0.1787  0.1724
 7415SOL    HW126033   6.950   8.957   0.435 -0.9809  0.0637  2.3488
 7415SOL    HW226034   6.936   9.097   0.378 -0.8311 -0.6236  0.5721
 7416SOL     OW26035   3.232   3.153   6.315 -0.2092  0.1216 -0.7235
 7416SOL    HW126036   3.184   3.083   6.360 -2.0710 -0.5312 -3.5035
 7416SOL    HW226037   3.174   3.229   6.322 -0.5501 -0.0054 -2.0022
 7417SOL     OW26038   1.300   4.995   3.727  1.0107  0.0261 -0.4732
 7417SOL    HW126039   1.230   4.989   3.662  1.6099  1.0318 -1.2269
 7417SOL    HW226040   1.258   5.036   3.803  0.0539 -2.0502  0.1973
 7418SOL     OW26041   4.580   6.041   8.663  0.0672 -0.1758 -0.6185
 7418SOL    HW126042   4.661   5.989   8.666 -0.0844 -0.3929  0.1321
 7418SOL    HW226043   4.608   6.128   8.638  0.7768  0.1523  1.1336
 7419SOL     OW26044   7.038   8.458   8.163  0.1629  0.5437 -0.4560
 7419SOL    HW126045   7.071   8.425   8.079  3.1636  0.0996  0.7706
 7419SOL    HW226046   7.039   8.382   8.221 -0.2034  1.1907  0.4196
 7420SOL     OW26047   1.823   3.091   3.426  0.0560 -0.0247 -0.0213
 7420SOL    HW126048   1.870   3.097   3.342  1.9947 -0.2777  0.9890
 7420SOL    HW226049   1.843   3.003   3.458 -3.3873 -1.2161 -0.7538
 7421SOL     OW26050   0.005   8.032   2.206 -0.3629 -0.2902 -0.0948
 7421SOL    HW126051   0.024   7.976   2.282  0.8914 -0.1164 -0.2636
 7421SOL    HW226052   0.086   8.081   2.191 -0.2860 -0.9395 -2.0826
 7422SOL     OW26053   7.975   9.304   4.283  0.1713  0.3537 -0.2621
 7422SOL    HW126054   8.070   9.313   4.294  0.2429 -0.0029 -0.5650
 7422SOL    HW226055   7.965   9.261   4.198 -0.1793 -1.5412  0.7022
 7423SOL     OW26056  10.105   2.870  10.147 -0.3446 -0.4487  0.2483
 7423SOL    HW126057  10.030   2.827  10.108 -0.9720  1.0759 -0.3161
 7423SOL    HW226058  10.069   2.947  10.191  0.7330 -0.4112  1.1255
 7424SOL     OW26059   2.102   4.935   0.581  0.2036  0.2332 -0.0202
 7424SOL    HW126060   2.032   4.977   0.631  3.0699  0.9974  3.8120
 7424SOL    HW226061   2.113   4.849   0.622  0.8807 -0.2740 -1.2093
 7425SOL     OW26062   4.636   5.752   5.880  0.0977  0.0972 -0.2175
 7425SOL    HW126063   4.625   5.727   5.789  0.2891 -1.4056  0.1352
 7425SOL    HW226064   4.714   5.808   5.881  0.8056 -0.8488 -0.8265
 7426SOL     OW26065  10.112   4.278   3.538 -0.5728 -0.3467  0.7207
 7426SOL    HW126066  10.054   4.212   3.501  0.4530 -0.3895 -0.8933
 7426SOL    HW226067  10.059   4.358   3.541 -1.2443 -0.7987  0.9311
 7427SOL     OW26068   1.594   5.695   6.255  0.0965 -0.3300  0.0496
 7427SOL    HW126069   1.667   5.693   6.316  0.0897 -1.0825  0.0434
 7427SOL    HW226070   1.607   5.618   6.199  0.8363  1.0500 -1.7593
 7428SOL     OW26071   4.931   5.443   8.999 -0.0241  0.6220  0.3648
 7428SOL    HW126072   4.985   5.479   8.929 -1.9258  1.7582 -0.6108
 7428SOL    HW226073   4.876   5.378   8.955  0.1141 -0.0769  1.2030
 7429SOL     OW26074   3.870   9.258   9.744  0.0669  0.2106 -0.3256
 7429SOL    HW126075   3.812   9.290   9.813  0.5801  0.5836 -0.0616
 7429SOL    HW226076   3.845   9.308   9.666  1.0726  1.5132  0.1567
 7430SOL     OW26077   5.355   3.901   1.409  0.2560 -0.0009 -0.1824
 7430SOL    HW126078   5.264   3.903   1.382  0.4850  2.3558 -0.9765
 7430SOL    HW226079   5.391   3.823   1.365 -1.2827 -0.8484 -0.0118
 7431SOL     OW26080   9.161   2.906   3.470 -0.2339  0.2697 -0.2614
 7431SOL    HW126081   9.185   2.921   3.378  2.2492  0.8723  0.4020
 7431SOL    HW226082   9.117   2.987   3.497  0.6370  0.8260 -0.4643
 7432SOL     OW26083   3.327   0.780   7.438 -0.2495 -0.0354 -0.2019
 7432SOL    HW126084   3.403   0.838   7.439 -0.7942  0.7117 -0.5039
 7432SOL    HW226085   3.259   0.831   7.394 -0.8163 -0.8266 -0.2724
 7433SOL     OW26086   9.057   1.843  10.067  0.2554 -0.2658  0.0080
 7433SOL    HW126087   9.139   1.812  10.105 -0.2082 -0.9107  0.5219
 7433SOL    HW226088   9.083   1.900   9.995  1.1887 -2.3908 -1.4423
 7434SOL     OW26089   8.928   1.749   8.201 -0.6328  0.3582  0.2268
 7434SOL    HW126090   8.927   1.690   8.276  1.2068  0.4023  0.3324
 7434SOL    HW226091   8.989   1.709   8.139 -1.6178  0.6603 -0.9839
 7435SOL     OW26092  10.004   5.569   0.341 -0.3007  0.4979 -0.2552
 7435SOL    HW126093  10.031   5.640   0.283  2.1231 -2.4944 -3.1648
 7435SOL    HW226094   9.945   5.515   0.288 -1.2129 -0.3121  1.4840
 7436SOL     OW26095   7.738   4.064   5.033 -0.3635 -0.0173  0.1729
 7436SOL    HW126096   7.643   4.079   5.028 -0.4058  0.2135  1.4401
 7436SOL    HW226097   7.776   4.150   5.015 -0.3620 -0.2178 -0.8598
 7437SOL     OW26098   2.434   4.174   4.288  0.1704  0.2260 -0.7344
 7437SOL    HW126099   2.469   4.158   4.376 -0.6917  0.5935 -0.3092
 7437SOL    HW226100   2.339   4.182   4.301  0.0344  0.3279 -1.6938
 7438SOL     OW26101   0.769   7.500   3.774 -0.4971 -0.5050  0.0527
 7438SOL    HW126102   0.795   7.591   3.782  2.8331 -1.4677  1.9292
 7438SOL    HW226103   0.703   7.488   3.843 -0.4111  0.2917  0.2778
 7439SOL     OW26104   6.908   6.124   5.358 -0.0449  0.1915  0.5352
 7439SOL    HW126105   6.937   6.064   5.427 -0.3261  0.0091  0.4951
 7439SOL    HW226106   6.988   6.145   5.310  0.3706  1.2362  1.6178
 7440SOL     OW26107   6.652  10.226   2.060 -0.6053  0.8298  0.0933
 7440SOL    HW126108   6.593  10.174   2.005  1.6422 -4.4155  1.9344
 7440SOL    HW226109   6.622  10.209   2.149  2.0826 -0.0758  0.9325
 7441SOL     OW26110   2.488   0.459   1.591 -0.1137  0.6254 -0.4204
 7441SOL    HW126111   2.535   0.522   1.646 -0.1354  1.3189 -1.1832
 7441SOL    HW226112   2.457   0.393   1.653  2.3146 -0.1779  0.0714
 7442SOL     OW26113   5.401   1.452   3.075  0.0999  0.1186  0.6441
 7442SOL    HW126114   5.389   1.474   3.167  1.9081  1.2559  0.6434
 7442SOL    HW226115   5.429   1.534   3.034  3.1935 -1.2073 -0.1395
 7443SOL     OW26116   9.903   6.814   5.479 -0.4654 -0.2072  0.1326
 7443SOL    HW126117   9.888   6.846   5.567 -0.8632  2.5522 -0.8491
 7443SOL    HW226118   9.948   6.886   5.434  0.0801 -1.6702 -1.8138
 7444SOL     OW26119   8.673   4.436   4.307  0.0808 -0.0086  0.3221
 7444SOL    HW126120   8.708   4.517   4.268  1.9423 -0.1761  1.4897
 7444SOL    HW226121   8.669   4.374   4.234 -1.5428  1.1543 -0.6299
 7445SOL     OW26122   4.649   8.320   4.191 -0.4752  0.3349  0.1277
 7445SOL    HW126123   4.725   8.369   4.157 -0.1201  0.1575  0.6493
 7445SOL    HW226124   4.654   8.332   4.286 -1.5179  0.9164  0.1167
 7446SOL     OW26125   5.117   5.078   2.800 -0.3323 -0.1369  0.1576
 7446SOL    HW126126   5.161   5.147   2.849 -0.8997  0.7398 -0.5294
 7446SOL    HW226127   5.161   4.997   2.827  0.1300  0.4509  1.2148
 7447SOL     OW26128   9.375   4.160   1.572 -0.0030  0.1596 -0.0513
 7447SOL    HW126129   9.447   4.223   1.568 -0.4196  0.7180  0.8649
 7447SOL    HW226130   9.296   4.214   1.567 -0.3717 -0.4482 -1.0686
 7448SOL     OW26131   6.283   2.723   6.293  0.2547  0.3920 -1.3135
 7448SOL    HW126132   6.338   2.645   6.284 -0.0931 -0.1387  0.7252
 7448SOL    HW226133   6.193   2.690   6.293  0.1257  0.6532  0.3564
 7449SOL     OW26134   3.088   5.819   9.763  0.0393  0.2579  0.3950
 7449SOL    HW126135   3.125   5.834   9.849 -1.1392 -1.3003  1.2189
 7449SOL    HW226136   3.029   5.744   9.774  0.5183 -0.5600 -1.9443
 7450SOL     OW26137   6.138   2.004   7.568  0.4895 -0.7796 -0.0073
 7450SOL    HW126138   6.214   1.996   7.626 -1.0420  0.7039  2.3931
 7450SOL    HW226139   6.064   2.019   7.627 -1.5372 -1.1394 -2.2867
 7451SOL     OW26140   4.170   2.219   5.373  0.2558  0.6896  0.2692
 7451SOL    HW126141   4.189   2.131   5.403  1.6632  0.1765 -1.9139
 7451SOL    HW226142   4.122   2.259   5.445  2.1430 -0.8728  2.5348
 7452SOL     OW26143   2.647   1.855   8.180 -0.3896  0.0832 -0.2952
 7452SOL    HW126144   2.614   1.835   8.092 -0.3863  1.2949 -0.5886
 7452SOL    HW226145   2.652   1.770   8.224 -0.0874 -0.5746 -1.5661
 7453SOL     OW26146   1.876   2.826   2.230  0.2889  0.3681  0.4016
 7453SOL    HW126147   1.874   2.736   2.198  0.7074 -0.4731  2.5737
 7453SOL    HW226148   1.858   2.819   2.323  4.0676  2.0763  1.4644
 7454SOL     OW26149   4.237   9.068   1.267  0.1038 -0.1788  0.3634
 7454SOL    HW126150   4.233   9.161   1.244  0.5345 -0.6938 -2.0986
 7454SOL    HW226151   4.147   9.038   1.260 -0.3567  0.3416  2.9305
 7455SOL     OW26152   4.489   5.796   7.716 -0.1479 -0.0982 -0.8192
 7455SOL    HW126153   4.528   5.709   7.703  1.0009 -0.0473  1.7290
 7455SOL    HW226154   4.544   5.854   7.663  1.4629 -0.4579  0.3701
 7456SOL     OW26155   1.062   6.889   1.099 -0.0468 -0.2505  0.2227
 7456SOL    HW126156   1.063   6.974   1.055  0.4579  1.0373  2.5602
 7456SOL    HW226157   0.989   6.895   1.160  0.7424 -1.0180  1.2618
 7457SOL     OW26158   2.073   7.888  10.279 -0.0718  0.2950  0.4854
 7457SOL    HW126159   1.999   7.909  10.222 -0.8322  1.5651  1.8547
 7457SOL    HW226160   2.040   7.821  10.338 -0.2645  1.0656  1.2825
 7458SOL     OW26161   7.376   1.451   4.033  0.0733  0.5876 -0.0135
 7458SOL    HW126162   7.369   1.546   4.043 -1.7319  0.3821  1.0967
 7458SOL    HW226163   7.325   1.432   3.954 -0.5882  0.4407  0.4398
 7459SOL     OW26164   6.445   3.420   7.582 -0.4760  0.4906  0.1295
 7459SOL    HW126165   6.464   3.435   7.674 -0.9977  1.9843  0.0237
 7459SOL    HW226166   6.350   3.409   7.579 -0.1484 -4.2867  0.3234
 7460SOL     OW26167   4.870   9.323  10.172 -0.4973  0.2385  0.2442
 7460SOL    HW126168   4.821   9.298  10.093  1.6125  0.2295 -1.1462
 7460SOL    HW226169   4.863   9.247  10.229 -0.5994 -0.4707 -0.6855
 7461SOL     OW26170   4.304   8.391   9.643 -0.1847 -0.6357 -0.0365
 7461SOL    HW126171   4.350   8.323   9.594 -0.9011 -0.3064 -1.2110
 7461SOL    HW226172   4.273   8.452   9.577 -0.8278  0.0598  0.8729
 7462SOL     OW26173   3.879   3.861   9.866  0.6458  0.2906 -0.0819
 7462SOL    HW126174   3.858   3.856   9.960  0.2451  0.3366 -0.1669
 7462SOL    HW226175   3.918   3.776   9.846 -0.5748 -0.2640 -0.1808
 7463SOL     OW26176   5.413   1.356   4.712  0.3020  0.9424 -0.4164
 7463SOL    HW126177   5.451   1.286   4.659  4.0194  2.7540 -0.4820
 7463SOL    HW226178   5.451   1.436   4.677  0.7135  2.4939  3.1238
 7464SOL     OW26179   5.479   1.767   1.087  0.6658  0.5441  0.1067
 7464SOL    HW126180   5.505   1.752   0.996  0.6163  1.0492  0.0084
 7464SOL    HW226181   5.395   1.722   1.095  0.3308  1.0832 -0.2966
 7465SOL     OW26182   9.882   1.703   3.574  0.0638  0.2477 -0.0539
 7465SOL    HW126183   9.868   1.754   3.494  1.1389  0.0155 -0.3968
 7465SOL    HW226184   9.851   1.615   3.553  1.9026 -0.2630 -0.8103
 7466SOL     OW26185   4.937   1.395   3.180  0.2870 -0.4579 -0.3935
 7466SOL    HW126186   4.997   1.424   3.112  0.7461  0.4350  0.3816
 7466SOL    HW226187   4.987   1.331   3.230 -0.2233 -1.5133 -1.1778
 7467SOL     OW26188   4.637   1.622   3.036  0.2768  0.1791  0.1686
 7467SOL    HW126189   4.664   1.534   3.010  1.5683  0.8818 -0.9505
 7467SOL    HW226190   4.561   1.642   2.981  0.7050  0.2023 -0.4250
 7468SOL     OW26191   4.536   4.876   1.957  0.3159 -0.2302 -0.5436
 7468SOL    HW126192   4.539   4.935   1.882 -1.3733 -0.2021 -0.6330
 7468SOL    HW226193   4.534   4.788   1.919 -0.1924 -0.2282 -0.5291
 7469SOL     OW26194   7.749   9.145   7.885  0.4073 -0.5585  0.1362
 7469SOL    HW126195   7.741   9.231   7.926 -1.0994  0.5085 -2.1701
 7469SOL    HW226196   7.838   9.117   7.904  0.7901  1.3141  1.3330
 7470SOL     OW26197   5.669   6.700   9.443 -0.0463 -0.5370  0.5156
 7470SOL    HW126198   5.609   6.725   9.373 -0.2163  0.2734  0.9382
 7470SOL    HW226199   5.756   6.713   9.405 -0.1360  0.0743  0.5148
 7471SOL     OW26200   5.249   6.827   7.904 -0.5520  0.7271  0.3096
 7471SOL    HW126201   5.319   6.781   7.950 -0.2028  0.6050 -0.3295
 7471SOL    HW226202   5.274   6.823   7.812 -0.2089  2.7412  0.2764
 7472SOL     OW26203   1.290   9.981   0.864  0.2161 -1.3510  0.0726
 7472SOL    HW126204   1.304   9.916   0.795  0.4070 -0.2038 -0.9819
 7472SOL    HW226205   1.324  10.063   0.828 -1.4621 -0.3048  0.7596
 7473SOL     OW26206   5.364   3.029   7.975 -0.1217 -0.1021  0.3035
 7473SOL    HW126207   5.320   3.069   7.900 -0.2656  1.8565  1.3747
 7473SOL    HW226208   5.293   2.987   8.025 -0.0218 -1.4335 -0.6169
 7474SOL     OW26209   0.073  10.277   9.860  0.1099  0.1704  0.1675
 7474SOL    HW126210   0.041  10.253   9.773 -1.1228  0.7196  0.4528
 7474SOL    HW226211   0.100  10.194   9.899 -0.8456 -0.2991 -0.1447
 7475SOL     OW26212   4.941   1.891   0.675  0.1853  0.7452  0.5232
 7475SOL    HW126213   4.898   1.822   0.626 -2.3192  2.8932 -0.5319
 7475SOL    HW226214   5.018   1.849   0.714 -1.4089 -2.6793  0.3097
 7476SOL     OW26215   3.682   1.509   8.177  0.1243 -0.0477 -0.0573
 7476SOL    HW126216   3.775   1.524   8.163  0.3008  0.7263  1.6475
 7476SOL    HW226217   3.642   1.596   8.168 -0.5329 -0.4426 -1.2437
 7477SOL     OW26218   7.369   4.691   4.719 -0.0253  0.3394 -0.2766
 7477SOL    HW126219   7.353   4.771   4.769  0.1283 -0.5651  1.2816
 7477SOL    HW226220   7.464   4.683   4.718 -0.0307  0.3086 -0.6671
 7478SOL     OW26221   6.185   6.288   3.932 -0.3809  0.3169  0.4216
 7478SOL    HW126222   6.189   6.343   3.853  1.1356  0.0481  0.2663
 7478SOL    HW226223   6.258   6.320   3.986  0.6820 -1.6435  0.2212
 7479SOL     OW26224   0.399   0.347   8.109 -0.1467 -0.2797 -0.1832
 7479SOL    HW126225   0.464   0.277   8.116 -1.2356 -1.3387 -0.4005
 7479SOL    HW226226   0.451   0.427   8.098  1.3078 -0.4303  3.9153
 7480SOL     OW26227   0.118   2.995   9.389 -0.2173  0.0626  0.1855
 7480SOL    HW126228   0.167   2.959   9.463  0.0591 -0.7998 -0.3940
 7480SOL    HW226229   0.048   2.931   9.374  0.7607 -0.7045 -1.3742
 7481SOL     OW26230   7.510   6.469   3.233  0.6110  0.2682  0.8417
 7481SOL    HW126231   7.449   6.402   3.266  0.8665 -0.6184 -0.4283
 7481SOL    HW226232   7.588   6.420   3.208  0.9297  1.0838  0.1929
 7482SOL     OW26233   1.130   7.194   5.844  0.0526  0.2025 -0.2746
 7482SOL    HW126234   1.149   7.191   5.937  1.4201  0.8411 -0.5067
 7482SOL    HW226235   1.215   7.207   5.802 -0.8670  4.4456 -1.3280
 7483SOL     OW26236   9.596   4.872   5.476  0.1614 -0.2404  0.7852
 7483SOL    HW126237   9.590   4.918   5.560  0.0705  0.2341  0.5241
 7483SOL    HW226238   9.650   4.929   5.422  0.8045 -0.8807  0.7376
 7484SOL     OW26239   2.089   2.150   0.578  0.3691 -0.2393  0.0554
 7484SOL    HW126240   2.111   2.224   0.521  0.3716 -0.7195 -0.5814
 7484SOL    HW226241   2.113   2.179   0.666  2.0023 -0.1314 -0.4036
 7485SOL     OW26242   8.800   9.491   4.775  0.5177  0.1502 -0.0868
 7485SOL    HW126243   8.732   9.485   4.709 -0.0549  0.1416  0.4949
 7485SOL    HW226244   8.860   9.418   4.755 -0.0834 -0.3431 -0.1102
 7486SOL     OW26245   7.073  10.353   3.097  0.2222  0.1297  0.3354
 7486SOL    HW126246   7.036  10.266   3.109 -1.5421  0.6074 -1.0707
 7486SOL    HW226247   7.007  10.412   3.133  1.9284  0.9004  2.3994
 7487SOL     OW26248   3.808   9.779   7.491 -0.4594 -0.4746 -0.3792
 7487SOL    HW126249   3.872   9.849   7.476 -2.0717  0.8613 -1.4011
 7487SOL    HW226250   3.810   9.728   7.410  0.0297 -1.0731 -0.0014
 7488SOL     OW26251   7.562   6.572   2.462  0.2340  0.2514  0.2832
 7488SOL    HW126252   7.586   6.656   2.422  1.8314 -0.3254 -0.0219
 7488SOL    HW226253   7.514   6.597   2.541  1.4760  1.4787  0.6907
 7489SOL     OW26254   5.327   2.735   5.019 -0.0673 -0.0566 -0.0485
 7489SOL    HW126255   5.286   2.670   5.075 -2.3961  0.5163 -0.9473
 7489SOL    HW226256   5.294   2.819   5.051 -0.0442  0.3988 -1.1627
 7490SOL     OW26257   8.406   2.593   2.610  0.0976  0.0916 -0.1210
 7490SOL    HW126258   8.365   2.515   2.646 -2.0248  1.1136 -0.1949
 7490SOL    HW226259   8.483   2.560   2.562 -1.0447 -1.9906 -0.6178
 7491SOL     OW26260   8.897   9.925   3.620 -0.1065  0.5617 -0.1170
 7491SOL    HW126261   8.825   9.976   3.659  0.7006  1.3145  0.4252
 7491SOL    HW226262   8.933   9.875   3.693 -1.7518 -1.9387 -0.8808
 7492SOL     OW26263   8.229   3.364   2.589 -0.4563  0.3829  0.4394
 7492SOL    HW126264   8.245   3.360   2.494  0.3556 -1.4198  0.6006
 7492SOL    HW226265   8.232   3.457   2.610 -0.3231  0.8022 -1.2571
 7493SOL     OW26266   3.430   6.979   3.660 -0.2779  0.0158  0.2439
 7493SOL    HW126267   3.506   7.037   3.652  1.1208 -1.4129  2.2023
 7493SOL    HW226268   3.412   6.950   3.571  2.6471 -0.9876 -0.1333
 7494SOL     OW26269   0.310   7.500   5.911 -0.1909 -0.1044 -0.0006
 7494SOL    HW126270   0.289   7.533   5.998 -2.1799  0.3918 -0.6156
 7494SOL    HW226271   0.268   7.561   5.851  2.1017  0.2197 -1.3914
 7495SOL     OW26272   8.690   4.044   9.225  0.0335 -0.0557  0.3575
 7495SOL    HW126273   8.745   4.103   9.173 -0.0414 -0.0425  0.2938
 7495SOL    HW226274   8.728   3.958   9.211 -0.2582 -0.1131 -0.0712
 7496SOL     OW26275   2.745   2.325   5.273 -0.2854 -0.2253 -1.1248
 7496SOL    HW126276   2.818   2.358   5.325 -0.9154  1.7282 -1.3679
 7496SOL    HW226277   2.774   2.335   5.182 -1.0032  1.1067 -1.2430
 7497SOL     OW26278   0.452   0.662   3.822  0.6009  0.4273  0.0088
 7497SOL    HW126279   0.542   0.692   3.828  0.8564  0.0236 -1.4560
 7497SOL    HW226280   0.437   0.615   3.904  2.0226 -0.2403 -0.0798
 7498SOL     OW26281   1.206   3.226   3.649 -1.0373  0.3280  0.2317
 7498SOL    HW126282   1.300   3.218   3.663 -0.4355  3.7041 -0.8725
 7498SOL    HW226283   1.167   3.208   3.734  0.4507 -2.1455  0.4690
 7499SOL     OW26284   7.553   4.004   2.618  0.7251 -0.0247 -0.2291
 7499SOL    HW126285   7.560   4.089   2.575  1.3549 -0.2041 -0.4984
 7499SOL    HW226286   7.628   4.002   2.678 -0.1438  0.2268  0.8905
 7500SOL     OW26287   7.208   9.894   5.483  0.1343  0.1214 -0.0604
 7500SOL    HW126288   7.197   9.815   5.537  1.6731 -1.2008 -1.5686
 7500SOL    HW226289   7.142   9.885   5.414 -1.8248  1.8048  1.4641
 7501SOL     OW26290   2.649   6.488   6.723 -0.2221 -0.8640  0.0460
 7501SOL    HW126291   2.702   6.566   6.741 -1.6657  0.1221  0.1757
 7501SOL    HW226292   2.709   6.415   6.738  0.5776  0.1270  2.0597
 7502SOL     OW26293   8.299   5.544   2.866  0.4494  0.2868  0.0296
 7502SOL    HW126294   8.268   5.460   2.832  1.2398 -0.2330  0.5631
 7502SOL    HW226295   8.380   5.523   2.912  0.3591  1.2590  0.6607
 7503SOL     OW26296   0.697   4.397   7.365  0.4278  0.0480 -0.1542
 7503SOL    HW126297   0.765   4.374   7.303 -0.4550 -3.2892 -0.0761
 7503SOL    HW226298   0.615   4.390   7.315 -0.0256  2.1658  0.2075
 7504SOL     OW26299   3.575   3.930   2.573  0.8503 -0.5940  0.1417
 7504SOL    HW126300   3.655   3.892   2.535  1.9129  1.8712 -0.2490
 7504SOL    HW226301   3.525   3.961   2.497  0.5146 -0.2509  0.5014
 7505SOL     OW26302   2.726   1.063   8.168 -0.1337 -0.0105 -0.1611
 7505SOL    HW126303   2.648   1.012   8.188  1.2109 -1.7804  0.9056
 7505SOL    HW226304   2.775   1.007   8.107  0.8887  0.4575  0.2127
 7506SOL     OW26305   4.445   3.049   9.320 -0.2753 -0.0069 -0.2095
 7506SOL    HW126306   4.522   2.995   9.336 -0.9355 -1.1572 -0.7495
 7506SOL    HW226307   4.381   3.019   9.384 -0.5162  0.4177 -0.2492
 7507SOL     OW26308   6.284   0.081   6.010  0.0362  0.5031 -0.0031
 7507SOL    HW126309   6.370   0.115   6.036  0.2038  0.5240 -0.5867
 7507SOL    HW226310   6.259   0.134   5.934  0.5913 -1.0795 -1.3472
 7508SOL     OW26311   1.914  10.193   9.103 -0.1075  0.0967  0.3709
 7508SOL    HW126312   1.866  10.261   9.057  0.6012  1.1729  1.1573
 7508SOL    HW226313   1.871  10.186   9.188 -1.6807 -2.1805 -0.5261
 7509SOL     OW26314   2.854   7.334  10.277  0.7808  0.6583  0.1507
 7509SOL    HW126315   2.915   7.322  10.204 -1.6025  3.3904 -2.6059
 7509SOL    HW226316   2.882   7.416  10.318  0.6694  0.3708  0.8192
 7510SOL     OW26317   6.513   0.343   5.487  0.5554  0.4013  0.5099
 7510SOL    HW126318   6.546   0.269   5.538  2.3090 -0.0897 -1.2389
 7510SOL    HW226319   6.573   0.351   5.413 -2.8795 -0.1993 -2.6496
 7511SOL     OW26320   0.995   6.618   7.619  0.0764 -0.6754 -0.7284
 7511SOL    HW126321   1.063   6.682   7.599  0.1286 -0.7461 -0.7793
 7511SOL    HW226322   1.010   6.594   7.710 -0.9429  0.5899 -0.2000
 7512SOL     OW26323   3.164   6.298   3.208 -0.4803 -0.0301 -0.1375
 7512SOL    HW126324   3.082   6.249   3.206  0.4452 -1.7007  0.6659
 7512SOL    HW226325   3.171   6.330   3.298  0.7005 -1.6644  0.3892
 7513SOL     OW26326   6.684   4.445   3.740 -0.4069  0.5110  0.2815
 7513SOL    HW126327   6.621   4.505   3.702  0.7804  0.5660 -1.7526
 7513SOL    HW226328   6.727   4.495   3.809 -0.4470  1.5107 -0.4069
 7514SOL     OW26329  10.056   5.161   0.773  0.4543 -0.1839  0.2720
 7514SOL    HW126330  10.110   5.199   0.704 -0.3801 -1.4716 -1.1324
 7514SOL    HW226331   9.980   5.220   0.779  0.0374 -0.6099 -0.6409
 7515SOL     OW26332   7.576   0.866  10.265  0.0462  0.4431 -0.0789
 7515SOL    HW126333   7.658   0.831  10.229  0.6413  0.7344  0.9493
 7515SOL    HW226334   7.527   0.896  10.188  0.4730 -0.6212 -0.7886
 7516SOL     OW26335   0.081   6.839   8.814  0.2104 -0.3192 -0.4719
 7516SOL    HW126336   0.126   6.823   8.731  0.8542 -1.6423  0.0946
 7516SOL    HW226337  -0.010   6.815   8.798  0.3223 -0.5200 -0.8135
 7517SOL     OW26338   7.102   0.369   7.002  0.0369 -0.1518  0.7280
 7517SOL    HW126339   7.047   0.299   7.037 -0.5872 -1.3326 -2.2968
 7517SOL    HW226340   7.165   0.324   6.946  2.2114  1.4492  1.7531
 7518SOL     OW26341   6.180   4.539   8.830 -0.4749  0.2167  0.5502
 7518SOL    HW126342   6.203   4.464   8.775 -0.8940  1.2996 -1.1474
 7518SOL    HW226343   6.258   4.553   8.884 -0.7120 -1.9708  1.5930
 7519SOL     OW26344   1.850   4.388   6.845 -0.2236  0.3980  0.1376
 7519SOL    HW126345   1.837   4.415   6.754 -0.7848 -0.4494 -0.0566
 7519SOL    HW226346   1.761   4.375   6.878 -0.0060  0.1924  0.6435
 7520SOL     OW26347   8.432   4.628   5.524 -0.3500  0.1890 -0.2608
 7520SOL    HW126348   8.450   4.560   5.459  0.7034 -0.8739  1.0794
 7520SOL    HW226349   8.519   4.651   5.558 -0.8981  0.5815  0.9039
 7521SOL     OW26350   1.879   6.820   4.146  0.6134 -0.0967  0.2740
 7521SOL    HW126351   1.961   6.775   4.167  0.5667 -0.3607 -0.1026
 7521SOL    HW226352   1.837   6.763   4.082  0.0341 -0.0704  0.6296
 7522SOL     OW26353   1.058   6.623   0.323  0.2547  0.2125 -0.1275
 7522SOL    HW126354   1.002   6.588   0.254 -0.8407  0.9511  0.3687
 7522SOL    HW226355   1.087   6.708   0.289 -1.7780  1.4337  1.0344
 7523SOL     OW26356   8.690   5.363   3.932  0.0744 -0.6709  0.0179
 7523SOL    HW126357   8.721   5.273   3.928  1.6780 -0.1952  1.0050
 7523SOL    HW226358   8.629   5.364   4.007  0.3711 -0.8469  0.2619
 7524SOL     OW26359   8.238   0.866   8.086  0.2683 -0.6625  0.2003
 7524SOL    HW126360   8.295   0.926   8.134 -0.5330  0.0738  0.2474
 7524SOL    HW226361   8.261   0.880   7.994 -0.4325  0.2954  0.1487
 7525SOL     OW26362   8.674   1.319   1.110 -0.5354  0.2656 -0.2834
 7525SOL    HW126363   8.579   1.329   1.101 -0.4670  0.3791 -0.8841
 7525SOL    HW226364   8.710   1.393   1.062 -0.1249 -0.2297 -0.7462
 7526SOL     OW26365   0.386   1.085   9.507 -0.2018  0.0422  0.1333
 7526SOL    HW126366   0.441   1.011   9.478  1.4684  0.5429  1.8397
 7526SOL    HW226367   0.297   1.049   9.508  0.3594 -1.4839 -0.5518
 7527SOL     OW26368   8.890   9.412   7.480 -0.3120 -0.6288 -0.4043
 7527SOL    HW126369   8.850   9.334   7.520  1.0854 -0.5369  1.2932
 7527SOL    HW226370   8.851   9.417   7.393  0.7098 -4.1933 -1.2259
 7528SOL     OW26371   0.875   8.323   2.778  0.5469  0.3321  0.0736
 7528SOL    HW126372   0.858   8.347   2.687 -0.4990  0.5299  0.3048
 7528SOL    HW226373   0.790   8.332   2.821  0.6828 -1.2911  0.7404
 7529SOL     OW26374   0.769   1.332   2.676 -0.3823  0.3884  0.0353
 7529SOL    HW126375   0.787   1.279   2.753  0.4696  1.7783  0.8491
 7529SOL    HW226376   0.831   1.405   2.683 -0.3279  0.5770 -1.9446
 7530SOL     OW26377  10.105   5.213   9.951 -0.3671 -0.4331 -0.1416
 7530SOL    HW126378  10.175   5.268   9.985 -1.6807  0.9726  0.4153
 7530SOL    HW226379  10.095   5.240   9.860 -0.4539 -0.3591 -0.1093
 7531SOL     OW26380   2.767   9.202   5.628  0.3731  0.0762 -0.5367
 7531SOL    HW126381   2.779   9.165   5.715 -0.4726 -1.0046 -0.8517
 7531SOL    HW226382   2.679   9.240   5.630 -0.6806 -2.0824 -1.5787
 7532SOL     OW26383   5.521   5.113   1.643  0.1738 -0.4880  0.2097
 7532SOL    HW126384   5.588   5.145   1.703  0.1073 -1.6464  0.9201
 7532SOL    HW226385   5.442   5.105   1.696  0.5290 -3.1723  0.4390
 7533SOL     OW26386   1.498   8.000   6.864  0.6671  0.0243 -0.6990
 7533SOL    HW126387   1.529   8.080   6.907 -0.7720  0.3278 -0.1575
 7533SOL    HW226388   1.457   7.949   6.934 -2.8123  1.0557 -1.7583
 7534SOL     OW26389   5.177   6.583  10.014  0.5325  0.0083  0.7761
 7534SOL    HW126390   5.200   6.642  10.086  1.7755  1.8456 -1.0257
 7534SOL    HW226391   5.094   6.618   9.980  1.3876  0.9531 -0.4419
 7535SOL     OW26392   9.142   9.820   9.885 -0.7053 -0.3502 -0.1939
 7535SOL    HW126393   9.122   9.727   9.895  0.3249 -0.5898 -0.2140
 7535SOL    HW226394   9.103   9.845   9.802 -0.1376 -1.0264 -0.6739
 7536SOL     OW26395   4.389   2.808   2.269 -0.5232 -0.1626 -0.6837
 7536SOL    HW126396   4.313   2.803   2.212 -0.9151  1.7913 -0.4167
 7536SOL    HW226397   4.463   2.819   2.209 -0.5752 -0.9820 -0.9041
 7537SOL     OW26398   2.659   0.052   9.065 -0.3750  0.3474 -0.5913
 7537SOL    HW126399   2.577   0.004   9.068  0.2186 -0.6629  0.3559
 7537SOL    HW226400   2.723  -0.012   9.034  0.6398  0.1332  1.7369
 7538SOL     OW26401  10.304   3.072   3.274 -0.3271  0.0035  0.1249
 7538SOL    HW126402  10.277   3.044   3.187 -0.1557 -1.3761  0.4994
 7538SOL    HW226403  10.381   3.018   3.294  0.4738  1.2570  0.5864
 7539SOL     OW26404  10.200   8.678   0.510 -0.2994  0.3392  0.3617
 7539SOL    HW126405  10.199   8.630   0.427 -1.1910 -0.7525  0.9782
 7539SOL    HW226406  10.150   8.758   0.492 -1.3932 -0.3785  0.1132
 7540SOL     OW26407   8.181   9.163   4.517 -0.3187 -0.1512  0.8834
 7540SOL    HW126408   8.275   9.171   4.506 -0.5039 -0.4772 -1.4001
 7540SOL    HW226409   8.151   9.254   4.528  0.1757  0.0119  0.9254
 7541SOL     OW26410   8.215   1.884   4.640 -0.2089 -0.2529 -0.5752
 7541SOL    HW126411   8.224   1.943   4.714  0.3179 -0.8660 -0.1448
 7541SOL    HW226412   8.261   1.928   4.568  0.0118 -0.0559 -0.3126
 7542SOL     OW26413   3.881   3.831   7.499  0.0484 -0.3878 -0.5972
 7542SOL    HW126414   3.801   3.883   7.488 -1.0328 -1.9502 -0.3967
 7542SOL    HW226415   3.896   3.831   7.594  0.0880 -0.3986 -0.6034
 7543SOL     OW26416   7.305   8.695  10.017 -0.3490  0.7766 -0.2477
 7543SOL    HW126417   7.233   8.757  10.000  0.8356  1.9336 -1.2031
 7543SOL    HW226418   7.381   8.735   9.976  0.3697 -1.6068 -1.3889
 7544SOL     OW26419   9.900   2.636   4.384 -0.8031  0.2086 -0.0367
 7544SOL    HW126420   9.832   2.628   4.316 -0.5629 -0.1869 -0.2384
 7544SOL    HW226421   9.855   2.616   4.466 -0.9872  0.1984 -0.1403
 7545SOL     OW26422   4.985   6.975   5.865  0.0867 -0.1812 -0.0284
 7545SOL    HW126423   5.069   6.949   5.902  0.5640  0.7334 -0.4394
 7545SOL    HW226424   4.987   7.071   5.864 -0.4467 -0.1542 -1.1802
 7546SOL     OW26425   6.428  10.062  10.236 -0.1128  0.0150  0.1436
 7546SOL    HW126426   6.448  10.041  10.327 -0.6634 -1.2357 -0.0065
 7546SOL    HW226427   6.387   9.983  10.201 -1.4810  1.0350 -0.7097
 7547SOL     OW26428   1.733   8.724   3.825 -0.0706  0.2522 -0.1993
 7547SOL    HW126429   1.762   8.700   3.737  1.8333  2.2679 -0.2055
 7547SOL    HW226430   1.684   8.806   3.813 -0.4396  0.1542  0.5483
 7548SOL     OW26431   3.377   3.542   2.416 -0.3476  0.1891  0.4622
 7548SOL    HW126432   3.454   3.539   2.474 -0.5140 -0.0478  0.6779
 7548SOL    HW226433   3.390   3.468   2.356 -1.4982 -1.2830  1.9331
 7549SOL     OW26434   8.525   4.571   3.887 -0.0098  0.4624  0.1679
 7549SOL    HW126435   8.507   4.526   3.805 -1.5073  0.6751  0.3655
 7549SOL    HW226436   8.522   4.503   3.954 -3.1238  0.8698  0.5827
 7550SOL     OW26437   8.496   3.816   5.879 -0.0053  0.1334 -0.7498
 7550SOL    HW126438   8.586   3.822   5.912 -0.4837 -3.1151  1.6211
 7550SOL    HW226439   8.493   3.731   5.834 -2.1407 -0.4068  0.2932
 7551SOL     OW26440   2.928   2.795   7.315  0.1934  0.0800 -0.6405
 7551SOL    HW126441   2.984   2.754   7.250  0.6094 -0.5798  0.1214
 7551SOL    HW226442   2.872   2.724   7.347 -0.2248  0.4650 -0.4976
 7552SOL     OW26443   9.699   1.953   4.658 -0.2068 -0.2309  0.1964
 7552SOL    HW126444   9.779   1.922   4.617  0.1756 -0.1469  0.8634
 7552SOL    HW226445   9.645   1.875   4.667 -0.9989 -0.0025 -1.9500
 7553SOL     OW26446   0.076  10.215   1.542 -0.7175  0.3437 -0.2001
 7553SOL    HW126447  -0.010  10.231   1.581  0.7141  1.3501  2.7757
 7553SOL    HW226448   0.091  10.291   1.486 -0.9608  1.1357  0.7905
 7554SOL     OW26449   5.435   7.908   2.732  0.5908  0.1516  0.1149
 7554SOL    HW126450   5.376   7.839   2.703  1.1703 -0.9084  1.3568
 7554SOL    HW226451   5.410   7.923   2.824  0.5587  1.5162 -0.1047
 7555SOL     OW26452   5.406   2.096   5.271 -0.1419 -0.4677 -0.9296
 7555SOL    HW126453   5.492   2.118   5.236 -0.5691  0.3454 -1.5147
 7555SOL    HW226454   5.349   2.091   5.194 -0.6990 -0.5953 -0.5166
 7556SOL     OW26455   3.431   2.367   2.936 -0.2546 -0.0266  0.0062
 7556SOL    HW126456   3.373   2.372   3.012  1.3401  0.7906  1.2641
 7556SOL    HW226457   3.400   2.436   2.877 -1.4748 -0.6243 -0.0692
 7557SOL     OW26458   5.863   1.309  10.002  0.0418 -0.1932 -0.1825
 7557SOL    HW126459   5.870   1.351  10.088 -0.9491 -2.2682  0.9948
 7557SOL    HW226460   5.917   1.230  10.009 -0.1477 -0.4590 -1.4296
 7558SOL     OW26461   0.089   4.479  10.361  0.3270 -0.0201 -0.8411
 7558SOL    HW126462   0.050   4.457  10.275 -0.9237  1.2680 -0.6368
 7558SOL    HW226463   0.013   4.494  10.418  1.1383  0.9534  0.0123
 7559SOL     OW26464   7.010   3.263   3.231 -0.5182 -0.2384 -0.1802
 7559SOL    HW126465   7.004   3.310   3.314 -1.4990 -0.8533  0.1065
 7559SOL    HW226466   6.932   3.289   3.182 -1.0240 -1.4516 -0.0610
 7560SOL     OW26467   4.029  10.007   2.512  0.2005 -0.1314 -0.4627
 7560SOL    HW126468   3.964  10.021   2.443  0.3918 -2.1599 -1.1223
 7560SOL    HW226469   3.991   9.938   2.566  1.3932 -0.6920 -0.3155
 7561SOL     OW26470   5.567   5.541   9.282 -0.1467 -0.1054 -0.4060
 7561SOL    HW126471   5.567   5.586   9.367  1.7495  0.0144 -0.4061
 7561SOL    HW226472   5.487   5.571   9.239 -1.2107 -0.2583  1.3671
 7562SOL     OW26473   0.096   1.115   9.217  0.6380  0.0006 -0.5886
 7562SOL    HW126474   0.041   1.142   9.143 -0.6230 -0.3516  0.1849
 7562SOL    HW226475   0.166   1.180   9.220 -0.4866  1.2701 -0.7953
 7563SOL     OW26476   6.984   1.949   8.198  0.4258 -0.6592 -0.4356
 7563SOL    HW126477   6.904   2.000   8.184  0.6735  1.1953  3.5393
 7563SOL    HW226478   7.046   1.984   8.135 -0.3718  1.8790  0.0579
 7564SOL     OW26479   1.506   1.747   6.099 -0.1775 -0.0516  0.6978
 7564SOL    HW126480   1.500   1.837   6.129  0.4055 -0.2332  1.3687
 7564SOL    HW226481   1.564   1.751   6.023 -0.2118  0.1461  0.6819
 7565SOL     OW26482   6.208   0.633   9.977  1.2321  0.4077  0.2982
 7565SOL    HW126483   6.256   0.710  10.008  1.3523  0.2216  0.5726
 7565SOL    HW226484   6.179   0.589  10.057  0.1493  0.8062  0.1337
 7566SOL     OW26485   1.397   3.647   0.020 -0.3689 -0.4538 -0.1965
 7566SOL    HW126486   1.457   3.591   0.070  2.3608  1.9356 -0.5454
 7566SOL    HW226487   1.454   3.704  -0.031 -3.0136  1.0532 -1.6784
 7567SOL     OW26488   0.826   4.170   9.271 -0.4578  0.3462  0.8718
 7567SOL    HW126489   0.795   4.119   9.195  1.1929  0.8739 -0.2074
 7567SOL    HW226490   0.781   4.131   9.346 -0.0151 -2.0430 -0.0256
 7568SOL     OW26491   8.823  10.190   5.109 -0.1956 -0.0733 -0.1272
 7568SOL    HW126492   8.879  10.114   5.125  1.1089  0.9669  0.3973
 7568SOL    HW226493   8.827  10.241   5.190  0.1503  1.2967 -0.9736
 7569SOL     OW26494   3.981   8.160   7.866 -0.3149  0.4167  0.1872
 7569SOL    HW126495   4.051   8.138   7.805 -0.5357  1.9608 -0.6665
 7569SOL    HW226496   4.022   8.218   7.930 -0.8784  1.6316 -0.5306
 7570SOL     OW26497   4.878   1.049   3.671 -0.6508 -0.1919  0.3887
 7570SOL    HW126498   4.828   1.128   3.652 -1.2753 -0.1056  2.1785
 7570SOL    HW226499   4.811   0.983   3.691 -0.0944 -0.6877  0.6217
 7571SOL     OW26500   9.213   5.133   9.971 -0.3899 -0.2755  0.3807
 7571SOL    HW126501   9.166   5.066   9.921  0.4191 -0.3879 -0.2390
 7571SOL    HW226502   9.305   5.118   9.951 -0.1308  0.3824  1.0428
 7572SOL     OW26503   6.978   8.318   1.358 -0.9260 -0.6024 -0.0431
 7572SOL    HW126504   7.041   8.388   1.371 -1.8870  0.1866  0.5003
 7572SOL    HW226505   6.893   8.362   1.355 -1.3846 -1.5186 -1.8712
 7573SOL     OW26506   6.970   0.411  10.334 -0.4328 -0.2544 -0.2986
 7573SOL    HW126507   6.971   0.394  10.240 -2.9486 -0.9499 -0.2690
 7573SOL    HW226508   7.006   0.499  10.343  1.0203 -0.6578 -1.7575
 7574SOL     OW26509   2.452   2.188   9.244  0.3262  0.6497 -0.6396
 7574SOL    HW126510   2.501   2.169   9.164  2.3782 -0.3478  0.7518
 7574SOL    HW226511   2.421   2.102   9.274 -1.2886  1.1268 -0.8352
 7575SOL     OW26512   8.222  10.270   6.269 -0.0698  0.1432  0.3097
 7575SOL    HW126513   8.206  10.195   6.211  0.0017 -0.0155  0.4922
 7575SOL    HW226514   8.302  10.310   6.235  0.4354 -0.4390  0.7906
 7576SOL     OW26515   4.569   0.046   7.297  0.3090 -0.7325 -0.2475
 7576SOL    HW126516   4.541   0.059   7.388 -0.8806 -0.7064 -0.6027
 7576SOL    HW226517   4.649   0.098   7.289 -0.0803  0.0121  0.5341
 7577SOL     OW26518   5.623   2.112   5.539  0.2323 -0.1010 -0.3521
 7577SOL    HW126519   5.546   2.146   5.586  1.3258  0.4109  1.1744
 7577SOL    HW226520   5.614   2.147   5.450 -0.4760  1.3443  0.2420
 7578SOL     OW26521   9.156   5.649   6.375 -0.1935 -0.3636 -0.2807
 7578SOL    HW126522   9.123   5.651   6.285 -1.0959 -0.6573  0.0279
 7578SOL    HW226523   9.214   5.724   6.381 -0.5874  0.0046 -0.9430
 7579SOL     OW26524   5.381   3.437   4.353 -0.0046 -0.1999  0.3524
 7579SOL    HW126525   5.337   3.373   4.297  0.4558  0.1185 -0.3916
 7579SOL    HW226526   5.350   3.417   4.442 -0.5489 -0.8754  0.0193
 7580SOL     OW26527   9.454   5.341   4.328 -0.0673  0.3081  0.2140
 7580SOL    HW126528   9.451   5.372   4.237 -1.0078 -0.6795 -0.1099
 7580SOL    HW226529   9.387   5.393   4.373  0.3288  0.7266  0.3264
 7581SOL     OW26530   1.392   9.657   7.648  0.1123  0.2875  0.4582
 7581SOL    HW126531   1.469   9.646   7.704  0.5871 -1.6523 -0.4924
 7581SOL    HW226532   1.345   9.574   7.655 -0.1253  0.2055 -1.5497
 7582SOL     OW26533   4.249   0.443   4.163  0.1722 -0.5551 -0.8028
 7582SOL    HW126534   4.175   0.408   4.114  0.1158 -0.7421 -0.5854
 7582SOL    HW226535   4.263   0.530   4.127 -0.2541 -0.4583 -0.7364
 7583SOL     OW26536   5.471   0.025   6.108 -0.4723  0.4168  0.7184
 7583SOL    HW126537   5.392   0.056   6.062 -0.4425 -1.1339 -0.4283
 7583SOL    HW226538   5.514  -0.033   6.046  0.8964  0.1918  1.8334
 7584SOL     OW26539   9.371   8.263   2.790 -0.0788  0.5556  0.1943
 7584SOL    HW126540   9.465   8.247   2.790  0.2017  1.7153 -2.0481
 7584SOL    HW226541   9.335   8.201   2.854  1.7978 -2.6370 -1.5873
 7585SOL     OW26542   0.996   9.142   4.615 -0.4258  0.0737  0.4984
 7585SOL    HW126543   1.091   9.130   4.609 -0.3865  0.6608 -0.2760
 7585SOL    HW226544   0.959   9.058   4.587 -0.1353  0.1954 -0.2793
 7586SOL     OW26545   0.456   1.711   0.704 -0.0493  0.0601 -0.4172
 7586SOL    HW126546   0.524   1.740   0.763  0.3828 -0.8698 -0.4324
 7586SOL    HW226547   0.473   1.617   0.692 -0.0147  0.2591 -2.1500
 7587SOL     OW26548   1.404   9.385   8.695 -0.5764 -0.1486  0.4431
 7587SOL    HW126549   1.382   9.305   8.742 -1.5283  0.3280  0.8395
 7587SOL    HW226550   1.356   9.378   8.612 -0.8605  0.1083  0.5814
 7588SOL     OW26551   0.450   5.170   8.602  0.1747 -0.1020 -0.0165
 7588SOL    HW126552   0.407   5.244   8.559  0.2665  0.0184  0.0953
 7588SOL    HW226553   0.544   5.187   8.588  0.2036 -0.0678  0.2216
 7589SOL     OW26554   2.471   9.008   3.877  0.5887  0.0159 -0.5697
 7589SOL    HW126555   2.459   8.997   3.782  0.2103  0.3937 -0.5665
 7589SOL    HW226556   2.438   9.096   3.896  1.1048  0.1281 -0.1595
 7590SOL     OW26557   3.396   2.157   2.593 -0.5528 -0.4285  0.1966
 7590SOL    HW126558   3.467   2.125   2.648  0.0071 -0.9884 -0.8410
 7590SOL    HW226559   3.316   2.128   2.638 -0.0762 -2.2243 -0.0663
 7591SOL     OW26560   2.449   2.165   4.817  0.0459 -0.0561 -0.1523
 7591SOL    HW126561   2.454   2.255   4.783  0.9403 -0.1537 -0.2839
 7591SOL    HW226562   2.455   2.110   4.739 -3.5038 -0.2470 -0.4538
 7592SOL     OW26563   1.167   1.240   4.611  0.6229 -0.2818 -0.2458
 7592SOL    HW126564   1.200   1.245   4.701 -1.8070 -0.7138  0.7564
 7592SOL    HW226565   1.171   1.147   4.589 -1.7189 -0.6798  0.7035
 7593SOL     OW26566   9.449   5.422   0.680 -0.1242 -0.3627 -0.1550
 7593SOL    HW126567   9.355   5.434   0.666 -0.0711  0.4619  0.1728
 7593SOL    HW226568   9.456   5.335   0.719 -0.4716 -1.7877 -3.0175
 7594SOL     OW26569   4.607   7.904   1.315  0.1175 -0.0503 -0.3569
 7594SOL    HW126570   4.551   7.975   1.284  0.3026  0.3238  0.1556
 7594SOL    HW226571   4.696   7.935   1.298  0.2552  0.5099  1.2553
 7595SOL     OW26572   2.480   8.705   5.116 -0.1848  0.2191  0.6379
 7595SOL    HW126573   2.511   8.791   5.090 -1.0477  0.1863 -0.5844
 7595SOL    HW226574   2.516   8.645   5.051 -2.0905  0.0945 -0.4025
 7596SOL     OW26575   7.953   6.587   3.839 -0.1630  0.0276  0.3330
 7596SOL    HW126576   7.871   6.554   3.803 -0.0412 -2.0255  1.7614
 7596SOL    HW226577   7.927   6.641   3.914 -0.2884  2.0921 -1.1118
 7597SOL     OW26578   5.767   7.450  10.143 -0.1383  0.5918 -0.8434
 7597SOL    HW126579   5.819   7.385  10.096  0.2986  0.2051  0.1441
 7597SOL    HW226580   5.681   7.447  10.102 -0.6181 -1.7436  0.1881
 7598SOL     OW26581   2.851   0.684   4.076 -0.3075 -0.3452  0.9583
 7598SOL    HW126582   2.851   0.777   4.100 -0.4093 -0.1198  0.1054
 7598SOL    HW226583   2.836   0.639   4.159  1.9899  0.2657  1.7967
 7599SOL     OW26584   5.969   5.564   3.976 -0.7447 -0.3926  0.0102
 7599SOL    HW126585   5.985   5.487   4.029  0.6964 -0.1419 -0.0083
 7599SOL    HW226586   5.999   5.539   3.888  1.1181  0.6042  0.3067
 7600SOL     OW26587   6.374  10.263   4.276 -0.7130 -0.0581 -0.0923
 7600SOL    HW126588   6.441  10.241   4.212  0.3371  0.3601  0.8350
 7600SOL    HW226589   6.293  10.225   4.240  0.3014 -2.0713 -0.4099
 7601SOL     OW26590   0.551  10.015   1.472 -0.5840 -0.3742 -0.4875
 7601SOL    HW126591   0.626  10.069   1.445  0.6679 -0.3927  2.5364
 7601SOL    HW226592   0.486  10.078   1.503 -0.7724 -0.4589 -0.7071
 7602SOL     OW26593   8.467   4.624   2.019  0.1295 -0.0896 -0.1588
 7602SOL    HW126594   8.467   4.547   2.077 -1.4723  0.9890  1.3698
 7602SOL    HW226595   8.473   4.699   2.079 -1.3660  1.0719 -1.3898
 7603SOL     OW26596   0.269   2.269   5.887  0.6292 -0.2512 -0.7923
 7603SOL    HW126597   0.324   2.192   5.902  0.7517 -0.0693 -0.2938
 7603SOL    HW226598   0.286   2.326   5.962 -1.6198 -0.9767  0.3834
 7604SOL     OW26599   0.876   4.592   6.153 -0.1540  0.0340 -0.1469
 7604SOL    HW126600   0.870   4.674   6.201  2.7322  0.1953  0.1104
 7604SOL    HW226601   0.886   4.525   6.221  1.2779 -0.0353 -0.3837
 7605SOL     OW26602   9.756   9.263   4.105  0.2032 -0.3864 -0.0936
 7605SOL    HW126603   9.830   9.292   4.053 -1.0748 -0.3035 -1.9588
 7605SOL    HW226604   9.679   9.291   4.055 -1.1001 -0.6348  1.6701
 7606SOL     OW26605   5.470   7.251   4.130 -0.0212 -0.0349 -0.0093
 7606SOL    HW126606   5.379   7.238   4.155 -0.0726  0.1621 -0.0854
 7606SOL    HW226607   5.465   7.292   4.043  0.1593 -1.8790 -0.9443
 7607SOL     OW26608   2.800   7.171   2.305 -0.0387  0.3407 -0.1005
 7607SOL    HW126609   2.773   7.261   2.287  0.8806  0.7651  0.5893
 7607SOL    HW226610   2.860   7.149   2.234 -0.1901  0.3109 -0.2182
 7608SOL     OW26611   9.524   1.284   5.882  1.0992 -0.0120 -0.6820
 7608SOL    HW126612   9.542   1.234   5.962 -1.4703 -2.1970 -1.3166
 7608SOL    HW226613   9.480   1.364   5.912  2.9977  0.7445  0.2095
 7609SOL     OW26614   5.406   2.013   1.524 -0.3852 -0.1892 -0.0015
 7609SOL    HW126615   5.400   2.076   1.596 -0.3622  0.7559 -0.8183
 7609SOL    HW226616   5.347   1.942   1.550 -0.4876  0.2023  0.8793
 7610SOL     OW26617   5.635   5.529   5.818 -0.0989 -0.2176 -0.8606
 7610SOL    HW126618   5.566   5.518   5.752 -0.2504 -0.6367 -0.6365
 7610SOL    HW226619   5.597   5.491   5.898  0.0571  0.3413 -0.5149
 7611SOL     OW26620   2.338   2.429   2.107  0.0785 -0.2176 -0.1856
 7611SOL    HW126621   2.271   2.458   2.170 -1.7363 -1.1116 -1.6205
 7611SOL    HW226622   2.411   2.490   2.121 -1.6776  1.9209  0.2603
 7612SOL     OW26623   9.034   2.741   2.470 -0.1197  0.3259  0.5865
 7612SOL    HW126624   9.100   2.807   2.451  0.7762 -0.9883 -1.1051
 7612SOL    HW226625   8.951   2.789   2.467  0.2840  1.0486 -2.8695
 7613SOL     OW26626   0.041   6.768   5.444 -0.6187 -0.2073 -0.4060
 7613SOL    HW126627   0.020   6.768   5.351 -0.6002 -1.0730 -0.4131
 7613SOL    HW226628   0.100   6.694   5.456  0.3480  0.6167  0.0837
 7614SOL     OW26629   8.795   4.860   6.759  0.1200  0.5473 -0.0281
 7614SOL    HW126630   8.765   4.936   6.809  0.7931 -0.4724  2.0831
 7614SOL    HW226631   8.797   4.789   6.823  2.6958 -0.4633 -1.0855
 7615SOL     OW26632   0.650   4.194   1.403  0.3621  0.3470 -0.0039
 7615SOL    HW126633   0.665   4.202   1.309  0.4666  0.7054  0.0426
 7615SOL    HW226634   0.653   4.284   1.436  0.2017  0.2351  0.3236
 7616SOL     OW26635   3.962   5.927   4.861 -0.1148 -0.0013  0.0776
 7616SOL    HW126636   3.869   5.940   4.879 -0.0555  0.5483  0.0139
 7616SOL    HW226637   3.971   5.833   4.848 -0.3044 -0.3467  2.1228
 7617SOL     OW26638   7.155   3.389   4.347  0.3234  0.0802  0.0825
 7617SOL    HW126639   7.224   3.414   4.286  0.3510  0.8067  0.4009
 7617SOL    HW226640   7.196   3.394   4.433  0.4809 -1.6039  0.1399
 7618SOL     OW26641   2.034   1.688   9.992  0.2034  0.6018 -0.2790
 7618SOL    HW126642   2.068   1.672   9.904  0.7524  0.6369 -0.0827
 7618SOL    HW226643   2.063   1.612  10.043 -1.2316 -0.0609 -0.4181
 7619SOL     OW26644   6.237   0.922   1.767  0.1723 -0.0493 -0.1322
 7619SOL    HW126645   6.145   0.897   1.777 -0.0408  0.1371 -1.4610
 7619SOL    HW226646   6.234   1.009   1.727  0.9303  0.2189  0.3713
 7620SOL     OW26647   5.265   0.101   5.424 -0.3436  0.1199  0.1019
 7620SOL    HW126648   5.356   0.096   5.455 -0.2399 -1.9769 -0.3965
 7620SOL    HW226649   5.212   0.088   5.502 -0.2373  0.9831  0.3329
 7621SOL     OW26650   5.453   8.958   4.828 -0.5116 -0.2215 -0.3034
 7621SOL    HW126651   5.474   8.903   4.753 -0.7189 -0.2498 -0.3414
 7621SOL    HW226652   5.518   9.028   4.825 -0.6603 -0.0973 -0.6400
 7622SOL     OW26653   8.550   6.941   1.894  0.2736 -0.0406  0.1290
 7622SOL    HW126654   8.520   6.942   1.985  1.8774 -0.6715  0.6996
 7622SOL    HW226655   8.641   6.967   1.898  0.4929 -0.4928 -1.2609
 7623SOL     OW26656   1.573   6.251   2.806  0.4233  0.5436  0.0687
 7623SOL    HW126657   1.579   6.315   2.735  0.0655  1.0979  0.5309
 7623SOL    HW226658   1.623   6.290   2.878  2.0529 -0.6849 -0.3400
 7624SOL     OW26659   9.642   0.254   4.774 -0.5192  0.1743  0.1223
 7624SOL    HW126660   9.644   0.159   4.774 -0.4596  0.0585  3.1385
 7624SOL    HW226661   9.720   0.280   4.824  0.9509  1.9943 -2.8258
 7625SOL     OW26662   9.310   4.365   5.630  0.4451  0.8100 -0.7009
 7625SOL    HW126663   9.230   4.417   5.641  0.3951  0.6611 -0.3289
 7625SOL    HW226664   9.325   4.363   5.535  0.1279  1.0187 -0.7570
 7626SOL     OW26665   4.172   4.082  10.151 -0.2129 -0.0564  0.0067
 7626SOL    HW126666   4.192   3.997  10.190 -0.3117 -0.5127 -0.9010
 7626SOL    HW226667   4.113   4.061  10.079  2.0753  0.4023 -2.1511
 7627SOL     OW26668   3.821   3.388   7.001  0.1760 -0.2045  0.3214
 7627SOL    HW126669   3.859   3.476   6.996 -1.0324  0.2901 -0.4823
 7627SOL    HW226670   3.784   3.372   6.915  0.2406 -1.4554  0.5037
 7628SOL     OW26671   8.793   9.669   4.139  0.7836  0.4902  0.0901
 7628SOL    HW126672   8.732   9.735   4.170  0.1299  0.3838 -0.9163
 7628SOL    HW226673   8.790   9.676   4.043  0.5627 -1.1039 -0.0585
 7629SOL     OW26674   8.945   1.574   7.140 -0.1620 -0.1994  0.1277
 7629SOL    HW126675   8.975   1.649   7.191  0.9388  0.0610 -0.8575
 7629SOL    HW226676   8.861   1.602   7.103  1.0244  1.2923 -1.6491
 7630SOL     OW26677   1.377   9.140   5.805 -0.3228  0.6730  0.1254
 7630SOL    HW126678   1.451   9.176   5.757  0.4919  0.3299  1.0791
 7630SOL    HW226679   1.368   9.196   5.882 -0.7874  0.4657  0.2289
 7631SOL     OW26680   4.326   6.105   1.454 -0.1860  0.5011  0.2700
 7631SOL    HW126681   4.362   6.093   1.542 -0.9094 -1.3791  0.3636
 7631SOL    HW226682   4.232   6.091   1.464 -0.3531  0.7956 -0.7252
 7632SOL     OW26683   8.475   3.030  10.335  0.4484  0.2280 -0.0600
 7632SOL    HW126684   8.381   3.041  10.320 -0.1300 -0.1628  2.7237
 7632SOL    HW226685   8.504   3.114  10.372  0.7069 -0.3470  1.0811
 7633SOL     OW26686   9.542   1.069   1.389  0.5993 -0.0358 -0.0395
 7633SOL    HW126687   9.591   1.096   1.311 -1.1536  2.9429 -0.2398
 7633SOL    HW226688   9.610   1.052   1.455  2.0747 -1.8264 -1.8859
 7634SOL     OW26689   6.150   8.572   8.018  0.2842 -0.2185 -0.5965
 7634SOL    HW126690   6.178   8.588   8.108  0.4674 -1.3432 -0.4367
 7634SOL    HW226691   6.064   8.614   8.012 -0.1221 -0.8515  0.3782
 7635SOL     OW26692  10.077   4.109   6.688 -0.0125  0.1877  0.2187
 7635SOL    HW126693  10.152   4.122   6.630  0.0381  0.1055  0.2655
 7635SOL    HW226694  10.117   4.094   6.774  0.1044 -3.6138 -0.3253
 7636SOL     OW26695   7.738   1.415   3.404 -0.0512 -0.3547  0.0011
 7636SOL    HW126696   7.708   1.377   3.487 -2.0536 -0.0602 -0.5325
 7636SOL    HW226697   7.730   1.343   3.341  1.6522 -0.6353  0.0364
 7637SOL     OW26698   6.385   1.437   9.828  0.2863  0.2306  0.3693
 7637SOL    HW126699   6.426   1.377   9.890 -0.6138 -1.3428 -0.5217
 7637SOL    HW226700   6.302   1.462   9.869 -1.0199 -1.9903 -0.7788
 7638SOL     OW26701   3.038   4.325   2.387  0.1402 -0.6779  0.6109
 7638SOL    HW126702   3.037   4.417   2.412 -0.3780 -0.5923  0.2990
 7638SOL    HW226703   3.025   4.277   2.469  0.1965 -0.4621  0.7437
 7639SOL     OW26704   6.970   7.610   9.046  0.5307 -0.7402 -0.4121
 7639SOL    HW126705   6.950   7.524   9.083  2.5755 -1.7534 -1.5039
 7639SOL    HW226706   7.010   7.591   8.961  2.3233  1.2013 -0.0812
 7640SOL     OW26707   3.022   5.418   3.617  0.5014 -0.3055 -0.1013
 7640SOL    HW126708   2.966   5.438   3.541  1.8090 -0.8083 -1.2351
 7640SOL    HW226709   3.084   5.353   3.584  3.2983  1.9340  0.4169
 7641SOL     OW26710   0.829   5.518   8.172 -0.0038  0.2555  0.0652
 7641SOL    HW126711   0.778   5.449   8.215 -3.3784  1.6118 -1.4430
 7641SOL    HW226712   0.861   5.477   8.092  0.2948 -0.2616  0.4387
 7642SOL     OW26713   9.490   5.723   8.690  0.1253  0.0124 -0.2241
 7642SOL    HW126714   9.537   5.671   8.755  0.7889  0.4120 -0.3839
 7642SOL    HW226715   9.544   5.801   8.677 -0.9307  0.8266  0.1257
 7643SOL     OW26716   7.796   7.982   1.501  1.2359 -0.4103  0.6568
 7643SOL    HW126717   7.744   8.057   1.471  1.0985 -0.2257  1.3249
 7643SOL    HW226718   7.862   7.969   1.434  0.3794 -0.5917 -0.1770
 7644SOL     OW26719   4.774   2.419   3.362 -0.0842  0.1769  0.2050
 7644SOL    HW126720   4.819   2.492   3.319 -1.4598  2.6109  2.5596
 7644SOL    HW226721   4.843   2.356   3.381  1.2649  1.0746 -1.4922
 7645SOL     OW26722   4.703   2.940   9.425  0.4019  0.1348 -0.5447
 7645SOL    HW126723   4.729   2.848   9.433  0.3024  0.1914  0.4775
 7645SOL    HW226724   4.777   2.981   9.379  0.9323 -0.2377 -0.0459
 7646SOL     OW26725   6.828   3.125   3.610  0.4999 -0.0093 -0.2508
 7646SOL    HW126726   6.749   3.171   3.580 -1.0221 -2.1499  0.2423
 7646SOL    HW226727   6.813   3.110   3.703  2.3839  1.1547  0.2980
 7647SOL     OW26728   5.420   0.679   4.782  0.3802 -0.1430 -0.6082
 7647SOL    HW126729   5.479   0.745   4.746 -1.6935  1.0248 -2.0191
 7647SOL    HW226730   5.460   0.655   4.866  1.3854  2.6261 -0.2058
 7648SOL     OW26731   2.544   6.337   8.840 -0.0053  0.4031 -0.6680
 7648SOL    HW126732   2.511   6.316   8.753 -1.2589 -0.2570 -0.0665
 7648SOL    HW226733   2.467   6.368   8.889  1.0339  2.7204 -0.3442
 7649SOL     OW26734   1.067   8.661   8.429 -0.3113  0.2717  0.6161
 7649SOL    HW126735   1.002   8.666   8.499 -1.3722 -1.3342 -0.1891
 7649SOL    HW226736   1.065   8.569   8.401  1.6176  0.3958 -0.0948
 7650SOL     OW26737   8.359   7.995   2.902  0.5329 -0.8989 -0.0700
 7650SOL    HW126738   8.284   8.053   2.916  0.1086 -1.2600 -0.7935
 7650SOL    HW226739   8.347   7.926   2.968  2.0254  0.7231  2.0502
 7651SOL     OW26740   3.017   0.234   8.879 -0.5664  0.4054  0.1056
 7651SOL    HW126741   2.973   0.209   8.798  0.9916 -0.0245 -0.6534
 7651SOL    HW226742   2.952   0.218   8.947 -1.5121 -0.3807 -0.9292
 7652SOL     OW26743   8.447   8.794   9.646 -0.2200  0.4226 -0.5571
 7652SOL    HW126744   8.506   8.867   9.666  2.1631 -1.4220 -0.3455
 7652SOL    HW226745   8.446   8.790   9.550  0.9017 -0.1245 -0.5748
 7653SOL     OW26746   9.921   8.646   4.280 -0.0875  0.4279  0.1095
 7653SOL    HW126747   9.890   8.632   4.191 -0.1786 -3.9920  0.5990
 7653SOL    HW226748   9.841   8.664   4.330 -0.8294 -2.1152 -0.0220
 7654SOL     OW26749   4.110   6.472   4.961 -0.4397  0.2931  0.1273
 7654SOL    HW126750   4.136   6.536   5.028 -0.8805  1.3689 -0.7100
 7654SOL    HW226751   4.069   6.402   5.011  0.1171  0.6099  1.0722
 7655SOL     OW26752   4.151   2.268   8.002  0.1694 -0.5350 -0.1761
 7655SOL    HW126753   4.143   2.174   8.019 -1.2031 -0.5455 -0.7424
 7655SOL    HW226754   4.117   2.310   8.080  0.0162 -0.5218 -0.2497
 7656SOL     OW26755   2.346   0.487   5.430 -0.2055 -0.0794  0.3841
 7656SOL    HW126756   2.283   0.430   5.475 -0.8237 -0.1203 -0.5014
 7656SOL    HW226757   2.295   0.565   5.406  0.1797  0.0578  0.0076
 7657SOL     OW26758   6.078   9.858   1.462 -0.1797 -0.2882 -0.1491
 7657SOL    HW126759   6.109   9.810   1.385 -0.6608 -2.0780  0.7190
 7657SOL    HW226760   6.156   9.872   1.515  0.1813  1.0997 -1.0079
 7658SOL     OW26761   9.064   8.139   3.622 -0.0046  0.1050 -0.5749
 7658SOL    HW126762   9.036   8.227   3.647  0.6844 -0.0198  0.7537
 7658SOL    HW226763   8.984   8.087   3.627  0.2076 -0.1304  2.6166
 7659SOL     OW26764   1.296   5.841   4.468 -0.0151 -0.7751  0.8105
 7659SOL    HW126765   1.370   5.822   4.527 -1.8140 -1.5352  2.9841
 7659SOL    HW226766   1.249   5.911   4.512 -1.0704 -0.9184 -0.0623
 7660SOL     OW26767   2.995   7.153   0.361 -0.2833 -0.6221 -0.1940
 7660SOL    HW126768   3.060   7.199   0.413 -2.2610  0.0407  1.8448
 7660SOL    HW226769   2.950   7.222   0.312  1.3159 -1.1985 -2.6733
 7661SOL     OW26770   3.507   4.518   7.089 -0.6099 -0.5266  0.8626
 7661SOL    HW126771   3.467   4.553   7.168 -0.2513  0.9875  0.4137
 7661SOL    HW226772   3.537   4.595   7.041 -0.4592 -1.4230 -0.5623
 7662SOL     OW26773   3.313   3.850   3.283  0.4521  0.1970 -0.2639
 7662SOL    HW126774   3.284   3.778   3.340  1.9174  0.4999  0.9286
 7662SOL    HW226775   3.404   3.867   3.310  0.7723  1.2203 -1.8393
 7663SOL     OW26776   2.113   3.989   3.407 -0.3114 -0.2867 -0.1227
 7663SOL    HW126777   2.136   3.989   3.500  0.9037 -1.4953 -0.3982
 7663SOL    HW226778   2.072   4.074   3.393  1.4017  0.7884  1.0540
 7664SOL     OW26779   4.750   6.495   1.658 -0.0049 -0.5708 -0.6738
 7664SOL    HW126780   4.810   6.518   1.587 -0.1703  1.3854 -0.2512
 7664SOL    HW226781   4.797   6.428   1.708  2.1552  1.2557 -0.0522
 7665SOL     OW26782   6.931   1.202   9.232  0.1982 -0.0251  0.0699
 7665SOL    HW126783   6.946   1.293   9.208  0.0497  0.1841  0.7413
 7665SOL    HW226784   6.889   1.163   9.156 -1.1108  0.8394  0.3236
 7666SOL     OW26785   1.775   4.548   7.338  0.2389 -0.0626 -0.4067
 7666SOL    HW126786   1.858   4.514   7.370  0.6425  0.3879 -0.9548
 7666SOL    HW226787   1.799   4.613   7.272 -0.4880  1.3923  0.6892
 7667SOL     OW26788   2.049   0.529   4.861 -0.4414  0.0575 -0.0041
 7667SOL    HW126789   1.978   0.467   4.849 -0.3127 -0.0228 -0.3741
 7667SOL    HW226790   2.015   0.612   4.827  0.1577 -0.3217 -1.6353
 7668SOL     OW26791   1.531   8.463   0.924  0.2919 -0.0944  0.1628
 7668SOL    HW126792   1.524   8.558   0.918 -1.0828 -0.2433 -1.1682
 7668SOL    HW226793   1.550   8.435   0.834 -0.4134 -1.1483  0.3255
 7669SOL     OW26794   7.758   1.241   2.668 -0.3110  0.0821  0.4931
 7669SOL    HW126795   7.775   1.298   2.593 -0.3091 -0.0767  0.3725
 7669SOL    HW226796   7.804   1.283   2.741 -1.9556  1.3347  0.8722
 7670SOL     OW26797   5.533   0.108   9.824 -0.0906  0.1396  0.7264
 7670SOL    HW126798   5.438   0.109   9.822 -0.0981  2.3433  0.1277
 7670SOL    HW226799   5.559   0.102   9.732  0.3309  0.9145  0.7869
 7671SOL     OW26800   3.968   1.453   0.929 -0.6692  0.2754  0.3012
 7671SOL    HW126801   3.969   1.358   0.928 -0.2813  0.2678 -1.7366
 7671SOL    HW226802   3.992   1.476   1.019 -0.4794 -1.5259  0.7438
 7672SOL     OW26803   3.678   6.204   9.870 -0.6763 -0.3314 -0.4281
 7672SOL    HW126804   3.650   6.192   9.960 -1.8104  0.1591 -0.7018
 7672SOL    HW226805   3.774   6.195   9.873 -0.4516  1.9167  1.1975
 7673SOL     OW26806   8.841   3.922   5.319  0.0384 -0.3256 -0.5442
 7673SOL    HW126807   8.860   4.013   5.297 -0.1836  0.5895  2.5779
 7673SOL    HW226808   8.923   3.889   5.358 -0.6605 -0.6053  0.7273
 7674SOL     OW26809   8.284   4.951   8.192 -0.2456 -0.1238 -0.2135
 7674SOL    HW126810   8.332   4.893   8.250  0.5301 -0.4515 -1.1643
 7674SOL    HW226811   8.197   4.957   8.231  0.4272  0.1623  1.3087
 7675SOL     OW26812   9.645   5.531   3.248 -0.3340  0.4131 -0.3543
 7675SOL    HW126813   9.572   5.590   3.266 -0.2220  0.5789 -0.4432
 7675SOL    HW226814   9.613   5.474   3.178 -0.8905 -0.4493  0.5737
 7676SOL     OW26815   0.728   8.857   2.740 -0.1654  0.1499 -0.1625
 7676SOL    HW126816   0.663   8.909   2.786 -0.3855 -1.1317  1.0769
 7676SOL    HW226817   0.780   8.920   2.691 -1.0647  1.4025  0.4516
 7677SOL     OW26818   5.448   0.220   7.862  0.1376  0.1211  0.3082
 7677SOL    HW126819   5.433   0.309   7.895  0.6501  0.7391 -1.0801
 7677SOL    HW226820   5.521   0.229   7.801  0.8453 -1.4340  0.8797
 7678SOL     OW26821  10.008   4.759   5.080  0.0973  0.3421 -0.6315
 7678SOL    HW126822  10.079   4.806   5.035  0.6605 -0.0191 -0.1417
 7678SOL    HW226823  10.041   4.748   5.170 -0.7849  0.5782 -0.2725
 7679SOL     OW26824   9.622   8.010   5.167 -0.3338 -0.3750 -0.3907
 7679SOL    HW126825   9.717   8.013   5.175 -0.2700  1.2364 -1.3128
 7679SOL    HW226826   9.603   8.053   5.083 -1.9916  1.9651  1.0406
 7680SOL     OW26827   9.008   5.413   9.107  0.3536  0.1956  0.3387
 7680SOL    HW126828   9.040   5.501   9.087 -0.6457  0.3826 -0.5162
 7680SOL    HW226829   8.981   5.418   9.199  0.0641  0.8711  0.2236
 7681SOL     OW26830   6.135   3.572   0.448 -0.1585  0.2811  0.2689
 7681SOL    HW126831   6.152   3.538   0.360 -1.2632 -4.2716  1.5359
 7681SOL    HW226832   6.047   3.609   0.443 -0.5823 -0.7829 -0.3857
 7682SOL     OW26833   0.787   2.560   3.699  0.2953 -0.0989  0.0624
 7682SOL    HW126834   0.714   2.621   3.708  1.1942  1.0641 -0.3423
 7682SOL    HW226835   0.748   2.483   3.657 -0.8769  0.1197  0.6822
 7683SOL     OW26836   9.095   6.352   4.671  0.4219  0.2031  0.2853
 7683SOL    HW126837   9.053   6.435   4.693  0.9580  0.5304  0.1018
 7683SOL    HW226838   9.046   6.320   4.596  0.8060  0.8323 -0.2473
 7684SOL     OW26839   4.756   6.808   2.289  0.2913 -0.3859  0.1629
 7684SOL    HW126840   4.842   6.767   2.287  0.8137  0.6781  0.2560
 7684SOL    HW226841   4.695   6.736   2.279  1.1510 -1.3053  1.3207
 7685SOL     OW26842   3.405   8.283   7.457  0.0123  0.2987  0.2710
 7685SOL    HW126843   3.404   8.192   7.426 -0.2558  0.1308  0.7463
 7685SOL    HW226844   3.494   8.297   7.487  0.5240  0.7606 -1.3924
 7686SOL     OW26845   1.790   3.095   1.815 -0.1985  0.0835 -0.1364
 7686SOL    HW126846   1.760   3.073   1.903 -1.8600  0.5071 -0.5730
 7686SOL    HW226847   1.877   3.055   1.809  0.3077  0.7343  1.9697
 7687SOL     OW26848   8.315   6.451   4.190 -0.0524 -0.1621  0.5209
 7687SOL    HW126849   8.291   6.543   4.183  0.1264 -0.0910  0.8120
 7687SOL    HW226850   8.298   6.414   4.103  2.1523  0.6963 -0.3585
 7688SOL     OW26851   9.578   4.127   2.924  0.4665  0.0286  0.3805
 7688SOL    HW126852   9.631   4.073   2.866  0.5246 -0.1699  0.6150
 7688SOL    HW226853   9.490   4.088   2.920  0.3103  0.4187 -0.0865
 7689SOL     OW26854   4.949   8.661   3.160 -0.5461  0.1855  0.0521
 7689SOL    HW126855   4.969   8.650   3.067 -0.9985 -0.5425  0.0293
 7689SOL    HW226856   4.910   8.748   3.167 -1.3269 -0.1122 -0.5811
 7690SOL     OW26857   7.293   6.110   7.799  0.0697  0.4978  0.2177
 7690SOL    HW126858   7.204   6.136   7.822  0.2661  1.2640  0.1445
 7690SOL    HW226859   7.347   6.186   7.821  0.8431 -0.2786  1.1027
 7691SOL     OW26860   0.803   4.466   2.609  0.5906 -0.1643 -0.0730
 7691SOL    HW126861   0.713   4.496   2.622  0.7760  0.3634  0.0228
 7691SOL    HW226862   0.841   4.466   2.697  0.8578  0.1842 -0.1871
 7692SOL     OW26863   1.671   9.478   0.240  0.2442 -0.6485  0.0064
 7692SOL    HW126864   1.597   9.446   0.188 -0.1273  0.9682 -0.5288
 7692SOL    HW226865   1.662   9.435   0.325 -0.2094 -1.9115 -0.6517
 7693SOL     OW26866   6.512  10.131   4.035 -0.1991  0.4857 -0.6396
 7693SOL    HW126867   6.468  10.083   3.964 -1.8892  2.2710 -0.8916
 7693SOL    HW226868   6.547  10.209   3.992  1.2175  0.2456  0.0255
 7694SOL     OW26869   3.945   5.357   2.602 -0.1079  0.2124 -0.4803
 7694SOL    HW126870   3.889   5.430   2.627 -2.1092 -1.1805 -0.6900
 7694SOL    HW226871   3.971   5.317   2.684  2.6159  2.1865 -0.2339
 7695SOL     OW26872   6.522   8.332   1.992  0.5293  0.0173  0.0160
 7695SOL    HW126873   6.475   8.279   1.927 -0.2266 -1.0392  1.3760
 7695SOL    HW226874   6.507   8.422   1.965 -2.7321 -0.2245  0.5997
 7696SOL     OW26875   3.832   9.481   2.318 -0.0766 -0.2941 -0.0712
 7696SOL    HW126876   3.744   9.444   2.315 -0.5924  0.8695  0.1745
 7696SOL    HW226877   3.818   9.574   2.336  1.1332  0.1706 -1.3797
 7697SOL     OW26878   6.494   8.068   6.349 -0.4639 -0.3377  0.2251
 7697SOL    HW126879   6.573   8.122   6.343 -0.9837  0.3568 -0.5628
 7697SOL    HW226880   6.514   8.003   6.416  1.1033 -0.7177 -0.5745
 7698SOL     OW26881   9.380   6.957   8.620 -0.1723 -0.5797 -0.0958
 7698SOL    HW126882   9.360   6.970   8.527 -1.0284 -0.2948  0.1189
 7698SOL    HW226883   9.442   7.027   8.641 -0.9839  0.1710 -0.1408
 7699SOL     OW26884   2.564   5.576   7.827  0.0126 -0.2937  0.3235
 7699SOL    HW126885   2.468   5.585   7.831  0.1072  0.7089  0.5085
 7699SOL    HW226886   2.578   5.498   7.773 -0.9253 -1.0425  1.1215
 7700SOL     OW26887   8.850   2.702   7.348 -0.6185 -0.1971  0.2299
 7700SOL    HW126888   8.794   2.709   7.272  0.1518  0.4118 -0.3032
 7700SOL    HW226889   8.830   2.780   7.400  2.0641  1.9263 -1.6268
 7701SOL     OW26890   9.206   0.981  10.248 -0.3055  0.0516  0.3391
 7701SOL    HW126891   9.227   1.072  10.268  2.4702 -0.5882  0.6877
 7701SOL    HW226892   9.192   0.980  10.153  0.8665  0.6709  0.1384
 7702SOL     OW26893   8.946   3.528   5.962  0.1245  0.4382  0.3349
 7702SOL    HW126894   8.991   3.469   5.902  0.0313 -1.8070  2.3373
 7702SOL    HW226895   9.000   3.607   5.963  0.6104  0.1947 -1.9386
 7703SOL     OW26896   2.799   8.269   1.935 -0.1477 -0.1355  0.0068
 7703SOL    HW126897   2.760   8.323   1.866  0.3322  0.5751  0.2746
 7703SOL    HW226898   2.745   8.190   1.938  0.2996 -0.5352 -1.7210
 7704SOL     OW26899   7.767   4.082   0.426 -0.6732  0.5777 -0.0170
 7704SOL    HW126900   7.764   3.986   0.419 -0.9204  0.6303 -0.7009
 7704SOL    HW226901   7.676   4.109   0.428 -0.6501  0.9078 -1.6704
 7705SOL     OW26902   1.350   6.372   2.186 -0.9382  0.4077 -0.4805
 7705SOL    HW126903   1.407   6.336   2.254  0.6115  0.9035 -1.4773
 7705SOL    HW226904   1.310   6.449   2.226 -0.6744  0.2261  0.1368
 7706SOL     OW26905   0.856   0.383   0.831 -0.1799  0.2106  0.2967
 7706SOL    HW126906   0.893   0.468   0.807 -1.2366  1.5976  3.1548
 7706SOL    HW226907   0.761   0.397   0.831 -0.3308 -0.6572  1.7653
 7707SOL     OW26908   1.516   9.240   1.518  0.5744  0.4233  0.3504
 7707SOL    HW126909   1.534   9.332   1.537  1.4996  0.4245 -0.4386
 7707SOL    HW226910   1.428   9.240   1.481  0.2268  0.8702  1.1325
 7708SOL     OW26911  10.184   5.411   0.047 -0.4200 -0.1725 -0.2281
 7708SOL    HW126912  10.169   5.415  -0.048 -1.1544 -0.7219 -0.1483
 7708SOL    HW226913  10.123   5.344   0.077 -0.8337  0.6199  0.7529
 7709SOL     OW26914   9.305   9.971   3.737 -0.5219  0.1500 -0.4678
 7709SOL    HW126915   9.256  10.033   3.683 -2.5386 -1.3621 -0.4768
 7709SOL    HW226916   9.256   9.889   3.730  1.0429 -0.9678  0.9944
 7710SOL     OW26917   4.091   7.078   4.572  0.3731 -0.1621  0.7096
 7710SOL    HW126918   4.018   7.024   4.602  0.5322  0.5759  2.5147
 7710SOL    HW226919   4.134   7.025   4.505 -0.6370 -1.4451  1.0419
 7711SOL     OW26920   8.478   5.200   9.226  0.0260 -0.4862 -0.1090
 7711SOL    HW126921   8.442   5.148   9.298 -1.6961 -1.6867 -1.7297
 7711SOL    HW226922   8.449   5.154   9.147  1.6721  0.8799 -1.5977
 7712SOL     OW26923   1.749   2.361   9.960  0.3711 -1.0649 -0.5255
 7712SOL    HW126924   1.666   2.408   9.946  0.3181 -1.5635 -1.9890
 7712SOL    HW226925   1.815   2.417   9.920  0.9608 -0.0957  1.6443
 7713SOL     OW26926   8.054   6.746   3.392 -0.0747 -0.0235 -0.0778
 7713SOL    HW126927   8.145   6.748   3.360 -0.3335  1.9740 -0.8224
 7713SOL    HW226928   8.061   6.721   3.484  1.2894  0.5853  0.0109
 7714SOL     OW26929   7.183   5.933   2.306 -0.6902 -0.2166 -0.2084
 7714SOL    HW126930   7.244   5.859   2.308 -1.5727 -1.0089 -1.0707
 7714SOL    HW226931   7.102   5.895   2.273 -0.6958  1.4734 -2.3556
 7715SOL     OW26932   3.100   1.007   4.847  0.2970 -0.2885  0.0532
 7715SOL    HW126933   3.067   0.937   4.903 -0.8067  0.3435  0.2236
 7715SOL    HW226934   3.052   1.085   4.875  1.8085  0.6507  0.1722
 7716SOL     OW26935   3.261   6.329   1.297 -0.1577 -0.5970 -0.2135
 7716SOL    HW126936   3.206   6.320   1.219 -1.0431 -0.7576  0.4075
 7716SOL    HW226937   3.297   6.417   1.292 -1.2897 -0.1098 -0.1421
 7717SOL     OW26938   0.230   5.244   1.608 -0.0257  0.5583  0.6103
 7717SOL    HW126939   0.305   5.256   1.667  0.8979  0.9396 -0.5951
 7717SOL    HW226940   0.165   5.198   1.661  1.6786 -1.3025  1.2210
 7718SOL     OW26941   4.910   9.672   4.736 -0.3180 -0.4978 -0.0167
 7718SOL    HW126942   4.898   9.718   4.819 -0.3639 -0.5960  0.0319
 7718SOL    HW226943   4.823   9.639   4.714 -0.5750  0.6157 -0.7576
 7719SOL     OW26944   4.415   6.144   1.699 -0.1899 -0.1729 -0.7050
 7719SOL    HW126945   4.350   6.098   1.752  2.0286 -1.6804  0.9308
 7719SOL    HW226946   4.453   6.209   1.758  0.1479  0.3059 -1.4359
 7720SOL     OW26947   4.696   3.092   1.699 -0.4864 -0.5788  0.3028
 7720SOL    HW126948   4.615   3.068   1.653 -1.6766 -2.9133  3.2574
 7720SOL    HW226949   4.725   3.010   1.740  2.0802  0.7323  1.3201
 7721SOL     OW26950   4.222   6.064   9.265 -0.0864  0.4232  0.1257
 7721SOL    HW126951   4.261   6.116   9.195 -0.7219  0.8698  0.0839
 7721SOL    HW226952   4.252   6.107   9.345  0.2710  0.1907  0.1169
 7722SOL     OW26953  10.345   6.901   7.437  0.0397  0.1581 -0.0010
 7722SOL    HW126954  10.378   6.896   7.348  0.2194 -0.4927  0.0979
 7722SOL    HW226955  10.292   6.981   7.439  0.9800  0.8037 -0.3617
 7723SOL     OW26956   8.982   3.895   0.261 -0.1289  0.8864 -0.3011
 7723SOL    HW126957   8.923   3.902   0.186 -0.4796  1.1430 -0.0050
 7723SOL    HW226958   9.028   3.812   0.248 -0.8142  0.5076 -0.3514
 7724SOL     OW26959   6.534   3.461   8.523  0.2670 -0.1288 -0.1410
 7724SOL    HW126960   6.553   3.543   8.569  0.8153 -0.2366 -0.1668
 7724SOL    HW226961   6.556   3.392   8.586  0.7126 -0.2703 -0.4394
 7725SOL     OW26962   8.913   0.973   3.439 -0.2755  0.0006  0.7819
 7725SOL    HW126963   8.952   0.998   3.356 -1.4655 -1.7059 -0.3633
 7725SOL    HW226964   8.955   1.030   3.504  1.8660  0.2629 -0.7392
 7726SOL     OW26965   3.817   8.136   2.659 -0.1851 -0.1475  0.3091
 7726SOL    HW126966   3.762   8.170   2.730 -2.6153 -1.3601 -0.8619
 7726SOL    HW226967   3.901   8.117   2.701 -0.6147  1.7243  2.2207
 7727SOL     OW26968   9.061   9.398   2.377 -0.4205  0.3762  0.4964
 7727SOL    HW126969   8.992   9.376   2.315  1.4398 -1.3022 -1.1108
 7727SOL    HW226970   9.140   9.357   2.341  1.5097  2.4227  2.0734
 7728SOL     OW26971   9.475   3.214   7.885 -0.0765  0.0749  0.4147
 7728SOL    HW126972   9.556   3.172   7.856 -0.0215  0.4932 -0.0463
 7728SOL    HW226973   9.501   3.302   7.911 -0.3983  0.2412  0.1837
 7729SOL     OW26974   6.984   0.959   3.166 -0.2974  0.4874  0.1012
 7729SOL    HW126975   6.896   0.990   3.188 -0.1178  0.5754  0.7271
 7729SOL    HW226976   6.978   0.864   3.173 -0.0102  0.5498  1.5095
 7730SOL     OW26977   1.312   7.563   6.544  0.0226  0.2785  0.2321
 7730SOL    HW126978   1.345   7.648   6.514  1.6358 -0.0094  1.0922
 7730SOL    HW226979   1.314   7.508   6.465  0.3349  0.6438 -0.0198
 7731SOL     OW26980   4.598   4.207   1.524  0.5111  0.2966  0.3113
 7731SOL    HW126981   4.601   4.278   1.588  1.8427  0.0576  0.5426
 7731SOL    HW226982   4.651   4.239   1.451  0.2373 -0.0434 -0.0415
 7732SOL     OW26983   0.119   8.161   6.784  0.5067 -0.2224  0.8590
 7732SOL    HW126984   0.055   8.198   6.845 -0.9421 -0.9955 -0.1245
 7732SOL    HW226985   0.074   8.085   6.746  3.0022 -2.5549  2.1823
 7733SOL     OW26986   3.563   9.784   9.009  0.0508 -0.5006  0.2625
 7733SOL    HW126987   3.583   9.730   9.086 -2.0290  0.6003  1.6693
 7733SOL    HW226988   3.563   9.874   9.043 -1.1808 -0.0107 -0.9567
 7734SOL     OW26989   7.863   1.621   9.823 -0.0655  0.1754  0.0128
 7734SOL    HW126990   7.918   1.686   9.780 -0.7693  0.6775 -0.1531
 7734SOL    HW226991   7.791   1.607   9.761 -1.1289  0.9507  1.0342
 7735SOL     OW26992   6.780   3.394   5.422 -0.0918 -0.3000 -0.3949
 7735SOL    HW126993   6.751   3.373   5.510 -0.6280  0.3850 -0.3979
 7735SOL    HW226994   6.849   3.460   5.434 -1.2243  0.9440 -0.5286
 7736SOL     OW26995   4.259   2.005   3.377  0.0270 -0.4522 -0.1295
 7736SOL    HW126996   4.287   2.069   3.312  0.0397 -0.7620 -0.4326
 7736SOL    HW226997   4.340   1.976   3.419  0.1495 -1.1385 -0.8107
 7737SOL     OW26998   9.607   6.839   2.184  0.3357  0.0625 -0.0194
 7737SOL    HW126999   9.619   6.748   2.210 -1.6470 -0.2338 -0.0323
 7737SOL    HW227000   9.590   6.836   2.090 -0.2529  0.3851  0.0706
 7738SOL     OW27001   4.401   7.369   3.543 -0.5481  0.2128 -0.2769
 7738SOL    HW127002   4.383   7.400   3.454  0.8405  0.2745 -0.5671
 7738SOL    HW227003   4.407   7.449   3.595  2.0675  0.4753 -0.8386
 7739SOL     OW27004   0.666   8.078   0.032  0.3447  0.2630 -0.0956
 7739SOL    HW127005   0.670   8.055   0.125  0.4784 -0.7612 -0.3362
 7739SOL    HW227006   0.658   8.173   0.031  2.2950  0.4959  0.9316
 7740SOL     OW27007   8.187   0.323   7.064  0.0458 -0.0404  0.4115
 7740SOL    HW127008   8.222   0.284   7.144  1.4833  2.1139  0.9028
 7740SOL    HW227009   8.210   0.416   7.070 -2.6262  0.8237 -0.9998
 7741SOL     OW27010   3.153   2.995   9.337  0.0219 -0.5396 -0.1954
 7741SOL    HW127011   3.240   2.994   9.297  0.8024  0.7451  1.3902
 7741SOL    HW227012   3.169   2.992   9.431 -1.5940  0.8306  0.1601
 7742SOL     OW27013   9.504   1.121   2.871  0.1908  0.3717 -0.5366
 7742SOL    HW127014   9.582   1.097   2.822  0.6314  0.2394  0.2179
 7742SOL    HW227015   9.524   1.098   2.961 -1.7110 -2.2984 -0.6636
 7743SOL     OW27016   1.778   7.397   2.027  0.1843 -0.1457  0.3092
 7743SOL    HW127017   1.840   7.356   2.088 -0.9590 -1.4976  0.6035
 7743SOL    HW227018   1.800   7.359   1.942  0.3602  0.0828  0.2520
 7744SOL     OW27019   7.567   4.952   7.792  0.4136  0.6454 -0.0926
 7744SOL    HW127020   7.540   4.916   7.708  0.6038  0.2614  0.0111
 7744SOL    HW227021   7.499   4.923   7.853 -1.3201  3.2642 -0.5896
 7745SOL     OW27022   6.182   5.034   4.275  0.0485  0.3475 -0.1466
 7745SOL    HW127023   6.277   5.022   4.274 -0.0645 -0.9193  1.2884
 7745SOL    HW227024   6.155   5.019   4.184  0.8166 -3.2725  0.1054
 7746SOL     OW27025   1.429   7.043   6.591 -0.0318  0.1788 -0.7329
 7746SOL    HW127026   1.409   6.989   6.668 -1.1198  0.2595 -0.9346
 7746SOL    HW227027   1.492   7.108   6.623  0.5784 -0.6396 -0.2605
 7747SOL     OW27028   7.662   5.303   8.488  0.3943  0.5009  0.6107
 7747SOL    HW127029   7.708   5.354   8.421 -0.0059 -0.4570 -0.4339
 7747SOL    HW227030   7.714   5.315   8.567  1.1729  1.2607  0.0034
 7748SOL     OW27031   7.523   1.244   2.225 -0.2915 -0.4701 -0.3648
 7748SOL    HW127032   7.456   1.295   2.179  0.2022 -0.3146 -0.9259
 7748SOL    HW227033   7.533   1.289   2.309  0.5004  0.6885 -1.0467
 7749SOL     OW27034   4.474   0.185   3.111 -0.0966 -0.2909  0.4010
 7749SOL    HW127035   4.386   0.219   3.125 -0.5593 -0.6906 -1.3309
 7749SOL    HW227036   4.470   0.140   3.027  1.4272 -1.4797  0.9009
 7750SOL     OW27037   1.026  10.290   4.531 -0.1305  0.9531  0.0400
 7750SOL    HW127038   1.112  10.320   4.500 -0.1309  1.6274  0.6724
 7750SOL    HW227039   1.040  10.271   4.624 -0.1483 -0.9800 -0.3094
 7751SOL     OW27040   7.922   8.573   9.663  0.1528 -0.2292 -0.0444
 7751SOL    HW127041   7.939   8.647   9.721 -1.7854  1.1522 -1.1446
 7751SOL    HW227042   7.830   8.582   9.638  1.0732 -0.1775 -4.1132
 7752SOL     OW27043   2.447   5.562   1.505  0.2443  0.3521  0.0870
 7752SOL    HW127044   2.381   5.521   1.561 -0.8156  1.4220 -0.3352
 7752SOL    HW227045   2.528   5.517   1.527 -0.9933 -2.7977 -1.1765
 7753SOL     OW27046   3.706   5.414   6.218 -0.7955  0.3690  0.0296
 7753SOL    HW127047   3.795   5.451   6.214 -0.3391 -0.7704 -0.7523
 7753SOL    HW227048   3.686   5.390   6.128 -0.9239 -1.6050  0.5348
 7754SOL     OW27049   4.304  10.299   3.809 -0.1480 -0.0553 -0.0199
 7754SOL    HW127050   4.343  10.229   3.757 -0.0175 -0.6087  0.7824
 7754SOL    HW227051   4.315  10.269   3.900 -1.3054  0.3677  0.2749
 7755SOL     OW27052   1.008   8.821   1.554 -0.6901  0.4214 -0.1940
 7755SOL    HW127053   0.913   8.831   1.560 -0.8925 -1.6672  1.0170
 7755SOL    HW227054   1.021   8.754   1.486  0.0567  1.9589 -1.6411
 7756SOL     OW27055   2.792   5.312   9.838  0.2625 -0.3260  0.2831
 7756SOL    HW127056   2.850   5.298   9.763  0.6379 -0.7015  0.6343
 7756SOL    HW227057   2.845   5.364   9.899 -0.4498  1.0006 -0.1937
 7757SOL     OW27058   7.509   8.621   3.927  0.1445 -0.1165  0.0343
 7757SOL    HW127059   7.549   8.688   3.982 -0.3858 -0.5991  1.0173
 7757SOL    HW227060   7.444   8.667   3.875 -0.0848  0.1640  0.5698
 7758SOL     OW27061   5.060   4.180   2.834 -0.3583  0.4512 -0.1816
 7758SOL    HW127062   5.039   4.266   2.871  0.4721  1.1210 -1.1866
 7758SOL    HW227063   5.035   4.188   2.741  2.4183  0.6699 -1.0110
 7759SOL     OW27064   7.387   6.890  10.117 -0.0238  0.5525  0.0015
 7759SOL    HW127065   7.473   6.859  10.145 -0.1236 -1.2193 -1.4887
 7759SOL    HW227066   7.328   6.816  10.134 -1.1286  1.4799  0.3271
 7760SOL     OW27067   5.042   0.133   4.328 -0.3625  0.2965  0.2000
 7760SOL    HW127068   5.098   0.181   4.267 -0.1080  1.3669  1.2309
 7760SOL    HW227069   5.030   0.048   4.287  0.8523  0.5356 -0.7298
 7761SOL     OW27070   7.124   2.354   1.917  0.2739  0.4796 -0.2430
 7761SOL    HW127071   7.214   2.324   1.928  0.3034 -0.2304 -2.0399
 7761SOL    HW227072   7.113   2.363   1.822 -1.2313  1.5716  0.0007
 7762SOL     OW27073   6.914   0.885   2.357 -0.2290 -0.1873  0.1018
 7762SOL    HW127074   6.905   0.868   2.263  0.9784 -0.1615 -0.0261
 7762SOL    HW227075   6.951   0.804   2.393 -0.3363 -0.0621  0.5033
 7763SOL     OW27076   5.316   5.337   0.910 -0.3919  0.2007  0.3190
 7763SOL    HW127077   5.350   5.304   0.993 -0.2427  1.0735  0.6126
 7763SOL    HW227078   5.221   5.329   0.918 -0.3358 -2.9587 -0.7995
 7764SOL     OW27079   8.691   8.659   4.716 -0.5642 -0.4377 -0.5166
 7764SOL    HW127080   8.724   8.576   4.683 -0.9203  0.1961 -2.6060
 7764SOL    HW227081   8.769   8.713   4.728 -0.3551 -0.9672  0.6045
 7765SOL     OW27082   9.572   9.002   3.254 -0.3142  0.2602  0.0782
 7765SOL    HW127083   9.541   9.001   3.163  0.0414 -0.6861 -0.0432
 7765SOL    HW227084   9.494   9.024   3.306 -0.5580  0.6261 -0.4350
 7766SOL     OW27085   8.002   5.099   3.646 -0.0502 -0.1666 -0.3869
 7766SOL    HW127086   7.933   5.157   3.677 -0.1855  0.3468 -1.5757
 7766SOL    HW227087   8.083   5.140   3.674 -0.2035 -0.5397  0.6296
 7767SOL     OW27088   2.956   1.645   5.385 -0.1318  0.1467 -0.8328
 7767SOL    HW127089   3.016   1.599   5.327  1.0768  0.2211  0.3187
 7767SOL    HW227090   2.990   1.735   5.389 -0.2670  0.1733 -0.1196
 7768SOL     OW27091   7.153   4.838   1.737  0.1331  0.1884 -0.7152
 7768SOL    HW127092   7.100   4.904   1.694  0.4813  0.2015 -1.1287
 7768SOL    HW227093   7.116   4.754   1.709 -1.2778  0.1670  0.9889
 7769SOL     OW27094   0.313  10.062   9.400  0.3457  0.0492  0.2692
 7769SOL    HW127095   0.248  10.124   9.434 -0.1584 -0.8843  1.0725
 7769SOL    HW227096   0.328  10.089   9.310 -0.6731  0.6906  0.2779
 7770SOL     OW27097   2.955   2.173   2.470 -0.4134  0.2415 -0.3326
 7770SOL    HW127098   3.004   2.170   2.552 -0.8195  0.5470 -0.0718
 7770SOL    HW227099   2.883   2.234   2.488 -1.4662 -0.9504 -0.3834
 7771SOL     OW27100   8.994   5.298   4.336  0.3889 -0.3705 -0.0281
 7771SOL    HW127101   8.988   5.271   4.244  0.4286 -2.1955  0.4757
 7771SOL    HW227102   9.008   5.217   4.384 -2.3158  0.1636  1.8703
 7772SOL     OW27103   9.988   7.871   9.152  0.4542 -0.0022 -0.1039
 7772SOL    HW127104   9.967   7.793   9.204 -0.7252  0.6648  0.4797
 7772SOL    HW227105  10.081   7.887   9.170  0.0156  0.4035  2.1411
 7773SOL     OW27106   9.278   3.391   6.522 -0.3858 -0.1621  0.0905
 7773SOL    HW127107   9.257   3.474   6.479 -1.3663 -0.6435 -0.4067
 7773SOL    HW227108   9.298   3.331   6.449  0.7506 -0.2627  0.4643
 7774SOL     OW27109   0.597   8.526   0.895  0.4705 -0.2097  0.1070
 7774SOL    HW127110   0.527   8.554   0.837  2.3559  4.0845 -0.4706
 7774SOL    HW227111   0.593   8.586   0.969  2.7268 -0.6012  0.6338
 7775SOL     OW27112   6.981   2.754   1.769  0.2824 -0.1604  0.1912
 7775SOL    HW127113   6.947   2.839   1.796  2.9290  1.0869 -0.1466
 7775SOL    HW227114   7.060   2.742   1.822  0.5072 -1.9612 -0.4957
 7776SOL     OW27115   8.323   9.095   9.685  0.3037  0.4752  0.1210
 7776SOL    HW127116   8.295   9.168   9.630 -1.1433 -0.3819 -0.3489
 7776SOL    HW227117   8.358   9.030   9.624 -2.5260 -1.0451 -0.0999
 7777SOL     OW27118   5.141   6.259   6.524 -0.1972  0.0299  0.0690
 7777SOL    HW127119   5.168   6.348   6.502  1.3307  0.0103  1.6350
 7777SOL    HW227120   5.223   6.210   6.529 -0.8951 -1.1159  0.6822
 7778SOL     OW27121   3.988   5.807   6.253  0.3813  0.4538 -0.0345
 7778SOL    HW127122   4.067   5.860   6.245  1.5453 -0.7782  2.1841
 7778SOL    HW227123   4.001   5.757   6.334 -1.7619 -1.3262 -0.6858
 7779SOL     OW27124   7.768   5.944   9.587  0.0020 -0.3382 -0.3215
 7779SOL    HW127125   7.801   5.927   9.675  0.2425 -2.5117 -0.7711
 7779SOL    HW227126   7.817   5.884   9.531 -0.7341  0.4168 -1.8252
 7780SOL     OW27127   2.088   9.386   2.478 -0.1905  0.4075 -0.0711
 7780SOL    HW127128   2.070   9.474   2.511 -0.5495 -0.5237  2.4305
 7780SOL    HW227129   2.012   9.363   2.426 -0.2305  1.4378 -0.4920
 7781SOL     OW27130   8.109   5.471   5.199  0.2181 -0.0867  0.2636
 7781SOL    HW127131   8.033   5.412   5.194 -0.2116  0.5610 -1.6797
 7781SOL    HW227132   8.071   5.559   5.194  1.0171  0.3092  0.8613
 7782SOL     OW27133   8.943   7.434   9.200  0.3214  0.3771 -0.5267
 7782SOL    HW127134   8.993   7.355   9.221 -0.0906  0.1882 -0.2390
 7782SOL    HW227135   8.889   7.409   9.125  0.1432  0.3644 -0.3941
 7783SOL     OW27136   8.662   9.856   3.176  0.1938 -0.2597 -0.1618
 7783SOL    HW127137   8.750   9.893   3.182  1.1308 -1.5332 -3.6230
 7783SOL    HW227138   8.610   9.925   3.134 -0.0916 -0.0665  0.4985
 7784SOL     OW27139   4.626   0.896   0.095  0.3668  0.5396 -0.1580
 7784SOL    HW127140   4.597   0.981   0.064  1.9230  1.8793  1.8171
 7784SOL    HW227141   4.687   0.865   0.029  2.4264  2.5927  0.6670
 7785SOL     OW27142   2.797   2.391   2.065  0.4204 -0.0280  0.5366
 7785SOL    HW127143   2.838   2.305   2.062  1.0308  0.1887  1.9715
 7785SOL    HW227144   2.727   2.387   2.000  0.3569 -1.6442  0.6834
 7786SOL     OW27145   2.196   0.893   0.544 -0.0654 -0.3396 -0.1898
 7786SOL    HW127146   2.247   0.954   0.492  1.7881  0.2093  2.0886
 7786SOL    HW227147   2.215   0.807   0.506  2.6025 -0.1486  0.5027
 7787SOL     OW27148   6.372   1.343   0.237 -0.2223 -0.3593 -0.0327
 7787SOL    HW127149   6.461   1.371   0.254  0.0892 -0.5124 -1.2932
 7787SOL    HW227150   6.339   1.311   0.321  1.0261 -0.6269  0.3658
 7788SOL     OW27151   3.101   7.755   7.655  0.0925 -0.9762  0.4741
 7788SOL    HW127152   3.139   7.669   7.673  2.0640 -0.7021 -1.8945
 7788SOL    HW227153   3.051   7.776   7.734  1.4679 -3.2604  2.0681
 7789SOL     OW27154   0.161   1.402   9.510 -0.2463 -0.4203  0.2616
 7789SOL    HW127155   0.066   1.417   9.504 -0.4992 -1.3254  1.4699
 7789SOL    HW227156   0.191   1.395   9.420 -1.7029 -2.1670 -0.1518
 7790SOL     OW27157   8.105   8.687   0.717 -0.4886  0.0629  0.1186
 7790SOL    HW127158   8.134   8.684   0.809  0.5289  1.4829 -0.1205
 7790SOL    HW227159   8.098   8.780   0.698  0.3648 -0.1928 -1.5659
 7791SOL     OW27160   0.819   7.935   9.079 -0.2685 -0.3076 -0.2808
 7791SOL    HW127161   0.759   7.917   9.152 -0.7450  0.0109 -0.5820
 7791SOL    HW227162   0.831   8.030   9.082  1.3922 -0.5100  0.6631
 7792SOL     OW27163   8.474   8.123   4.132 -0.8520 -0.0268  0.0307
 7792SOL    HW127164   8.422   8.196   4.165 -0.2647  0.6096 -0.4186
 7792SOL    HW227165   8.430   8.098   4.051  0.0149  1.1072 -0.8315
 7793SOL     OW27166   4.952   5.512   8.611  0.6064 -0.2104 -0.3934
 7793SOL    HW127167   5.005   5.444   8.653 -0.1053  0.5023  1.8020
 7793SOL    HW227168   4.951   5.584   8.674  0.6521  1.5438 -2.2916
 7794SOL     OW27169   1.423   0.156   0.727 -0.0286  0.6231 -0.2831
 7794SOL    HW127170   1.498   0.097   0.716 -0.5381 -0.0513 -0.2348
 7794SOL    HW227171   1.443   0.231   0.671 -0.7402 -0.9590 -2.8469
 7795SOL     OW27172   0.689   9.883   3.350 -0.5701  0.0073  1.2796
 7795SOL    HW127173   0.614   9.942   3.354 -0.8347 -0.2790  0.5290
 7795SOL    HW227174   0.658   9.806   3.303  0.4220  0.2309  0.2193
 7796SOL     OW27175   0.537   2.261   6.252  0.6151  0.1713 -0.1322
 7796SOL    HW127176   0.627   2.261   6.283  0.8074 -0.0022 -0.6861
 7796SOL    HW227177   0.486   2.290   6.328  1.2014  0.9490 -0.0176
 7797SOL     OW27178   6.890   6.725   8.790 -0.7408  0.0634  0.0270
 7797SOL    HW127179   6.883   6.796   8.855  1.1339  0.7303 -0.4260
 7797SOL    HW227180   6.890   6.645   8.843  0.1927  0.5701  0.8496
 7798SOL     OW27181   5.334   6.416   3.829 -0.6856 -0.5420 -0.3061
 7798SOL    HW127182   5.405   6.471   3.861  0.7614 -1.5604 -1.5850
 7798SOL    HW227183   5.273   6.476   3.788  0.6304  0.1783 -1.2795
 7799SOL     OW27184  10.241   9.202  10.356 -0.6519 -0.1368  0.2440
 7799SOL    HW127185  10.212   9.291  10.376  0.1483 -0.0159  0.9093
 7799SOL    HW227186  10.311   9.213  10.292  0.4014 -0.1713  1.3484
 7800SOL     OW27187   8.967   8.504   2.596  0.4081  0.2383 -0.3720
 7800SOL    HW127188   9.035   8.441   2.618  1.7115  1.4416 -0.7819
 7800SOL    HW227189   8.888   8.470   2.638  1.4225 -0.7884  0.7875
 7801SOL     OW27190   9.950   9.281   1.808  0.6493 -0.1172  0.6103
 7801SOL    HW127191  10.040   9.297   1.779  0.9073  1.7457  2.1587
 7801SOL    HW227192   9.950   9.309   1.900 -0.9435 -2.3587  1.3657
 7802SOL     OW27193   8.742   7.929   8.690  0.4751  0.4263 -0.1296
 7802SOL    HW127194   8.790   7.847   8.703  0.1867  0.0460 -1.4192
 7802SOL    HW227195   8.795   7.979   8.628 -0.3727  0.3478 -0.9320
 7803SOL     OW27196   5.272   4.737   6.924 -0.1313 -0.5974  0.8912
 7803SOL    HW127197   5.329   4.734   6.847 -2.0483  1.7089 -0.7754
 7803SOL    HW227198   5.331   4.725   6.998  1.9464 -1.9061 -0.8439
 7804SOL     OW27199   4.039   1.637   4.524 -0.1215 -0.0535 -0.3801
 7804SOL    HW127200   4.129   1.610   4.542 -0.3391  0.7956  2.3604
 7804SOL    HW227201   4.033   1.726   4.559 -2.0661 -0.1429 -0.3684
 7805SOL     OW27202   2.056   0.534   3.379  0.5723  0.4094  0.1712
 7805SOL    HW127203   2.117   0.576   3.319 -0.8396  0.8783 -1.0072
 7805SOL    HW227204   1.999   0.481   3.323  0.9314 -1.3937  1.4019
 7806SOL     OW27205   1.953   1.263   7.256 -0.9427  0.3597  0.3118
 7806SOL    HW127206   1.953   1.190   7.195 -1.3901 -0.1363  0.8901
 7806SOL    HW227207   2.003   1.331   7.212 -2.7702  0.6901 -1.4111
 7807SOL     OW27208   0.958   5.111   2.514  0.3651 -0.2666 -0.6347
 7807SOL    HW127209   0.920   5.197   2.497  0.7256 -0.2702 -1.5156
 7807SOL    HW227210   1.043   5.130   2.554 -0.8664 -0.2637  2.2144
 7808SOL     OW27211   0.256   6.705   9.439  0.0046 -0.2090  0.6550
 7808SOL    HW127212   0.293   6.653   9.368  2.1649  1.8136  0.1307
 7808SOL    HW227213   0.252   6.646   9.513 -2.2341 -2.3700 -1.0285
 7809SOL     OW27214   8.397   5.519   3.890  0.1678  0.7638 -0.0454
 7809SOL    HW127215   8.449   5.444   3.920  2.1797  1.2147 -2.0852
 7809SOL    HW227216   8.322   5.522   3.948  0.3272 -2.4768  0.4807
 7810SOL     OW27217   9.062   7.743   0.377 -0.3670  0.3709  0.2105
 7810SOL    HW127218   9.039   7.812   0.314  0.1288  0.5064  0.1782
 7810SOL    HW227219   9.133   7.781   0.430  2.4593 -1.3323 -2.0810
 7811SOL     OW27220   1.535   3.962   7.455  0.2782  0.2611 -0.2806
 7811SOL    HW127221   1.578   3.885   7.492  0.4425  1.0821  1.3433
 7811SOL    HW227222   1.568   4.036   7.507 -2.5283  1.0078  0.6551
 7812SOL     OW27223   8.180   3.344   9.906  0.0298 -0.1507 -0.1831
 7812SOL    HW127224   8.248   3.390   9.856 -0.5387  1.5757  0.5522
 7812SOL    HW227225   8.158   3.269   9.852  1.3357  0.1718 -1.2357
 7813SOL     OW27226   8.519   3.780   9.148 -0.2424  0.0094  0.3615
 7813SOL    HW127227   8.451   3.754   9.210 -0.2415  1.8329  1.1988
 7813SOL    HW227228   8.598   3.791   9.201 -0.1382  1.1791  0.0009
 7814SOL     OW27229   1.429   9.642  10.100  0.4591 -0.1954 -0.4117
 7814SOL    HW127230   1.488   9.673  10.032  1.7244 -0.6386  0.4469
 7814SOL    HW227231   1.457   9.552  10.116  0.2464 -0.0695  0.7511
 7815SOL     OW27232   8.193   3.349   6.058 -0.1186  0.4975  0.1653
 7815SOL    HW127233   8.113   3.302   6.031 -0.4365  0.6108  0.8835
 7815SOL    HW227234   8.168   3.441   6.056 -0.2080  0.5030  0.9811
 7816SOL     OW27235   6.334   4.755   1.412  0.2275  0.0661  0.1563
 7816SOL    HW127236   6.266   4.819   1.433 -0.4853 -0.3397 -0.7958
 7816SOL    HW227237   6.380   4.741   1.494 -0.2508  1.0421  0.6119
 7817SOL     OW27238   2.257   6.517   7.753  0.2471 -0.3954 -0.0389
 7817SOL    HW127239   2.197   6.590   7.738  0.0971 -0.7587 -1.4007
 7817SOL    HW227240   2.330   6.555   7.801 -0.7040  0.2213  0.9658
 7818SOL     OW27241   5.660   4.341   1.003  0.2818  0.0678  0.1722
 7818SOL    HW127242   5.642   4.261   0.953  1.6318  0.5301 -1.1421
 7818SOL    HW227243   5.679   4.311   1.091 -4.4771 -0.6310  1.2614
 7819SOL     OW27244   7.267   2.959   5.068  0.1393  0.1473 -0.1010
 7819SOL    HW127245   7.351   2.999   5.090  1.2341 -1.0516 -1.8529
 7819SOL    HW227246   7.217   2.963   5.150  1.3473  2.1271  0.6362
 7820SOL     OW27247   7.423   0.114   3.517  0.3668 -0.0983 -0.4754
 7820SOL    HW127248   7.486   0.111   3.590 -1.2799 -0.7988  0.9992
 7820SOL    HW227249   7.338   0.103   3.559 -0.5602 -2.5117 -2.6849
 7821SOL     OW27250   8.779   1.956   4.837  0.0942  0.3407  1.1936
 7821SOL    HW127251   8.785   1.967   4.932  0.9140 -0.7908  1.2976
 7821SOL    HW227252   8.803   2.041   4.801 -0.0605  0.7317  1.9939
 7822SOL     OW27253   6.810   2.585   7.298  0.4173  0.0746  0.0060
 7822SOL    HW127254   6.788   2.632   7.218  0.4055  1.2691  0.6912
 7822SOL    HW227255   6.905   2.595   7.307  0.7535 -1.8120 -0.9175
 7823SOL     OW27256   8.236   8.850   1.930  0.2356 -0.2901 -0.0864
 7823SOL    HW127257   8.228   8.774   1.873  1.3788 -0.4406 -0.0722
 7823SOL    HW227258   8.296   8.909   1.884 -1.0015  0.8381 -0.3178
 7824SOL     OW27259   1.870   4.667   9.256  0.0239  0.1420  0.1681
 7824SOL    HW127260   1.908   4.747   9.293  0.1844 -0.2939  0.9725
 7824SOL    HW227261   1.902   4.664   9.166 -1.3110  1.8394 -0.4176
 7825SOL     OW27262   0.362   3.653   3.686 -0.6864 -1.0218  0.7517
 7825SOL    HW127263   0.325   3.606   3.612 -0.5680 -2.6644  1.6720
 7825SOL    HW227264   0.422   3.590   3.727  0.1664  0.2418  1.5542
 7826SOL     OW27265   7.115  10.235   5.211 -0.0802 -0.2126 -0.5697
 7826SOL    HW127266   7.057  10.159   5.204  0.8938 -0.8989 -1.7498
 7826SOL    HW227267   7.057  10.308   5.230 -1.2592 -0.9673 -1.1341
 7827SOL     OW27268   1.103   9.217   3.304  0.1899  0.0593  0.1257
 7827SOL    HW127269   1.184   9.257   3.335  0.6050  0.1117 -0.9681
 7827SOL    HW227270   1.076   9.273   3.230  0.3811 -1.2263 -0.9607
 7828SOL     OW27271   2.953   1.458   6.732  0.3740 -0.2860  0.0301
 7828SOL    HW127272   2.934   1.416   6.648  1.4640  3.6083 -2.4292
 7828SOL    HW227273   3.027   1.409   6.768  2.2635 -0.0596 -3.1523
 7829SOL     OW27274   2.390   3.491   3.667 -0.5047 -0.3104 -0.0228
 7829SOL    HW127275   2.345   3.575   3.655 -0.4016 -0.2777 -0.1953
 7829SOL    HW227276   2.474   3.514   3.708 -1.4260 -0.5560  2.1117
 7830SOL     OW27277   9.519   7.726   7.107 -0.3684 -0.0943  0.1142
 7830SOL    HW127278   9.469   7.645   7.117 -0.0541 -0.1387  1.6234
 7830SOL    HW227279   9.455   7.790   7.075 -1.2873 -0.2995  1.4301
 7831SOL     OW27280   7.888   3.758   7.990  0.1179  0.0852  0.1817
 7831SOL    HW127281   7.856   3.845   8.014 -0.0862 -0.2080  1.0191
 7831SOL    HW227282   7.873   3.705   8.068  0.0386 -0.7588 -0.3993
 7832SOL     OW27283   5.497   5.065   6.760  0.6406  0.2420  0.0491
 7832SOL    HW127284   5.450   5.145   6.740  0.2138  0.2937  1.1581
 7832SOL    HW227285   5.583   5.094   6.789  1.3296  0.1578 -1.7891
 7833SOL     OW27286   6.882   0.132   2.868  0.6281  0.2415  0.5841
 7833SOL    HW127287   6.824   0.151   2.942  0.5392  0.9447  0.3415
 7833SOL    HW227288   6.831   0.073   2.813 -0.1096  1.3280  0.0705
 7834SOL     OW27289   6.543   5.769   9.434 -0.1004 -0.0657  0.3142
 7834SOL    HW127290   6.566   5.811   9.352  1.7820 -1.4987  0.0433
 7834SOL    HW227291   6.466   5.715   9.412 -0.4843  0.6466 -0.1271
 7835SOL     OW27292   5.578   6.220   3.820  0.1947 -0.6702  0.1358
 7835SOL    HW127293   5.671   6.235   3.838 -0.1829  1.4450  0.5621
 7835SOL    HW227294   5.544   6.306   3.795 -2.0039 -0.9990  1.6734
 7836SOL     OW27295   4.243   7.769   9.819  0.0028 -0.5043 -0.2165
 7836SOL    HW127296   4.162   7.785   9.867 -0.0971  2.3352 -1.1549
 7836SOL    HW227297   4.218   7.707   9.750 -1.1269 -0.4554  0.1354
 7837SOL     OW27298   2.976   6.486   4.393  0.3196  0.0505 -0.1332
 7837SOL    HW127299   3.007   6.574   4.413 -1.0179  0.4929  0.0700
 7837SOL    HW227300   2.966   6.485   4.298 -2.3502  1.0969  0.0586
 7838SOL     OW27301   1.700   1.858  10.146  0.1718 -0.1458 -0.4952
 7838SOL    HW127302   1.683   1.904  10.229  0.8550 -0.9332  0.0973
 7838SOL    HW227303   1.779   1.900  10.112  0.2083 -0.1883 -0.4641
 7839SOL     OW27304   8.222   6.716   4.169 -0.1134 -0.2074  0.0317
 7839SOL    HW127305   8.140   6.765   4.175  0.6934  1.4249 -1.2740
 7839SOL    HW227306   8.251   6.730   4.079  1.4261 -1.0144  0.3774
 7840SOL     OW27307   3.520   7.568   1.910  0.1050  0.4246 -0.7790
 7840SOL    HW127308   3.558   7.645   1.954 -0.0593 -0.4860  1.0498
 7840SOL    HW227309   3.595   7.513   1.889  0.0124 -0.6795  1.4812
 7841SOL     OW27310   9.206   0.101   6.673 -0.0702  0.0362 -0.2555
 7841SOL    HW127311   9.112   0.099   6.657 -0.0766  0.4488 -0.2778
 7841SOL    HW227312   9.218   0.173   6.735  0.5947  2.1838 -2.7154
 7842SOL     OW27313   4.189   3.356   3.918  0.1170 -0.6456  0.6057
 7842SOL    HW127314   4.101   3.340   3.954 -0.1681 -0.5809 -0.0399
 7842SOL    HW227315   4.172   3.388   3.829  0.7813 -0.1336  0.6607
 7843SOL     OW27316   4.416   5.832   9.485 -0.0412  0.7056 -0.0313
 7843SOL    HW127317   4.433   5.866   9.397  1.3701  0.4119  0.1047
 7843SOL    HW227318   4.501   5.835   9.529  0.3635 -3.4124 -0.1503
 7844SOL     OW27319   1.382   4.147   6.365  0.1038 -0.0870  0.0293
 7844SOL    HW127320   1.391   4.053   6.377 -1.4205 -0.2241  0.1809
 7844SOL    HW227321   1.385   4.183   6.454 -0.0769 -0.0658  0.0270
 7845SOL     OW27322   1.380   2.215   8.526 -0.2990 -0.0539 -0.4585
 7845SOL    HW127323   1.287   2.198   8.536  0.0889 -1.7224  0.5841
 7845SOL    HW227324   1.411   2.233   8.614  0.4515  0.0163 -0.7320
 7846SOL     OW27325   6.720   1.122   3.150 -0.5502 -0.4471 -0.6464
 7846SOL    HW127326   6.651   1.185   3.172  1.0604  0.9039  0.8517
 7846SOL    HW227327   6.686   1.038   3.178 -1.6191  0.1797  0.0205
 7847SOL     OW27328   4.445   4.121   5.780  0.0641 -0.4263 -0.1826
 7847SOL    HW127329   4.460   4.027   5.769  0.0247 -0.5584  0.7742
 7847SOL    HW227330   4.512   4.162   5.725 -0.7319 -0.9945 -1.6297
 7848SOL     OW27331   9.248   1.676   6.175  0.2996  0.1435  0.1046
 7848SOL    HW127332   9.340   1.695   6.196  0.8787 -1.5419 -0.7598
 7848SOL    HW227333   9.219   1.619   6.246  0.1065  0.1619  0.0405
 7849SOL     OW27334   2.834  10.041   8.875  0.5577  0.4895 -0.1850
 7849SOL    HW127335   2.759   9.991   8.842  0.3225 -0.7684  2.0605
 7849SOL    HW227336   2.796  10.124   8.904  0.0428 -0.0475  0.7187
 7850SOL     OW27337   7.531   6.441   5.600  0.0824 -0.6701 -0.0864
 7850SOL    HW127338   7.574   6.465   5.682 -0.0137 -0.7330 -0.0162
 7850SOL    HW227339   7.549   6.513   5.540  1.7610 -1.4815 -0.6053
 7851SOL     OW27340   5.916   7.040   1.119  0.3749 -0.5619  0.0438
 7851SOL    HW127341   5.871   6.969   1.074  1.0245 -3.1079  3.0609
 7851SOL    HW227342   5.873   7.045   1.205  0.4395  2.6868  0.0089
 7852SOL     OW27343   0.146   6.054   9.926 -0.3919 -0.2316  0.2019
 7852SOL    HW127344   0.154   6.136   9.975  0.2422 -0.3650  0.3263
 7852SOL    HW227345   0.054   6.029   9.936 -0.1506 -0.5814  1.8518
 7853SOL     OW27346   3.538   7.556   5.110  0.0417 -0.3877 -0.6739
 7853SOL    HW127347   3.468   7.593   5.056 -0.0319 -0.0458 -0.3475
 7853SOL    HW227348   3.492   7.506   5.178  0.0885  0.2889 -0.1311
 7854SOL     OW27349  10.231   1.143   5.563 -0.0620 -0.6937 -0.0521
 7854SOL    HW127350  10.182   1.186   5.493 -0.5825 -1.1544  0.0249
 7854SOL    HW227351  10.213   1.196   5.641  2.0447  0.9716 -0.5855
 7855SOL     OW27352   7.696   9.906   5.785 -0.7271 -0.2628 -0.3966
 7855SOL    HW127353   7.701   9.997   5.757  1.2652 -0.1424  0.1831
 7855SOL    HW227354   7.691   9.856   5.703  1.9613  0.2283 -0.9641
 7856SOL     OW27355   9.732   2.653   4.152  0.0537 -0.2791 -0.5797
 7856SOL    HW127356   9.664   2.713   4.183  0.6425 -1.2816  3.1103
 7856SOL    HW227357   9.796   2.710   4.108  0.1471  1.7776  1.9662
 7857SOL     OW27358   6.756  10.205   6.176  0.7629  0.0302  0.8904
 7857SOL    HW127359   6.738  10.255   6.256  0.3151  0.2124  0.6748
 7857SOL    HW227360   6.850  10.217   6.162  1.0132 -0.6539  1.8254
 7858SOL     OW27361   6.389   4.926   1.176 -0.4745  0.0376 -0.1359
 7858SOL    HW127362   6.446   4.895   1.246  0.6703  0.1686 -0.9888
 7858SOL    HW227363   6.301   4.925   1.215 -0.3861 -3.1004  0.2733
 7859SOL     OW27364   2.623   9.240   8.324 -0.4954 -0.0782  0.8208
 7859SOL    HW127365   2.644   9.149   8.304  0.8207  0.5421 -0.8887
 7859SOL    HW227366   2.597   9.239   8.416  0.0567 -2.0756  1.0036
 7860SOL     OW27367   5.163   2.727   9.885  0.2262  0.2501 -0.2732
 7860SOL    HW127368   5.138   2.763   9.800  1.4127  0.1658 -0.6707
 7860SOL    HW227369   5.153   2.633   9.876  0.9686  0.1943 -0.5297
 7861SOL     OW27370   8.093   3.111   0.167  0.1038  0.1809  0.1210
 7861SOL    HW127371   8.161   3.087   0.104 -0.5300 -0.9829 -0.1408
 7861SOL    HW227372   8.128   3.083   0.252  0.7201  1.2522  0.2426
 7862SOL     OW27373   8.836   0.279   7.284  0.5705 -0.3405 -0.3919
 7862SOL    HW127374   8.890   0.353   7.255 -0.0924  0.2995 -0.0232
 7862SOL    HW227375   8.853   0.272   7.377 -1.0839  0.8416  0.0508
 7863SOL     OW27376   4.947   3.554   6.669 -0.9962 -0.7121  0.1131
 7863SOL    HW127377   4.906   3.625   6.619 -0.2395 -0.4875 -0.1921
 7863SOL    HW227378   4.979   3.493   6.603  3.3836  1.3579 -0.0156
 7864SOL     OW27379   8.080   0.091   3.109 -0.7152  0.3959 -0.1355
 7864SOL    HW127380   8.169   0.058   3.098 -1.4630 -2.0686  0.4654
 7864SOL    HW227381   8.049   0.108   3.021 -0.0469  0.0942 -0.4368
 7865SOL     OW27382   7.438   8.157  10.183 -0.1149 -0.1777 -0.4120
 7865SOL    HW127383   7.410   8.104  10.257 -2.8596  0.5194 -0.8494
 7865SOL    HW227384   7.422   8.247  10.209  1.0288  0.2392 -1.0501
 7866SOL     OW27385   0.674   8.294   2.959 -0.0867  0.3262 -0.4554
 7866SOL    HW127386   0.624   8.369   2.989 -2.9395 -0.7293 -2.1451
 7866SOL    HW227387   0.731   8.271   3.032 -0.6948  2.7808  0.8751
 7867SOL     OW27388   2.485   1.752   5.922  0.3522  0.2270 -1.0344
 7867SOL    HW127389   2.511   1.728   6.011 -2.4084 -1.8393 -0.6401
 7867SOL    HW227390   2.466   1.845   5.927  1.4400  0.4105  0.1877
 7868SOL     OW27391   9.312   4.400   4.772 -0.5055 -0.7554  0.2014
 7868SOL    HW127392   9.358   4.355   4.702 -0.4637 -0.6251  0.1437
 7868SOL    HW227393   9.250   4.458   4.727  1.0427  0.9686  0.1859
 7869SOL     OW27394   4.395   4.716   3.276  0.3193 -0.1198  0.4063
 7869SOL    HW127395   4.440   4.780   3.220 -1.9880  0.1913 -1.2289
 7869SOL    HW227396   4.303   4.743   3.275 -0.2130 -1.6036  2.3595
 7870SOL     OW27397   4.349   0.642   7.129  0.1911 -0.3474 -0.1011
 7870SOL    HW127398   4.401   0.581   7.077 -1.1114 -1.6931  0.1190
 7870SOL    HW227399   4.396   0.648   7.212  1.4944  0.6878 -0.8724
 7871SOL     OW27400   8.009   6.726   2.563  0.1607 -0.1682 -0.9040
 7871SOL    HW127401   7.972   6.760   2.644 -0.7640 -0.9848 -0.9629
 7871SOL    HW227402   8.102   6.745   2.569 -0.0066  0.4229  0.0152
 7872SOL     OW27403   9.854   0.658   7.076  0.0158 -0.9620  0.2113
 7872SOL    HW127404   9.940   0.619   7.060  0.6726  0.1082  1.0062
 7872SOL    HW227405   9.869   0.723   7.145 -1.3336 -0.3933  0.0057
 7873SOL     OW27406   1.533   1.636   8.802  0.0659  0.3370 -0.2490
 7873SOL    HW127407   1.576   1.697   8.863  0.7097  0.2324 -0.5854
 7873SOL    HW227408   1.488   1.694   8.740  1.0652  0.5046 -0.8473
 7874SOL     OW27409   0.641   9.575   8.841 -0.4726 -0.0875 -0.5631
 7874SOL    HW127410   0.603   9.645   8.789 -0.5482 -0.0284 -0.4297
 7874SOL    HW227411   0.703   9.532   8.782  2.1693  2.2151  0.2923
 7875SOL     OW27412   2.429   9.331   0.692  0.2028 -0.4112 -0.2654
 7875SOL    HW127413   2.398   9.339   0.782  2.8747 -0.0924  0.7398
 7875SOL    HW227414   2.466   9.242   0.688 -1.1594 -0.9548 -1.5334
 7876SOL     OW27415   6.747   5.204   9.766  0.3585 -0.1616 -0.0602
 7876SOL    HW127416   6.665   5.231   9.807  0.5204  0.6062 -0.2275
 7876SOL    HW227417   6.759   5.264   9.692  0.4586 -1.0458 -0.7783
 7877SOL     OW27418   3.847   5.193   5.281  0.0722 -0.2083  0.2556
 7877SOL    HW127419   3.872   5.225   5.194  0.7742 -0.2838  0.4242
 7877SOL    HW227420   3.770   5.138   5.265 -0.0366  0.0865 -0.2675
 7878SOL     OW27421   0.257   0.531   6.760 -0.5878  0.4621 -0.1703
 7878SOL    HW127422   0.271   0.626   6.758 -0.4507  0.4299 -0.8999
 7878SOL    HW227423   0.272   0.503   6.670  0.4034 -0.3972  0.2459
 7879SOL     OW27424   4.593   8.228   8.954 -0.8261 -0.3069  0.5228
 7879SOL    HW127425   4.541   8.196   9.027 -0.7109  1.8774  1.6623
 7879SOL    HW227426   4.658   8.286   8.995 -1.5081  1.9604 -1.3393
 7880SOL     OW27427   5.289   4.612   3.922  0.2072  0.3377  0.1868
 7880SOL    HW127428   5.348   4.550   3.881  0.7953  0.7108  0.4576
 7880SOL    HW227429   5.211   4.561   3.944 -0.0075  0.0730 -1.1338
 7881SOL     OW27430   0.748   4.732   3.237  0.1553  0.3453  0.6302
 7881SOL    HW127431   0.659   4.735   3.271  0.1521 -0.0773  0.6655
 7881SOL    HW227432   0.740   4.757   3.145  0.0270  0.4849  0.6791
 7882SOL     OW27433   4.478   4.896   9.946  0.9387  0.2408 -0.2635
 7882SOL    HW127434   4.446   4.823   9.998  0.3815  1.6311  1.4115
 7882SOL    HW227435   4.529   4.950  10.007  2.1521  0.7870 -1.6728
 7883SOL     OW27436   3.760   5.127   0.611  0.2578  0.1770  0.1866
 7883SOL    HW127437   3.683   5.132   0.554  0.9597  1.3894 -0.6927
 7883SOL    HW227438   3.820   5.070   0.565 -0.2727 -1.1675  1.1067
 7884SOL     OW27439   0.507   0.600   4.706  0.0656 -0.2996  0.3006
 7884SOL    HW127440   0.470   0.565   4.788 -0.8245  0.1061  0.0832
 7884SOL    HW227441   0.502   0.695   4.716 -1.9135 -0.2231 -1.0133
 7885SOL     OW27442   0.929   5.398   8.702  0.2000  0.2295  0.2034
 7885SOL    HW127443   1.020   5.381   8.726  0.7758  2.3287 -0.3160
 7885SOL    HW227444   0.892   5.440   8.780  0.1489  0.8698 -0.1622
 7886SOL     OW27445   3.345   5.530   4.044  0.3123  0.5177 -0.1606
 7886SOL    HW127446   3.301   5.612   4.069 -1.0107  0.7036 -2.7559
 7886SOL    HW227447   3.285   5.461   4.071  0.5387  0.5075  0.3217
 7887SOL     OW27448   6.677   6.581   5.926  0.1459 -0.1422 -0.0337
 7887SOL    HW127449   6.667   6.612   6.016 -1.6006  0.0999 -0.2745
 7887SOL    HW227450   6.644   6.653   5.872  1.0536 -0.3306 -0.8713
 7888SOL     OW27451   3.408   0.534   4.922  0.3681  0.1276 -0.4389
 7888SOL    HW127452   3.459   0.458   4.895  1.2232  0.2901  0.6231
 7888SOL    HW227453   3.438   0.605   4.866  1.6247  0.3075  0.4047
 7889SOL     OW27454   8.397   3.255   0.380 -0.7307  0.1971  0.3652
 7889SOL    HW127455   8.393   3.256   0.476  1.0039 -1.1254  0.5103
 7889SOL    HW227456   8.339   3.184   0.354  0.6407 -1.0852  0.6465
 7890SOL     OW27457   3.650   9.989   2.855  0.1593  0.7614 -0.0582
 7890SOL    HW127458   3.570   9.963   2.810  0.4213  0.3973 -0.3183
 7890SOL    HW227459   3.693   9.906   2.877  0.7337  0.9618 -0.4086
 7891SOL     OW27460   6.461   9.902   5.419  0.1969 -0.5881 -0.2289
 7891SOL    HW127461   6.456   9.960   5.495  0.7330  1.5806 -1.7440
 7891SOL    HW227462   6.521   9.832   5.445 -1.7527 -1.4794  2.2424
 7892SOL     OW27463   6.103   0.594   8.597  0.3876 -0.1771  0.0287
 7892SOL    HW127464   6.102   0.662   8.530  1.3771  1.0921  1.2394
 7892SOL    HW227465   6.155   0.523   8.559  1.1799  0.6409 -0.4502
 7893SOL     OW27466   5.334   6.624   0.786  0.8491 -0.1173 -0.4344
 7893SOL    HW127467   5.242   6.605   0.771 -0.0230  2.9936  0.2059
 7893SOL    HW227468   5.372   6.634   0.699  0.8600 -2.2509 -0.7223
 7894SOL     OW27469   9.592   8.454   0.012 -0.4604  0.4923 -0.0910
 7894SOL    HW127470   9.671   8.495  -0.023 -0.0159 -0.2896 -0.0331
 7894SOL    HW227471   9.528   8.525   0.018 -0.2103  0.8521 -1.4717
 7895SOL     OW27472   6.583   7.811   0.022 -0.8421 -0.1103  0.5147
 7895SOL    HW127473   6.613   7.865  -0.051  0.7790  0.3361  1.4359
 7895SOL    HW227474   6.567   7.725  -0.016 -3.0861  0.8612 -0.9114
 7896SOL     OW27475   0.299   8.543   9.693 -0.3143 -0.3974  0.1881
 7896SOL    HW127476   0.205   8.529   9.684 -1.1175  0.6516  4.8329
 7896SOL    HW227477   0.308   8.635   9.717  1.8608 -0.6065  0.4019
 7897SOL     OW27478   5.892   8.407  10.252  0.2656  0.7281  0.2895
 7897SOL    HW127479   5.926   8.379  10.337  0.7201  2.3264  0.6671
 7897SOL    HW227480   5.964   8.456  10.212 -0.1616  0.5368 -0.7476
 7898SOL     OW27481   0.711   7.712   3.228  0.1280 -0.4037  0.2231
 7898SOL    HW127482   0.705   7.704   3.324 -1.2488 -1.3399  0.0897
 7898SOL    HW227483   0.753   7.630   3.200  1.8297  0.4647  0.0966
 7899SOL     OW27484   4.006  10.032   6.295  0.0832  0.2113 -0.1031
 7899SOL    HW127485   3.961  10.109   6.329 -1.0906 -1.0667  1.4201
 7899SOL    HW227486   4.055  10.064   6.219  0.4491  2.6317  1.0495
 7900SOL     OW27487   2.176  10.006   5.890 -0.4138 -0.1734 -0.0042
 7900SOL    HW127488   2.261   9.981   5.854  0.3884  1.7004  0.4365
 7900SOL    HW227489   2.196  10.049   5.973 -1.6803  1.2356 -0.3688
 7901SOL     OW27490   5.300   0.899   1.190 -0.1977 -0.6538 -0.4469
 7901SOL    HW127491   5.263   0.975   1.235  2.1314  0.2019  0.1651
 7901SOL    HW227492   5.229   0.835   1.190 -2.4168  1.5984 -1.3506
 7902SOL     OW27493   1.466   3.421   5.859  0.2722  0.1438  0.4984
 7902SOL    HW127494   1.391   3.455   5.811  0.3892  0.5272  0.5849
 7902SOL    HW227495   1.541   3.468   5.823  0.5061 -0.4112  0.2429
 7903SOL     OW27496   7.695   0.590   6.451  0.2178 -1.1676  0.4746
 7903SOL    HW127497   7.608   0.552   6.443  0.0436 -0.6933 -0.0097
 7903SOL    HW227498   7.711   0.630   6.365  0.5578 -0.5079  0.8403
 7904SOL     OW27499   9.714   6.818   2.524 -0.1031  0.5467  0.4215
 7904SOL    HW127500   9.794   6.849   2.566  1.3080 -0.1448 -1.5946
 7904SOL    HW227501   9.719   6.853   2.435 -0.5438 -1.9241 -0.6554
 7905SOL     OW27502   4.587   5.963   9.322 -0.0681  0.0030  0.5306
 7905SOL    HW127503   4.597   5.896   9.255  1.3325 -0.0389  0.7473
 7905SOL    HW227504   4.593   6.046   9.274 -1.7539  0.0172  0.2694
 7906SOL     OW27505   4.707   7.656   9.882 -0.0147  0.0219 -0.2387
 7906SOL    HW127506   4.677   7.735   9.837  0.1726 -0.7441 -1.7720
 7906SOL    HW227507   4.799   7.674   9.904 -0.4674  0.8961  1.0364
 7907SOL     OW27508   2.674   3.844   6.202  0.1220 -0.3200  0.6359
 7907SOL    HW127509   2.598   3.786   6.202 -1.4489  1.6301  1.2609
 7907SOL    HW227510   2.703   3.845   6.111 -1.7149  0.2568  0.0097
 7908SOL     OW27511   7.385   1.663   0.947 -0.1140 -0.2775  0.1101
 7908SOL    HW127512   7.438   1.585   0.929 -1.2475 -1.0001 -0.1850
 7908SOL    HW227513   7.322   1.634   1.014  1.4650  1.2689  2.4271
 7909SOL     OW27514   8.091   3.131   0.807  0.2300 -0.3254 -0.0715
 7909SOL    HW127515   8.028   3.121   0.736  1.4049  2.0379 -1.5909
 7909SOL    HW227516   8.082   3.222   0.834  2.8305  0.0735 -0.2641
 7910SOL     OW27517   1.721   5.778   3.423 -0.1100  0.8117 -0.2605
 7910SOL    HW127518   1.811   5.809   3.431  1.0825 -2.3810  0.1970
 7910SOL    HW227519   1.684   5.790   3.510 -0.4875  2.8867 -0.6464
 7911SOL     OW27520   1.152   1.749   2.721  0.1458 -0.2195 -0.5394
 7911SOL    HW127521   1.155   1.792   2.635 -0.7439  1.0855  0.0560
 7911SOL    HW227522   1.088   1.799   2.770  1.8216  0.0970  1.4523
 7912SOL     OW27523   2.231   4.987   2.023  0.3470 -0.2354  1.0592
 7912SOL    HW127524   2.164   4.999   2.090 -0.6289  0.9880 -0.0845
 7912SOL    HW227525   2.243   5.074   1.985  0.3535 -1.0148 -0.8226
 7913SOL     OW27526   6.668   8.093   2.064 -0.0467  0.3377  0.7783
 7913SOL    HW127527   6.684   8.023   2.001  0.5287 -0.2148  1.5037
 7913SOL    HW227528   6.590   8.139   2.032 -0.8028 -1.0210  0.6153
 7914SOL     OW27529   1.146   1.115   4.257  0.4552  0.2136 -0.2452
 7914SOL    HW127530   1.184   1.115   4.169 -0.0172 -0.0016 -0.4505
 7914SOL    HW227531   1.060   1.156   4.246  0.8871  1.3125  0.3394
 7915SOL     OW27532   4.712   0.193   4.004  0.1156 -0.0972 -0.2174
 7915SOL    HW127533   4.765   0.188   4.083  1.6556 -1.7339 -1.2698
 7915SOL    HW227534   4.667   0.277   4.010  1.3801  0.5101  1.6292
 7916SOL     OW27535   7.435   2.635   0.599 -0.0435 -0.1295  0.2112
 7916SOL    HW127536   7.500   2.565   0.603 -0.5148 -0.6813 -1.2664
 7916SOL    HW227537   7.353   2.591   0.577 -0.5414  0.7793  0.1802
 7917SOL     OW27538   7.279  10.096   4.362 -0.6445 -0.0517 -0.0827
 7917SOL    HW127539   7.288  10.136   4.448  0.2123  2.4996 -1.2319
 7917SOL    HW227540   7.369  10.077   4.335 -0.7997  0.3376 -0.8970
 7918SOL     OW27541   9.828   8.589  10.359  0.5508 -0.4996  0.3138
 7918SOL    HW127542   9.884   8.645  10.305  1.0942 -0.2591  1.1139
 7918SOL    HW227543   9.884   8.561  10.431  0.2231 -1.9160  0.0434
 7919SOL     OW27544   3.104   9.263   3.407  0.2495  0.2003  0.4062
 7919SOL    HW127545   3.063   9.293   3.488  0.3398  0.8772  0.2013
 7919SOL    HW227546   3.034   9.215   3.362 -0.1102  0.7274  0.3956
 7920SOL     OW27547   8.724   1.061   0.043 -0.3018 -0.1271  0.1952
 7920SOL    HW127548   8.721   1.108  -0.041 -1.0082 -0.9973 -0.2887
 7920SOL    HW227549   8.774   0.982   0.024 -1.3830 -0.8596  0.2916
 7921SOL     OW27550   9.197   6.766   6.860  0.3317 -0.0992 -0.4155
 7921SOL    HW127551   9.199   6.742   6.953  0.8703 -0.7082 -0.5802
 7921SOL    HW227552   9.107   6.747   6.832  0.3642 -0.5932 -0.1929
 7922SOL     OW27553   0.021   1.819   9.632  0.3687  0.3793  0.2832
 7922SOL    HW127554   0.010   1.821   9.536 -0.9064  0.1682  0.4108
 7922SOL    HW227555   0.111   1.789   9.645  1.3952  2.6864 -0.8728
 7923SOL     OW27556   8.462   0.126   1.397 -0.0393 -0.1984 -0.4372
 7923SOL    HW127557   8.394   0.079   1.349  1.0189 -1.0504 -1.1619
 7923SOL    HW227558   8.543   0.082   1.373  0.6178 -0.2559  1.6647
 7924SOL     OW27559   3.738   1.020   9.334 -0.6509 -0.1679 -0.3742
 7924SOL    HW127560   3.680   1.086   9.371  2.0592  1.4466  1.3508
 7924SOL    HW227561   3.745   0.952   9.401  1.1064  0.7757  0.4804
 7925SOL     OW27562   5.784   7.266   8.148  0.3815 -0.2127 -0.6813
 7925SOL    HW127563   5.737   7.335   8.196 -0.1234 -0.9085 -0.1460
 7925SOL    HW227564   5.876   7.283   8.166  0.2053 -0.4931  0.6332
 7926SOL     OW27565   2.513   2.049   5.911  0.4749 -0.0976  0.3499
 7926SOL    HW127566   2.549   2.112   5.849 -0.8657  1.4867  1.0950
 7926SOL    HW227567   2.419   2.069   5.913  0.3408 -0.7563  2.1258
 7927SOL     OW27568   2.146   1.419   4.364 -0.1510 -0.1722 -0.1269
 7927SOL    HW127569   2.164   1.484   4.431 -0.1142  0.0271 -0.3267
 7927SOL    HW227570   2.206   1.347   4.382 -0.0071 -0.0358 -0.0630
 7928SOL     OW27571   2.604   2.352   0.169  0.0889 -0.1199  0.5545
 7928SOL    HW127572   2.601   2.442   0.138  3.3533 -0.2027 -0.3554
 7928SOL    HW227573   2.554   2.303   0.104 -1.6156  0.9405  0.9964
 7929SOL     OW27574   9.107   5.017   4.434  0.0186 -0.2955  0.2684
 7929SOL    HW127575   9.120   4.924   4.452  0.3972 -0.4755 -0.8367
 7929SOL    HW227576   9.122   5.060   4.518  0.1238 -1.2019  0.7291
 7930SOL     OW27577   4.523   3.194   3.123 -0.7498 -0.0742  0.1997
 7930SOL    HW127578   4.612   3.223   3.145 -0.3759 -0.8545 -0.2344
 7930SOL    HW227579   4.466   3.251   3.175  0.0655 -2.3312  3.9861
 7931SOL     OW27580   8.426   0.541   0.116 -0.2769  0.1636 -0.4300
 7931SOL    HW127581   8.337   0.527   0.085 -1.1227  1.1126  1.4045
 7931SOL    HW227582   8.430   0.635   0.135  1.0380  0.0938 -0.2683
 7932SOL     OW27583   8.774   4.133   3.697 -0.8907 -0.2876 -0.0808
 7932SOL    HW127584   8.685   4.128   3.661 -0.8491 -0.9377 -0.1078
 7932SOL    HW227585   8.764   4.105   3.788 -0.3390 -2.9239 -0.7447
 7933SOL     OW27586   3.281  10.328   4.417  0.4252 -0.7485  0.4238
 7933SOL    HW127587   3.352  10.392   4.406 -0.2884 -0.0954 -0.5397
 7933SOL    HW227588   3.271  10.289   4.330  0.1106 -1.3913  0.7444
 7934SOL     OW27589   5.809   5.127   4.916 -0.3204  0.2931 -0.1948
 7934SOL    HW127590   5.720   5.092   4.919 -0.0680 -0.4072 -0.6872
 7934SOL    HW227591   5.828   5.134   4.822 -0.1264  1.1386 -0.0959
 7935SOL     OW27592   3.290   0.386  10.054  0.3247  0.3133 -0.3256
 7935SOL    HW127593   3.315   0.387  10.146 -0.3690  1.1892 -0.1299
 7935SOL    HW227594   3.276   0.478  10.032  2.5043  0.3513 -1.8956
 7936SOL     OW27595   1.589   2.351   1.503 -0.0844  0.2015  0.4358
 7936SOL    HW127596   1.582   2.440   1.468 -1.0172 -1.2244 -3.5028
 7936SOL    HW227597   1.514   2.342   1.560 -0.5920  1.6067  0.0464
 7937SOL     OW27598   8.309   2.253   6.073 -0.0453 -0.0056  0.2045
 7937SOL    HW127599   8.303   2.337   6.119 -0.8203 -0.0242  0.1474
 7937SOL    HW227600   8.282   2.273   5.983  0.0253 -0.2603  0.1262
 7938SOL     OW27601   6.028   5.793   7.281 -0.5110 -0.0673 -0.0700
 7938SOL    HW127602   6.068   5.858   7.223  1.5426 -1.8169 -0.7301
 7938SOL    HW227603   5.978   5.737   7.223  0.0709 -0.7494  0.0730
 7939SOL     OW27604   9.063   1.849   3.240  0.4076 -0.0441  0.2766
 7939SOL    HW127605   9.051   1.837   3.145  0.4908 -1.6157  0.4287
 7939SOL    HW227606   9.157   1.864   3.250  0.8586 -2.4252  0.2707
 7940SOL     OW27607   0.478   1.764   0.367 -0.0179 -0.3897  0.4256
 7940SOL    HW127608   0.544   1.703   0.333  0.0865 -0.2959  0.4590
 7940SOL    HW227609   0.394   1.726   0.341  0.0714 -0.0139 -0.4668
 7941SOL     OW27610   3.135   9.930  10.357  0.3477 -0.1312  0.1441
 7941SOL    HW127611   3.070   9.872  10.396  1.2984 -0.7344  0.8771
 7941SOL    HW227612   3.217   9.881  10.360  0.3944 -0.5117 -3.3110
 7942SOL     OW27613   9.415  10.316   5.766  0.1565  0.1268 -0.2086
 7942SOL    HW127614   9.472  10.299   5.690  0.4613  0.1504  0.0099
 7942SOL    HW227615   9.401  10.411   5.764  0.2926  0.1488 -0.1470
 7943SOL     OW27616   9.303   2.120   8.630  0.2603  0.3732  0.2858
 7943SOL    HW127617   9.290   2.039   8.581 -1.4658 -0.1641  1.5232
 7943SOL    HW227618   9.251   2.185   8.583  0.5701  0.4464  0.0428
 7944SOL     OW27619   0.019   0.242   4.513  0.6337 -0.1105  0.0463
 7944SOL    HW127620  -0.009   0.279   4.429 -0.5583  0.7115  0.7803
 7944SOL    HW227621   0.081   0.306   4.548  0.7859 -0.2332  0.0029
 7945SOL     OW27622   2.211   0.501   9.264 -0.2618  0.1018 -0.0690
 7945SOL    HW127623   2.132   0.506   9.210  0.5141 -2.2884 -1.5755
 7945SOL    HW227624   2.271   0.566   9.226  0.5417 -2.0185 -2.7128
 7946SOL     OW27625   6.534   2.851   8.458  0.3611 -0.5329 -0.1470
 7946SOL    HW127626   6.444   2.876   8.434  0.1164 -0.9484  0.3294
 7946SOL    HW227627   6.538   2.866   8.552  0.5087 -1.3702 -0.0138
 7947SOL     OW27628   2.917   6.668   3.803 -0.1652  0.4588 -0.3609
 7947SOL    HW127629   2.888   6.606   3.736 -0.0989  0.9171 -0.8205
 7947SOL    HW227630   2.883   6.752   3.774 -0.7473  0.5523  0.5605
 7948SOL     OW27631   2.718   2.958   5.847  0.4945  0.3555 -0.2377
 7948SOL    HW127632   2.787   3.024   5.858 -0.0423  0.9137 -0.1913
 7948SOL    HW227633   2.663   2.992   5.777  0.8759 -0.6217 -1.0233
 7949SOL     OW27634   6.076   8.417   9.206 -0.0779  0.5708 -0.2470
 7949SOL    HW127635   6.152   8.393   9.152  1.1698  1.9568  0.7955
 7949SOL    HW227636   6.084   8.362   9.284 -0.8341 -0.1138 -0.6368
 7950SOL     OW27637   7.812   0.646   7.602  0.5331 -0.4639 -0.0093
 7950SOL    HW127638   7.891   0.680   7.560  1.1318 -2.1553 -0.3238
 7950SOL    HW227639   7.844   0.585   7.668 -0.4944 -1.8028 -0.6977
 7951SOL     OW27640   5.434   4.674   7.141  0.4166 -0.1688  0.2000
 7951SOL    HW127641   5.381   4.687   7.219  1.8315  2.1579  0.8424
 7951SOL    HW227642   5.513   4.629   7.173  0.2961 -0.6766 -0.1965
 7952SOL     OW27643   7.716   0.046   6.682 -0.0129 -0.3738  0.0620
 7952SOL    HW127644   7.768   0.079   6.609  1.1324 -0.2161  0.9186
 7952SOL    HW227645   7.633   0.018   6.642  0.1419  0.7470 -1.1184
 7953SOL     OW27646   6.991   0.920   3.810  0.0521  0.1772 -0.0714
 7953SOL    HW127647   6.965   0.830   3.828  1.0912 -0.1767 -0.2410
 7953SOL    HW227648   6.924   0.974   3.851  0.0161 -0.6571  1.0083
 7954SOL     OW27649   5.492   3.061   9.230 -0.0519 -0.0627 -0.6729
 7954SOL    HW127650   5.549   3.017   9.293  0.4813  1.1881 -0.2458
 7954SOL    HW227651   5.539   3.055   9.147  0.4203  0.4365 -0.4452
 7955SOL     OW27652   6.615  10.109   1.382  0.7766  0.3797  0.1638
 7955SOL    HW127653   6.672  10.066   1.318 -1.0199  3.6775 -4.1946
 7955SOL    HW227654   6.670  10.177   1.421  0.8456  1.2769 -1.3975
 7956SOL     OW27655   4.913   9.971   4.458  0.3889 -0.1315 -0.4995
 7956SOL    HW127656   4.940  10.027   4.386 -1.2207  1.0474 -0.2340
 7956SOL    HW227657   4.894   9.886   4.417  0.1499  0.3251 -1.3431
 7957SOL     OW27658   2.026   7.964   1.857 -0.4536  0.3848 -0.3754
 7957SOL    HW127659   2.113   7.998   1.879 -0.7612  0.9858 -0.0359
 7957SOL    HW227660   2.016   7.887   1.912  0.0953 -0.0338 -0.8502
 7958SOL     OW27661   8.327   3.147   2.364  0.6299 -0.6633  0.2429
 7958SOL    HW127662   8.242   3.120   2.329  1.1801 -1.5797 -0.4395
 7958SOL    HW227663   8.348   3.082   2.430 -0.1759  0.7921  2.0082
 7959SOL     OW27664  10.266   3.102   4.474  0.2030  0.3247 -0.8973
 7959SOL    HW127665  10.284   3.008   4.481 -0.0097  0.3906  1.3392
 7959SOL    HW227666  10.342   3.144   4.512 -0.1013  1.0318 -1.0495
 7960SOL     OW27667   8.281   6.870   2.292  0.4674  0.3463  0.5870
 7960SOL    HW127668   8.206   6.847   2.237  0.6878  1.2091 -0.0999
 7960SOL    HW227669   8.266   6.962   2.315  1.9770  0.9694 -0.6992
 7961SOL     OW27670   5.447   2.926  10.146  0.1379  0.2459  0.2498
 7961SOL    HW127671   5.355   2.901  10.140  0.0956  0.4384  0.0581
 7961SOL    HW227672   5.448   2.999  10.208 -0.1747  1.7934 -1.4842
 7962SOL     OW27673   3.275   8.367   1.138 -0.6063 -0.3450  0.1089
 7962SOL    HW127674   3.227   8.324   1.068 -1.2349  2.9525 -1.6784
 7962SOL    HW227675   3.207   8.403   1.195 -0.1528 -0.0371  0.4651
 7963SOL     OW27676   9.406   9.558   6.223  0.0667 -0.1173 -0.1941
 7963SOL    HW127677   9.458   9.638   6.224  2.1328 -1.3782  1.4656
 7963SOL    HW227678   9.448   9.503   6.157 -0.4272 -0.4032 -0.2742
 7964SOL     OW27679   0.616   9.538   7.923 -0.0258  0.8473 -0.3057
 7964SOL    HW127680   0.677   9.471   7.894  0.0282  1.0497 -0.6635
 7964SOL    HW227681   0.545   9.490   7.965  1.1893  0.6771  1.6996
 7965SOL     OW27682   1.915   5.649   8.711  0.7990  0.0973 -0.0310
 7965SOL    HW127683   1.965   5.654   8.629 -2.3889 -2.4978 -2.4217
 7965SOL    HW227684   1.939   5.564   8.748 -0.3240 -0.3125 -0.2034
 7966SOL     OW27685   5.622   1.817   5.606  0.0181  0.8226 -0.0279
 7966SOL    HW127686   5.620   1.910   5.630  2.4119  1.4726 -1.9501
 7966SOL    HW227687   5.571   1.811   5.526 -0.6158  0.3339  0.3991
 7967SOL     OW27688   0.238   2.032   4.489  0.1006 -0.2193 -0.6479
 7967SOL    HW127689   0.306   1.982   4.444  0.7652  0.6050 -0.5922
 7967SOL    HW227690   0.286   2.086   4.552 -0.8005 -1.2742  1.0074
 7968SOL     OW27691   5.390   7.988   3.898 -0.2740 -0.0589  0.4721
 7968SOL    HW127692   5.463   8.049   3.892 -0.8402  0.5072 -1.3105
 7968SOL    HW227693   5.430   7.903   3.913  0.7372  0.2814 -0.2143
 7969SOL     OW27694   5.037   0.770   1.658  0.2417  0.0526  0.6541
 7969SOL    HW127695   5.033   0.752   1.752  0.3166  0.0239  0.6515
 7969SOL    HW227696   4.992   0.695   1.617 -0.6631  0.5394  0.7219
 7970SOL     OW27697   4.829   4.588   5.744  0.6658 -0.0968  0.4676
 7970SOL    HW127698   4.790   4.504   5.719 -1.5590  1.3196 -1.1326
 7970SOL    HW227699   4.912   4.591   5.696 -0.3895 -0.3630 -1.4770
 7971SOL     OW27700   3.717   2.039   4.919  0.0693 -0.4267  0.2264
 7971SOL    HW127701   3.629   2.002   4.915 -0.2304  0.3256 -0.2100
 7971SOL    HW227702   3.735   2.069   4.830  0.8918 -0.8499  0.2374
 7972SOL     OW27703   7.077   1.827   1.034 -0.2195 -0.7585 -0.6012
 7972SOL    HW127704   7.008   1.807   0.972 -0.5351  2.0048 -1.2512
 7972SOL    HW227705   7.103   1.742   1.070 -2.7143 -2.0262 -1.6197
 7973SOL     OW27706   5.183   3.108   0.862 -0.1133  0.1031  0.0570
 7973SOL    HW127707   5.181   3.115   0.767 -0.5631  0.8573  0.1202
 7973SOL    HW227708   5.199   3.197   0.894 -1.5635  0.1574  0.7268
 7974SOL     OW27709  10.107   4.156   1.320  0.4139 -0.0790  0.5800
 7974SOL    HW127710  10.082   4.180   1.409  2.6264  1.7060  0.8068
 7974SOL    HW227711  10.201   4.176   1.315  0.6649 -1.4385 -1.7424
 7975SOL     OW27712   2.800   4.914   1.190  0.1916  0.2298  0.2039
 7975SOL    HW127713   2.871   4.908   1.127 -1.5924  1.0752 -2.0427
 7975SOL    HW227714   2.828   4.982   1.251  2.5822 -1.6045  1.2603
 7976SOL     OW27715   1.920  10.357   4.037  0.2768 -0.6175  0.9025
 7976SOL    HW127716   1.928  10.395   4.124 -2.0042  2.0004  0.1037
 7976SOL    HW227717   1.940  10.428   3.977 -0.2594 -1.7727 -0.7241
 7977SOL     OW27718   7.104   5.232   5.768 -0.3175  0.1841  0.4084
 7977SOL    HW127719   7.049   5.164   5.807 -0.6137  0.5456  0.6262
 7977SOL    HW227720   7.193   5.207   5.791 -0.5310  0.9048  2.1729
 7978SOL     OW27721   1.567   9.556   3.234  0.3193  0.0350 -0.8690
 7978SOL    HW127722   1.546   9.463   3.249 -0.3368  0.4139  0.6775
 7978SOL    HW227723   1.544   9.570   3.142 -1.9140 -0.7583 -0.4988
 7979SOL     OW27724   0.782   6.009   8.421  0.2184 -0.3220  0.6073
 7979SOL    HW127725   0.873   6.005   8.391 -0.4414  1.8975 -2.0758
 7979SOL    HW227726   0.737   5.941   8.371  0.1509 -0.5406  0.9609
 7980SOL     OW27727   5.570   4.952   9.679 -0.1547  0.2157  0.4848
 7980SOL    HW127728   5.589   4.936   9.587  0.2992  0.5854  0.5102
 7980SOL    HW227729   5.655   4.944   9.723 -0.6578 -2.1043  1.1992
 7981SOL     OW27730   5.588   2.033   3.371  0.3083 -0.0722  0.3149
 7981SOL    HW127731   5.522   2.099   3.394  1.4489  0.6860  1.4913
 7981SOL    HW227732   5.603   1.985   3.452  0.4352 -0.9493 -0.2191
 7982SOL     OW27733   2.997   4.918   1.807  0.3100 -0.4173 -0.5356
 7982SOL    HW127734   3.048   4.999   1.812 -3.2755  2.0336 -0.3321
 7982SOL    HW227735   2.995   4.897   1.713  0.2961  0.4339 -0.7341
 7983SOL     OW27736   1.910   8.250   3.131  0.2236 -0.2939 -0.0485
 7983SOL    HW127737   1.859   8.224   3.209  1.4255  0.5445  1.0578
 7983SOL    HW227738   2.001   8.246   3.160  0.7060 -0.0139 -1.4584
 7984SOL     OW27739   0.219   8.992   2.057 -0.3235  0.4501 -0.6406
 7984SOL    HW127740   0.130   9.026   2.051 -0.4695  0.3126  0.4362
 7984SOL    HW227741   0.208   8.898   2.074 -0.0413  0.6790  1.0554
 7985SOL     OW27742   5.304   4.062   7.430 -0.0671  0.2762 -0.2985
 7985SOL    HW127743   5.330   3.984   7.381 -1.2410  0.5544 -1.4058
 7985SOL    HW227744   5.229   4.097   7.382  0.8867  2.5375 -0.2682
 7986SOL     OW27745   8.941   5.785   8.807 -0.7202  0.1919  0.0784
 7986SOL    HW127746   8.868   5.723   8.812 -1.2702  0.8766  0.7147
 7986SOL    HW227747   8.928   5.844   8.882  1.5397 -0.8049  1.3497
 7987SOL     OW27748   2.799   0.524   0.309 -0.1703  0.1857 -0.1761
 7987SOL    HW127749   2.791   0.594   0.374 -0.3664  0.6217 -0.6642
 7987SOL    HW227750   2.734   0.546   0.242  0.0593 -0.2346 -0.5411
 7988SOL     OW27751  10.361   4.775  10.296 -0.3107  0.7079  0.4978
 7988SOL    HW127752  10.343   4.798  10.388 -2.9757 -0.9216  0.4851
 7988SOL    HW227753  10.452   4.745  10.296 -0.4466  0.0939  2.7728
 7989SOL     OW27754   5.654   1.116   1.091  0.0300 -0.2558 -0.2567
 7989SOL    HW127755   5.733   1.168   1.105 -0.5450  0.1709  1.6474
 7989SOL    HW227756   5.671   1.034   1.138 -0.2910 -0.5371 -0.6260
 7990SOL     OW27757   2.296   5.481   8.998  0.0720  0.3490  0.5117
 7990SOL    HW127758   2.279   5.487   9.092  0.6619 -0.4910  0.6864
 7990SOL    HW227759   2.208   5.475   8.959 -0.1695  0.4135  1.0351
 7991SOL     OW27760   6.677   0.714   1.662  0.0221 -0.3810 -0.4623
 7991SOL    HW127761   6.718   0.801   1.654  1.3543 -1.1368 -2.8516
 7991SOL    HW227762   6.742   0.654   1.627 -1.0756 -2.3287  0.6918
 7992SOL     OW27763   0.157   4.178   1.878 -0.2051  0.3353 -0.8828
 7992SOL    HW127764   0.139   4.271   1.862  0.9029  0.3212 -2.3964
 7992SOL    HW227765   0.106   4.157   1.956 -1.9433  1.7618 -1.5640
 7993SOL     OW27766   1.888   1.512   6.380  0.2496  0.0022 -0.2422
 7993SOL    HW127767   1.928   1.447   6.322 -0.4315  0.2613 -1.0256
 7993SOL    HW227768   1.813   1.467   6.418  0.5936 -0.1109  0.3008
 7994SOL     OW27769   2.681   0.135   9.713 -0.3792  0.4809  0.1797
 7994SOL    HW127770   2.626   0.178   9.647  0.5906  1.6967  0.1433
 7994SOL    HW227771   2.728   0.206   9.756  0.9086 -0.5079  0.4564
 7995SOL     OW27772   9.717   5.720   8.897 -0.0016 -0.0937  0.3429
 7995SOL    HW127773   9.736   5.671   8.977  0.3564  0.0676  0.3581
 7995SOL    HW227774   9.802   5.753   8.868  0.0461 -1.0930 -0.7296
 7996SOL     OW27775   1.419   5.646   1.815 -0.3572  0.4391  0.6032
 7996SOL    HW127776   1.327   5.649   1.840  0.0143 -1.6898  2.5490
 7996SOL    HW227777   1.435   5.555   1.793  0.8786  1.1199 -1.6016
 7997SOL     OW27778   1.080   0.858   7.864  0.2242  0.3551  0.2246
 7997SOL    HW127779   1.011   0.822   7.807  0.5133 -0.0609  0.1388
 7997SOL    HW227780   1.114   0.783   7.911  0.7512  0.5341  0.1308
 7998SOL     OW27781   7.961   9.562   5.880 -0.2183 -0.0440 -0.4278
 7998SOL    HW127782   8.049   9.585   5.909 -0.6143 -0.0109  0.8123
 7998SOL    HW227783   7.903   9.623   5.926 -1.0005 -1.1061  0.0416
 7999SOL     OW27784   0.896   0.185   5.782 -0.8306  0.4069  0.3227
 7999SOL    HW127785   0.938   0.260   5.824  0.2799  0.6370 -1.1256
 7999SOL    HW227786   0.928   0.187   5.692 -4.9247  1.3769 -1.3301
 8000SOL     OW27787   4.038   1.049   8.838 -0.1055  0.2819  0.0465
 8000SOL    HW127788   4.075   1.091   8.916 -0.9700  1.1605  0.0040
 8000SOL    HW227789   3.944   1.069   8.842 -0.1173  0.6227 -1.3818
 8001SOL     OW27790   8.623   3.796   4.730 -0.3934 -0.5364 -0.1157
 8001SOL    HW127791   8.620   3.736   4.805  0.5345 -0.4964 -0.0389
 8001SOL    HW227792   8.531   3.817   4.713 -0.7609 -2.1309 -0.2639
 8002SOL     OW27793  10.181   0.625   9.943  0.1194 -0.5961  0.4742
 8002SOL    HW127794  10.128   0.553   9.976 -1.4493 -0.0275 -0.6668
 8002SOL    HW227795  10.141   0.703   9.981 -0.8483 -0.0449 -1.5516
 8003SOL     OW27796  10.255   8.498   7.568  0.8058  0.6296 -0.9353
 8003SOL    HW127797  10.197   8.541   7.631  1.5173 -0.2722  0.4021
 8003SOL    HW227798  10.198   8.471   7.496  0.0678  2.2219 -0.9840
 8004SOL     OW27799   6.908   7.642   2.109 -0.0677  0.3813 -0.3934
 8004SOL    HW127800   6.968   7.614   2.038  0.2936 -1.0786  0.4461
 8004SOL    HW227801   6.966   7.664   2.181 -0.3606  3.1633 -0.9055
 8005SOL     OW27802   7.900   6.009   4.374  0.5203  0.7635 -0.4974
 8005SOL    HW127803   7.994   6.011   4.355  0.8977  0.5665  1.1924
 8005SOL    HW227804   7.893   6.037   4.466 -1.0499  0.4792 -0.4918
 8006SOL     OW27805  10.170   0.862   1.117  0.0447  0.1132 -0.2473
 8006SOL    HW127806  10.152   0.868   1.211 -1.6533  1.3909 -0.6146
 8006SOL    HW227807  10.244   0.801   1.111 -0.1239 -0.3793  1.8703
 8007SOL     OW27808   3.605   1.228   7.778 -0.8370 -0.0874  0.3479
 8007SOL    HW127809   3.646   1.284   7.712 -0.5332 -0.0270  0.5849
 8007SOL    HW227810   3.669   1.224   7.849 -0.7771 -0.8865  0.2549
 8008SOL     OW27811   9.972   3.142   7.678 -0.2238  0.0266  0.2825
 8008SOL    HW127812   9.883   3.152   7.711 -0.3497  1.8713 -0.4914
 8008SOL    HW227813   9.980   3.209   7.610  1.2673 -1.0981 -0.7402
 8009SOL     OW27814   4.736   7.447   6.167  0.3797  0.2509  0.5767
 8009SOL    HW127815   4.747   7.453   6.072  2.4386 -0.5409  0.7289
 8009SOL    HW227816   4.760   7.357   6.189  0.4616  0.5835  1.9281
 8010SOL     OW27817   5.172   4.355   3.341 -0.0623  0.0792  0.0860
 8010SOL    HW127818   5.104   4.317   3.397 -0.5983  1.4478  0.4134
 8010SOL    HW227819   5.246   4.371   3.400 -0.4194  0.9932  0.2995
 8011SOL     OW27820   9.207   3.824   0.844 -0.8782  0.5458  0.1712
 8011SOL    HW127821   9.175   3.760   0.907 -1.7057  0.5998 -0.1794
 8011SOL    HW227822   9.298   3.799   0.829 -1.4806 -1.2801 -0.8218
 8012SOL     OW27823   5.871   4.520   3.010  0.1294 -0.4458 -0.1045
 8012SOL    HW127824   5.923   4.486   2.937  0.6663  1.0711 -0.4450
 8012SOL    HW227825   5.925   4.504   3.088  1.3670  1.5128 -0.4992
 8013SOL     OW27826   8.121   1.406   3.496 -0.1464 -0.6321 -0.2111
 8013SOL    HW127827   8.192   1.467   3.514 -0.1277 -0.5325 -0.6079
 8013SOL    HW227828   8.114   1.405   3.400 -0.7102 -0.6042 -0.1734
 8014SOL     OW27829   2.707   0.983   2.996 -0.0679  0.1914  0.2016
 8014SOL    HW127830   2.763   1.013   2.924  0.5244  0.5526  0.8024
 8014SOL    HW227831   2.645   1.055   3.009  0.5418  0.6307  0.7882
 8015SOL     OW27832   0.945   5.933   2.760  0.1352 -0.0026  0.4955
 8015SOL    HW127833   1.007   5.870   2.723 -0.8640 -1.3380  0.9852
 8015SOL    HW227834   0.999   5.995   2.808  1.3056  0.5748 -1.4430
 8016SOL     OW27835   9.223   2.769   8.699 -0.3839 -0.6832 -0.5947
 8016SOL    HW127836   9.207   2.863   8.700 -0.7273 -0.7479  0.7687
 8016SOL    HW227837   9.137   2.730   8.684 -0.0809 -0.7790 -2.3500
 8017SOL     OW27838   0.474   0.228   1.550  0.0017 -0.1729  0.0216
 8017SOL    HW127839   0.427   0.202   1.629  0.0734  1.3247  0.5911
 8017SOL    HW227840   0.406   0.260   1.491  0.1024  0.1812  0.0939
 8018SOL     OW27841   7.928   3.066   0.552 -0.2631  0.2259 -0.6624
 8018SOL    HW127842   7.972   2.982   0.563 -0.8738  0.0130  0.4235
 8018SOL    HW227843   7.834   3.045   0.558 -0.5082  1.3544  4.1228
 8019SOL     OW27844   7.026   9.422   8.125 -0.6978  0.0668 -0.2444
 8019SOL    HW127845   7.088   9.386   8.189 -2.5636 -0.6405  1.2842
 8019SOL    HW227846   7.010   9.350   8.064  0.4661  0.4776 -1.0634
 8020SOL     OW27847   0.775   3.468   1.394 -0.1165  0.5729 -0.0430
 8020SOL    HW127848   0.776   3.372   1.396  0.1629  0.5798  0.2333
 8020SOL    HW227849   0.851   3.492   1.341  0.9014  0.6682  1.3946
 8021SOL     OW27850   3.454   2.948   9.252 -0.2069  0.8002  0.2502
 8021SOL    HW127851   3.468   2.972   9.160  0.2316  1.3172  0.4460
 8021SOL    HW227852   3.476   3.027   9.301 -0.9134  0.6867  0.7779
 8022SOL     OW27853   2.592   4.585   6.269 -0.6165 -0.2110 -1.3714
 8022SOL    HW127854   2.561   4.582   6.179 -1.3511  0.5343 -1.1570
 8022SOL    HW227855   2.512   4.585   6.322 -0.2529  1.0729 -0.7815
 8023SOL     OW27856   6.271   5.221   4.974  0.5740 -0.1026 -0.2687
 8023SOL    HW127857   6.239   5.161   5.041  0.1063 -1.5420 -1.7070
 8023SOL    HW227858   6.316   5.290   5.023 -0.1626 -0.8305  1.5276
 8024SOL     OW27859   7.134   0.253   9.833  0.1845 -0.0779 -0.0999
 8024SOL    HW127860   7.130   0.288   9.922 -0.5967 -1.0057  0.2560
 8024SOL    HW227861   7.210   0.194   9.835 -1.6377 -2.5640  0.9524
 8025SOL     OW27862   6.399   0.520   1.274 -0.3124  0.5549 -0.5376
 8025SOL    HW127863   6.420   0.470   1.195 -0.0627  1.4660 -1.0670
 8025SOL    HW227864   6.348   0.460   1.328 -0.7058 -0.0023 -1.5057
 8026SOL     OW27865   3.356   6.642   0.256  0.4177 -0.1645  0.0458
 8026SOL    HW127866   3.437   6.633   0.206  0.7150  0.1558  0.4632
 8026SOL    HW227867   3.303   6.567   0.229  0.1814  0.5122 -1.4477
 8027SOL     OW27868   1.662   0.837   4.069  0.0518  0.9324 -0.1031
 8027SOL    HW127869   1.721   0.873   4.003 -0.5059  0.7957 -0.6850
 8027SOL    HW227870   1.614   0.912   4.102  1.3234  1.2207  1.1924
 8028SOL     OW27871   6.134   2.899  10.239  0.1242 -0.1943  0.2012
 8028SOL    HW127872   6.068   2.923  10.174  0.7594 -1.7431 -1.0897
 8028SOL    HW227873   6.094   2.825  10.286  0.0738  0.2734  0.8992
 8029SOL     OW27874   1.570   5.558   2.072  0.2387  0.0797  0.0896
 8029SOL    HW127875   1.659   5.535   2.047 -0.3030 -1.3177 -0.6897
 8029SOL    HW227876   1.561   5.650   2.046  1.2634  0.0709 -0.3627
 8030SOL     OW27877   8.608   9.108   9.981 -0.0805  0.5244  0.4495
 8030SOL    HW127878   8.609   9.013   9.968 -0.2082  0.7091 -1.1066
 8030SOL    HW227879   8.534   9.123  10.040 -0.5779 -0.2755  0.0556
 8031SOL     OW27880   8.061   9.308   8.384  0.4513  0.4533 -0.1875
 8031SOL    HW127881   8.088   9.398   8.405  0.7964 -0.0157  1.5083
 8031SOL    HW227882   8.086   9.296   8.293  2.5316  1.3162  0.2114
 8032SOL     OW27883  10.102   0.093   3.303  0.1288 -0.4088  0.2329
 8032SOL    HW127884  10.088   0.184   3.328 -0.4428 -0.3468 -0.3012
 8032SOL    HW227885  10.194   0.089   3.276 -0.2019  0.3295 -1.0629
 8033SOL     OW27886   2.259   8.833   9.959 -0.8931  0.0159 -0.4414
 8033SOL    HW127887   2.290   8.749   9.993 -0.4281  0.6914  0.9049
 8033SOL    HW227888   2.185   8.811   9.903 -1.5441 -1.2250  0.8447
 8034SOL     OW27889   4.888   9.287   7.275  0.0178 -0.3965  0.2472
 8034SOL    HW127890   4.956   9.239   7.322 -0.7287 -1.2253  0.5058
 8034SOL    HW227891   4.820   9.301   7.341 -1.1148 -1.6982 -0.5908
 8035SOL     OW27892   3.370   8.056   4.420  0.0865 -0.1174 -0.3157
 8035SOL    HW127893   3.312   8.010   4.479  0.0350 -1.7206 -1.5357
 8035SOL    HW227894   3.317   8.072   4.341  0.4668  0.9774 -0.3671
 8036SOL     OW27895   8.836   6.435   1.846  0.3120 -0.3550 -0.4687
 8036SOL    HW127896   8.878   6.394   1.771  0.6149 -1.0115  0.0451
 8036SOL    HW227897   8.866   6.384   1.921  0.4053  0.5827  0.1548
 8037SOL     OW27898   2.956   7.779   8.562  0.5764  0.4462 -0.8192
 8037SOL    HW127899   2.988   7.869   8.558 -0.9572  1.0278 -0.6886
 8037SOL    HW227900   2.867   7.784   8.526 -0.5397 -0.5009  1.6096
 8038SOL     OW27901   8.651   0.903   7.823 -0.0800  0.6782  0.0658
 8038SOL    HW127902   8.667   0.917   7.730  0.0424 -0.1369 -0.0449
 8038SOL    HW227903   8.688   0.816   7.841 -1.9487 -0.1045  0.4005
 8039SOL     OW27904   2.317   8.760   7.729 -0.0556 -0.8231 -0.4220
 8039SOL    HW127905   2.281   8.833   7.679 -0.4336 -0.1798  0.7588
 8039SOL    HW227906   2.350   8.800   7.809 -2.9922 -2.2373  1.6877
 8040SOL     OW27907   4.974   6.025   0.209  0.3786  0.1879  0.3312
 8040SOL    HW127908   5.053   5.973   0.223  0.0826 -0.3880 -0.1053
 8040SOL    HW227909   4.907   5.979   0.259  0.1726  0.3082  0.1648
 8041SOL     OW27910   1.047   1.536   5.055 -0.7068  0.8169  0.7351
 8041SOL    HW127911   1.026   1.524   5.147 -0.1790  0.8190  0.8576
 8041SOL    HW227912   0.971   1.583   5.019 -0.3710  1.9116  1.4386
 8042SOL     OW27913   0.954   7.533   4.577  0.0742 -0.1674 -0.4438
 8042SOL    HW127914   1.031   7.501   4.530  0.5110  0.3971 -0.1304
 8042SOL    HW227915   0.901   7.455   4.592  0.5008 -0.5382 -0.8205
 8043SOL     OW27916   9.687   4.422   9.238 -0.2184  0.1900 -0.2892
 8043SOL    HW127917   9.773   4.401   9.201  0.9538  2.2688  1.0710
 8043SOL    HW227918   9.672   4.354   9.303  0.5635 -0.0030 -0.2967
 8044SOL     OW27919   1.356   6.323   5.181  0.4388 -0.1957  0.1452
 8044SOL    HW127920   1.341   6.325   5.275 -0.1324 -0.1495  0.0582
 8044SOL    HW227921   1.390   6.235   5.164 -2.2053 -1.2877  0.0215
 8045SOL     OW27922   4.914   2.597   3.182 -0.2586 -0.1621 -0.5472
 8045SOL    HW127923   4.970   2.675   3.188 -0.8376  0.2257 -0.0925
 8045SOL    HW227924   4.967   2.533   3.135  0.3703  0.3803 -0.5879
 8046SOL     OW27925   2.862   1.899   7.667  0.3208 -0.0617 -0.0046
 8046SOL    HW127926   2.777   1.923   7.704  0.8146 -0.7289  1.6474
 8046SOL    HW227927   2.841   1.864   7.580 -1.1523 -0.7055  0.5726
 8047SOL     OW27928   9.438   2.534   8.602  0.0600  0.3141  1.1022
 8047SOL    HW127929   9.446   2.618   8.648 -1.8406  0.6631  0.8686
 8047SOL    HW227930   9.483   2.549   8.519 -1.3146  1.5642  0.5298
 8048SOL     OW27931   9.242   4.051   5.475  0.2316 -0.0555 -0.1744
 8048SOL    HW127932   9.300   4.038   5.400 -0.5076  0.7948 -0.9218
 8048SOL    HW227933   9.267   4.137   5.510 -1.1650  0.7532 -1.0781
 8049SOL     OW27934   5.730   2.761   2.782 -0.4055 -0.0154  0.2080
 8049SOL    HW127935   5.678   2.796   2.855 -1.9180  0.6547 -1.1290
 8049SOL    HW227936   5.769   2.839   2.742 -0.2949 -0.2982 -0.2352
 8050SOL     OW27937   8.342  10.338   4.232  0.1572 -0.7003  0.1719
 8050SOL    HW127938   8.353  10.248   4.263  0.5100 -0.6337  0.2513
 8050SOL    HW227939   8.426  10.359   4.190  0.7889  0.2341  1.8222
 8051SOL     OW27940   0.641   1.432   0.963 -0.3765  0.0791 -0.0816
 8051SOL    HW127941   0.568   1.418   0.903  0.9940  0.2029 -1.8496
 8051SOL    HW227942   0.694   1.353   0.955 -0.1267  0.1316  0.9282
 8052SOL     OW27943   9.386   0.116   3.212  0.3544  0.3982 -0.0240
 8052SOL    HW127944   9.392   0.207   3.241  0.4546  1.0386 -1.9159
 8052SOL    HW227945   9.454   0.071   3.261  1.0921  1.5969  0.0978
 8053SOL     OW27946   2.948   2.721   3.011 -0.0113  0.3474 -0.4304
 8053SOL    HW127947   2.922   2.679   2.929  1.0390 -1.6582  0.1871
 8053SOL    HW227948   3.035   2.757   2.994  0.9112 -1.4699  0.1843
 8054SOL     OW27949   1.954   9.435   0.287  0.2636  0.0119  0.1848
 8054SOL    HW127950   1.867   9.466   0.263  0.4463  0.1720 -0.2731
 8054SOL    HW227951   1.938   9.372   0.357 -0.2214  0.0223  0.0881
 8055SOL     OW27952   0.860   1.389   4.772  0.1275 -0.3209 -0.6232
 8055SOL    HW127953   0.849   1.331   4.697  0.8763  1.1586 -1.9391
 8055SOL    HW227954   0.881   1.474   4.734  2.7041  0.0344  1.2759
 8056SOL     OW27955   7.605   6.180   5.768  0.0113 -0.2772  0.9752
 8056SOL    HW127956   7.630   6.256   5.714 -1.4407  0.1820  0.9150
 8056SOL    HW227957   7.663   6.186   5.844  0.5320  0.3781  0.5466
 8057SOL     OW27958   0.428   5.767   5.064  0.1988 -0.6644  0.8631
 8057SOL    HW127959   0.511   5.779   5.109 -0.0807 -0.4394  1.3280
 8057SOL    HW227960   0.446   5.701   4.997  1.6317  1.6969 -1.2877
 8058SOL     OW27961   1.790  10.311   1.261  0.5936  0.7117  0.9859
 8058SOL    HW127962   1.776  10.356   1.178 -0.8570  1.2526  1.5001
 8058SOL    HW227963   1.821  10.223   1.236  2.1591  1.5107 -0.0465
 8059SOL     OW27964   8.423   5.028   7.983 -0.1731 -0.0689 -0.2206
 8059SOL    HW127965   8.380   5.099   7.935  0.6177  2.2843  2.2616
 8059SOL    HW227966   8.360   5.005   8.052 -0.3268 -1.6992 -0.8738
 8060SOL     OW27967  10.075   6.140   7.217 -0.2778 -0.4715  0.1097
 8060SOL    HW127968  10.072   6.140   7.312 -0.0621 -1.6933  0.1262
 8060SOL    HW227969  10.088   6.049   7.193  1.2769 -0.0017 -1.0344
 8061SOL     OW27970  10.353   4.471   3.777  0.1561  0.1651  0.4045
 8061SOL    HW127971  10.258   4.469   3.790  0.2323 -0.2229  0.9694
 8061SOL    HW227972  10.372   4.391   3.728  0.2828 -0.1816  1.0105
 8062SOL     OW27973   3.966   7.324   0.657  0.1083 -0.8312  0.4582
 8062SOL    HW127974   3.935   7.388   0.722 -0.5431 -0.9111  0.2305
 8062SOL    HW227975   3.941   7.361   0.573 -1.4749 -2.0068  0.3833
 8063SOL     OW27976   5.167   9.536   1.923 -0.0463 -0.3551  0.3163
 8063SOL    HW127977   5.096   9.491   1.878 -3.0734  4.4249 -0.3918
 8063SOL    HW227978   5.219   9.575   1.853 -0.2485  0.9517  0.8743
 8064SOL     OW27979   0.252   0.173   3.958 -0.0835  0.0028 -0.1197
 8064SOL    HW127980   0.190   0.123   3.906  0.4350 -0.0365 -0.7211
 8064SOL    HW227981   0.220   0.263   3.955  0.1673  0.0743 -0.8731
 8065SOL     OW27982   1.240   8.520   8.675  0.5097  0.2942  0.7590
 8065SOL    HW127983   1.167   8.471   8.638  0.2855  0.8557  0.4556
 8065SOL    HW227984   1.314   8.498   8.619  0.0111  1.7498 -0.5429
 8066SOL     OW27985   6.280   5.243   6.376  0.0764 -0.0184 -0.8182
 8066SOL    HW127986   6.235   5.308   6.323  1.5153 -0.5459 -2.8127
 8066SOL    HW227987   6.348   5.292   6.422 -2.6309  0.8779  2.6250
 8067SOL     OW27988   1.239   5.717   8.775  0.1420 -0.2913  0.3178
 8067SOL    HW127989   1.297   5.658   8.725  0.7992 -0.8282  1.6572
 8067SOL    HW227990   1.163   5.729   8.719 -0.0598 -2.5230  0.0200
 8068SOL     OW27991   1.624   5.333   2.454  0.3735 -0.2762 -0.3243
 8068SOL    HW127992   1.665   5.248   2.473  0.9994 -0.1239 -0.9577
 8068SOL    HW227993   1.698   5.394   2.445 -0.0963  0.5309  0.9592
 8069SOL     OW27994   4.432   4.515   0.919  0.2724 -0.2830  0.0538
 8069SOL    HW127995   4.415   4.603   0.884  1.4733 -0.4131 -0.9479
 8069SOL    HW227996   4.514   4.489   0.877  0.4567 -1.4831  1.1157
 8070SOL     OW27997   5.776   1.261   2.463 -0.3919 -0.7664 -1.0474
 8070SOL    HW127998   5.684   1.239   2.447 -0.7133 -0.2334 -0.0140
 8070SOL    HW227999   5.774   1.351   2.496  0.5164 -0.6987 -1.1463
 8071SOL     OW28000   0.176   8.377   7.583 -0.4358  0.1022 -0.1439
 8071SOL    HW128001   0.203   8.419   7.501  0.9428  1.0524  0.7614
 8071SOL    HW228002   0.081   8.376   7.579 -0.4065  0.6017 -1.5169
 8072SOL     OW28003   8.754   4.324   8.860 -0.6075 -0.0062 -0.4796
 8072SOL    HW128004   8.687   4.332   8.792 -1.5449 -0.8661  0.3088
 8072SOL    HW228005   8.726   4.386   8.928 -1.5076 -1.4842  0.5454
 8073SOL     OW28006   7.535   9.478   4.925 -0.7748 -0.1143  0.1571
 8073SOL    HW128007   7.442   9.486   4.945 -0.9782 -0.1564 -0.7296
 8073SOL    HW228008   7.539   9.479   4.829  0.3699  3.0117  0.1128
 8074SOL     OW28009   0.584   6.413   5.328  0.3219 -0.2318 -0.1830
 8074SOL    HW128010   0.637   6.410   5.248  3.1141 -0.0918  1.5144
 8074SOL    HW228011   0.629   6.476   5.384 -0.5561 -1.5525  2.1358
 8075SOL     OW28012   7.071   7.555   3.781 -0.1909  0.3785  0.0565
 8075SOL    HW128013   6.982   7.551   3.746  0.4354 -0.7400 -1.5317
 8075SOL    HW228014   7.077   7.479   3.839  0.4407 -1.1028 -1.8130
 8076SOL     OW28015   7.424   4.917   5.641 -0.0795 -0.1506 -0.6403
 8076SOL    HW128016   7.398   4.994   5.692  0.6473 -0.3412  0.0447
 8076SOL    HW228017   7.513   4.899   5.670  0.8158  0.4383 -2.8467
 8077SOL     OW28018   9.070   1.096   2.861 -0.0729  0.4562 -0.1052
 8077SOL    HW128019   9.157   1.056   2.853 -1.0376 -1.7863 -0.2875
 8077SOL    HW228020   9.059   1.109   2.956 -0.3899 -1.4770  0.1752
 8078SOL     OW28021   0.498   4.735   6.291 -0.5937  0.2328  0.0172
 8078SOL    HW128022   0.531   4.721   6.380 -0.0502  2.4273  0.2330
 8078SOL    HW228023   0.406   4.759   6.302 -0.3935  1.0257  0.0763
 8079SOL     OW28024   4.074   9.927   7.811  0.2194  0.2114  0.5250
 8079SOL    HW128025   4.071   9.837   7.777 -0.4282 -0.2748  1.7846
 8079SOL    HW228026   3.982   9.954   7.813  0.5267  1.5258 -1.3533
 8080SOL     OW28027   7.410   7.331   5.152  0.4466 -0.4020 -0.3725
 8080SOL    HW128028   7.375   7.243   5.165  0.9437 -0.7815 -1.4750
 8080SOL    HW228029   7.504   7.317   5.140  1.0094  0.5591  2.2228
 8081SOL     OW28030   6.249   6.472   8.332  0.6932  0.2862 -0.0327
 8081SOL    HW128031   6.318   6.416   8.295 -0.1634 -1.1613  0.4678
 8081SOL    HW228032   6.174   6.413   8.343 -0.4234  1.6668  0.0625
 8082SOL     OW28033   9.064   4.791   3.711 -0.3353 -0.4451  0.6542
 8082SOL    HW128034   9.123   4.762   3.641 -1.1217 -0.3978 -0.0409
 8082SOL    HW228035   9.003   4.851   3.668 -0.8043 -0.3781  1.3920
 8083SOL     OW28036   2.231   1.046   7.198 -0.7999  0.2522  0.1399
 8083SOL    HW128037   2.253   1.131   7.162 -0.5486  0.6303  1.1600
 8083SOL    HW228038   2.258   1.050   7.289 -1.2762 -0.7331  0.3451
 8084SOL     OW28039   4.647   4.218   9.201  0.0122 -0.1174 -0.1113
 8084SOL    HW128040   4.688   4.254   9.123  0.1064  0.1289  0.0522
 8084SOL    HW228041   4.604   4.293   9.243  0.8477 -0.0406  0.6298
 8085SOL     OW28042   9.573   5.518   6.397 -0.2554 -0.0040 -0.4540
 8085SOL    HW128043   9.653   5.477   6.365 -0.1281  1.5295 -2.2327
 8085SOL    HW228044   9.596   5.610   6.411 -1.2501  0.0928  0.7951
 8086SOL     OW28045   8.387   6.675   6.474  0.6034 -0.1342 -0.2345
 8086SOL    HW128046   8.481   6.663   6.489  0.8333 -1.2757 -2.2232
 8086SOL    HW228047   8.345   6.636   6.551  1.7076  2.6030  1.9347
 8087SOL     OW28048   5.737   5.850   3.174 -0.6526 -0.5032  0.2782
 8087SOL    HW128049   5.803   5.782   3.161  0.9230  1.1474 -0.8949
 8087SOL    HW228050   5.662   5.804   3.211 -0.4300 -3.2816 -2.2720
 8088SOL     OW28051   7.922   5.519   2.619  0.4830  0.1993 -0.1897
 8088SOL    HW128052   7.867   5.487   2.548  1.5747  0.4458 -1.1748
 8088SOL    HW228053   7.997   5.560   2.576  2.0404 -1.1384  1.0832
 8089SOL     OW28054   9.611   4.553   8.970 -0.4225  0.2997  0.2404
 8089SOL    HW128055   9.523   4.583   8.947  0.1358  1.5938 -0.3328
 8089SOL    HW228056   9.603   4.520   9.059 -1.5829 -0.0832  0.0114
 8090SOL     OW28057   8.277   1.542   7.543  0.3110 -0.6599  0.3714
 8090SOL    HW128058   8.264   1.511   7.453  4.2316 -0.3525 -0.4998
 8090SOL    HW228059   8.221   1.619   7.550  0.4823 -0.2268 -2.1461
 8091SOL     OW28060   3.361   4.813   3.895  0.4604 -0.1782  0.5567
 8091SOL    HW128061   3.319   4.754   3.958  0.8152  0.4312  1.3794
 8091SOL    HW228062   3.290   4.868   3.863 -0.0785 -1.6796 -0.9898
 8092SOL     OW28063   3.152   8.406   4.995 -0.1032  0.3948  0.2795
 8092SOL    HW128064   3.058   8.392   4.985  0.0738 -1.3864  0.7181
 8092SOL    HW228065   3.167   8.494   4.962 -1.1883 -0.9173 -4.6164
 8093SOL     OW28066   7.335   4.661  10.328  0.6215 -0.3958 -0.3560
 8093SOL    HW128067   7.240   4.652  10.321  0.5996 -0.3448 -0.1325
 8093SOL    HW228068   7.367   4.651  10.238  0.3007  0.7519 -0.6123
 8094SOL     OW28069   0.820   7.523   9.130  1.1632 -0.1235 -0.4568
 8094SOL    HW128070   0.808   7.515   9.224  0.0582 -0.7333 -0.6316
 8094SOL    HW228071   0.882   7.453   9.107  2.6317  0.9842  0.0080
 8095SOL     OW28072   6.247   5.044   3.477  0.1105  0.1038  0.0620
 8095SOL    HW128073   6.217   4.987   3.406  1.2071  0.0300 -0.3604
 8095SOL    HW228074   6.231   5.133   3.445 -1.5658  0.0736  0.7064
 8096SOL     OW28075   3.985   4.222   9.358  0.0498  0.2521 -0.0602
 8096SOL    HW128076   4.016   4.191   9.443 -3.2530  0.7760  1.5271
 8096SOL    HW228077   3.921   4.156   9.331 -1.1966  1.6186 -0.5744
 8097SOL     OW28078   6.967   0.232   4.601 -0.6202  0.2402  0.3020
 8097SOL    HW128079   7.056   0.198   4.590 -0.5758 -0.3887  2.2486
 8097SOL    HW228080   6.911   0.156   4.595 -0.9824  0.5438 -0.2484
 8098SOL     OW28081  10.128   1.737   1.025  0.7889  0.0890  0.1417
 8098SOL    HW128082  10.180   1.701   1.097  0.3303 -1.1255 -0.1048
 8098SOL    HW228083  10.061   1.790   1.068 -0.4945 -1.9115  0.7797
 8099SOL     OW28084   2.009   7.493   9.156  0.0220 -0.0324  0.0773
 8099SOL    HW128085   1.985   7.547   9.231 -0.3376  0.6175 -0.4913
 8099SOL    HW228086   1.934   7.500   9.097  0.7424  0.3646 -0.8146
 8100SOL     OW28087   2.694   3.352   0.357  0.2919  0.0194 -0.2290
 8100SOL    HW128088   2.644   3.427   0.387  0.6258  0.6968 -1.3094
 8100SOL    HW228089   2.736   3.317   0.436  1.2251  1.7853  0.0974
 8101SOL     OW28090   7.177   7.699   6.672  0.1169  0.4138  1.1769
 8101SOL    HW128091   7.098   7.650   6.650  0.1918  0.6053  0.4505
 8101SOL    HW228092   7.147   7.789   6.682  0.5393  0.9447 -1.3993
 8102SOL     OW28093   9.356   3.255   2.381  0.7383  0.0838 -0.0826
 8102SOL    HW128094   9.450   3.241   2.365  1.2274  1.4500  1.2717
 8102SOL    HW228095   9.329   3.316   2.312  0.9323 -0.0780 -0.3001
 8103SOL     OW28096   6.247   8.517   2.818 -0.5724 -0.3839  0.3471
 8103SOL    HW128097   6.227   8.434   2.775  1.1053 -1.0507  0.7900
 8103SOL    HW228098   6.291   8.569   2.752 -1.5276  0.1349  0.1026
 8104SOL     OW28099  10.279   3.430   3.832 -0.5059  0.1025  0.5314
 8104SOL    HW128100  10.213   3.424   3.763 -1.2410  0.9379  1.1333
 8104SOL    HW228101  10.327   3.510   3.812 -1.3746  0.9021  1.5068
 8105SOL     OW28102   1.784  10.263   6.662  0.6386 -0.4860 -0.3901
 8105SOL    HW128103   1.764  10.291   6.751  3.7688 -0.0259  0.2915
 8105SOL    HW228104   1.747  10.331   6.606 -0.8562 -0.4708  0.5653
 8106SOL     OW28105  10.131  10.141   0.492  0.1983  0.5278  0.0223
 8106SOL    HW128106  10.121  10.074   0.425 -2.2146 -1.9708  2.6189
 8106SOL    HW228107  10.059  10.202   0.478 -0.3561 -0.0412  0.3682
 8107SOL     OW28108   9.637   2.551   0.148  0.0564  0.4327  0.3489
 8107SOL    HW128109   9.673   2.572   0.062 -1.7300  0.5248 -0.4136
 8107SOL    HW228110   9.558   2.500   0.130  0.6506 -1.2341  1.9923
 8108SOL     OW28111   3.392   3.194   2.025  0.3730  0.2630 -0.1814
 8108SOL    HW128112   3.324   3.197   1.957 -0.7262 -0.0213  0.8659
 8108SOL    HW228113   3.436   3.110   2.011 -0.9315 -0.5532  0.4464
 8109SOL     OW28114   8.868   5.689   2.671  0.6728 -0.3487 -0.2659
 8109SOL    HW128115   8.827   5.608   2.703 -0.6125  0.2045 -0.4653
 8109SOL    HW228116   8.952   5.693   2.717  0.3407 -1.3160  0.4527
 8110SOL     OW28117   0.835   2.508   0.530  0.1935  0.5522  0.0435
 8110SOL    HW128118   0.840   2.492   0.625  1.5822 -0.3748 -0.1587
 8110SOL    HW228119   0.751   2.553   0.518  0.8119  2.3430  1.9165
 8111SOL     OW28120   1.014   7.473   2.838 -0.5634  0.0869  0.4111
 8111SOL    HW128121   0.979   7.562   2.839 -0.7092  0.0267  1.4073
 8111SOL    HW228122   1.104   7.483   2.807 -0.7039  0.5283  0.1373
 8112SOL     OW28123   0.278   1.092   5.186 -0.0968 -0.1846  0.0572
 8112SOL    HW128124   0.244   1.081   5.275 -1.5248  1.2822 -0.2500
 8112SOL    HW228125   0.245   1.016   5.138  0.1608 -0.6647  0.6231
 8113SOL     OW28126   0.339   3.006   6.250 -0.0337 -0.5027  0.7410
 8113SOL    HW128127   0.296   2.947   6.187  1.1627 -2.3100  1.5255
 8113SOL    HW228128   0.293   3.089   6.240 -1.1037 -1.2532 -1.1902
 8114SOL     OW28129   9.438   4.316   6.595  0.0969 -0.0403  0.2101
 8114SOL    HW128130   9.516   4.309   6.540 -0.6970  1.6454 -1.2714
 8114SOL    HW228131   9.448   4.400   6.640 -0.4501 -0.2187  0.6801
 8115SOL     OW28132   1.782   8.617   1.914  0.0588 -0.1511 -0.1424
 8115SOL    HW128133   1.748   8.528   1.910  1.6971 -0.7793 -1.2900
 8115SOL    HW228134   1.870   8.607   1.951  0.9168  0.7431 -1.8213
 8116SOL     OW28135   8.640   1.445   3.087 -0.1336  0.2581  0.0359
 8116SOL    HW128136   8.551   1.458   3.054  0.2873  0.4735 -1.0596
 8116SOL    HW228137   8.661   1.527   3.133  0.0209  0.7961 -0.9696
 8117SOL     OW28138   9.228  10.147   1.138 -0.5766  0.0804 -0.2368
 8117SOL    HW128139   9.139  10.156   1.171 -0.3299  1.7580  0.0631
 8117SOL    HW228140   9.221  10.083   1.067 -2.3253  1.2463 -1.2037
 8118SOL     OW28141   1.617   4.020   3.672  0.0868  0.3663 -0.0503
 8118SOL    HW128142   1.694   4.037   3.726  0.4698 -1.7280  0.1386
 8118SOL    HW228143   1.619   3.926   3.657 -3.0558  0.0553  0.8991
 8119SOL     OW28144   4.724   6.478  10.041  0.2637  0.1528 -0.2444
 8119SOL    HW128145   4.727   6.430  10.123  0.7084  1.3672  0.4760
 8119SOL    HW228146   4.658   6.546  10.055 -0.3281 -0.1952 -1.2286
 8120SOL     OW28147   8.535   6.623   9.049 -0.0930 -0.1387 -0.3078
 8120SOL    HW128148   8.485   6.588   8.975  0.7869 -0.8432 -0.5987
 8120SOL    HW228149   8.537   6.717   9.036 -0.9251 -0.1496 -0.5446
 8121SOL     OW28150   8.244   3.897   2.705  0.1567  0.0784 -0.2461
 8121SOL    HW128151   8.191   3.963   2.660 -1.2445 -1.1887 -0.5443
 8121SOL    HW228152   8.334   3.915   2.677  0.0994  2.9319  1.0907
 8122SOL     OW28153   3.161   0.030   2.874  0.2821  0.7905  0.4681
 8122SOL    HW128154   3.187   0.073   2.956  1.5325  0.4303  0.2831
 8122SOL    HW228155   3.086   0.080   2.843 -1.6159 -0.3001  2.8907
 8123SOL     OW28156   7.450   7.539   8.044 -0.4257  0.2554 -0.0870
 8123SOL    HW128157   7.408   7.458   8.016 -1.7249  0.9180 -0.0990
 8123SOL    HW228158   7.420   7.551   8.134  0.0633  0.5452  0.0418
 8124SOL     OW28159   8.778   3.116   6.235 -0.0947  0.1844 -0.1175
 8124SOL    HW128160   8.817   3.044   6.285  0.8995  0.3090 -0.6852
 8124SOL    HW228161   8.823   3.113   6.150 -1.0492  0.5968 -0.6529
 8125SOL     OW28162   6.931   2.594   2.905  0.1128  0.0987  0.4533
 8125SOL    HW128163   6.853   2.598   2.848 -0.3688 -0.3941  1.0573
 8125SOL    HW228164   6.979   2.674   2.886 -1.1559  1.0031  0.9279
 8126SOL     OW28165   1.533   1.701   0.695  0.1280  0.7835 -0.5102
 8126SOL    HW128166   1.440   1.723   0.693 -1.2732 -3.8502 -0.1066
 8126SOL    HW228167   1.551   1.682   0.787  0.7086 -0.7177 -0.9011
 8127SOL     OW28168   2.986   3.575   2.626  0.0550 -0.1146 -0.0721
 8127SOL    HW128169   2.955   3.503   2.680  0.7328 -0.2797  0.1020
 8127SOL    HW228170   3.037   3.630   2.685 -0.1339  0.3039 -0.2920
 8128SOL     OW28171   4.584   1.209   5.773 -0.3408 -0.0751  0.1760
 8128SOL    HW128172   4.539   1.169   5.848 -2.0469  0.9631 -0.2239
 8128SOL    HW228173   4.542   1.170   5.696 -2.2241  2.4914 -0.2269
 8129SOL     OW28174   7.752   6.854   4.256  0.4110 -0.0395 -0.3126
 8129SOL    HW128175   7.710   6.842   4.341 -1.0039 -0.6026 -1.0713
 8129SOL    HW228176   7.716   6.936   4.223  0.3424 -0.2285 -0.7131
 8130SOL     OW28177   3.386   3.096   6.036  0.3430 -0.4311 -0.0767
 8130SOL    HW128178   3.465   3.149   6.032  0.8443 -1.0777  0.9734
 8130SOL    HW228179   3.400   3.036   6.110 -1.3894 -0.1203  0.5483
 8131SOL     OW28180   9.608   7.105   7.560  0.2782  0.1527 -0.1888
 8131SOL    HW128181   9.655   7.044   7.617  1.1560 -0.3145 -1.3548
 8131SOL    HW228182   9.670   7.123   7.489 -0.9515  0.3268 -1.2432
 8132SOL     OW28183   9.672   4.926   4.698 -0.0405  0.0350  0.3278
 8132SOL    HW128184   9.650   4.956   4.610 -2.6429  0.1154  0.8994
 8132SOL    HW228185   9.741   4.861   4.685  0.2111  0.6221 -1.6679
 8133SOL     OW28186   6.119   5.530  10.219 -0.5252 -0.0702 -0.1478
 8133SOL    HW128187   6.044   5.536  10.278 -1.3509 -0.2862 -1.1383
 8133SOL    HW228188   6.121   5.438  10.192 -0.2588  0.0552 -0.5721
 8134SOL     OW28189   0.375   2.417   5.108  0.0521 -0.2996 -0.3721
 8134SOL    HW128190   0.437   2.479   5.146  0.5223 -1.1985  0.3660
 8134SOL    HW228191   0.311   2.402   5.178  0.9332 -1.9813  0.1231
 8135SOL     OW28192   0.505   6.262   9.321  0.4741  0.5700 -0.2309
 8135SOL    HW128193   0.433   6.243   9.382  3.5615 -1.4557  3.2348
 8135SOL    HW228194   0.480   6.218   9.240 -1.7604 -0.9549  1.1573
 8136SOL     OW28195   8.079   6.776   0.704  0.1583  0.4960 -0.0761
 8136SOL    HW128196   8.134   6.736   0.772 -0.9127 -0.3820  0.3110
 8136SOL    HW228197   8.062   6.705   0.642 -1.5728  0.3677  0.4876
 8137SOL     OW28198   5.485   2.022  10.196  0.1199 -0.0822 -0.0968
 8137SOL    HW128199   5.509   2.045  10.106  2.1568 -0.8420  0.1854
 8137SOL    HW228200   5.451   1.932  10.190  1.2511 -0.5355 -0.0140
 8138SOL     OW28201   5.991   9.199   4.494 -0.4024 -0.0051 -0.1249
 8138SOL    HW128202   5.925   9.268   4.494 -2.6906 -2.0886 -1.2012
 8138SOL    HW228203   5.982   9.157   4.580  0.7169  0.7138  0.3724
 8139SOL     OW28204   7.749   7.296   6.169 -0.2868 -0.1662  0.4173
 8139SOL    HW128205   7.671   7.352   6.165 -0.0165  0.1991  0.1730
 8139SOL    HW228206   7.814   7.349   6.214  0.4558  0.3156 -1.1561
 8140SOL     OW28207   7.749   5.721   7.861  0.0205 -0.3886 -0.2912
 8140SOL    HW128208   7.732   5.815   7.856  0.9088 -0.0095  2.3233
 8140SOL    HW228209   7.662   5.681   7.867 -0.3296  0.3271 -0.4998
 8141SOL     OW28210   9.071   5.424   3.608  0.3187  0.7442  0.4591
 8141SOL    HW128211   9.053   5.337   3.574 -0.6152  1.3960 -0.8149
 8141SOL    HW228212   9.008   5.436   3.680  0.2312  0.4978  0.4213
 8142SOL     OW28213   0.948   0.184   8.602 -0.6691 -0.1077  0.7071
 8142SOL    HW128214   0.959   0.257   8.540 -0.6859  0.1501  1.0037
 8142SOL    HW228215   0.961   0.106   8.549  0.0778  0.1292  0.5234
 8143SOL     OW28216   2.030   1.614   9.341  0.7768 -0.0416  0.4909
 8143SOL    HW128217   2.123   1.604   9.359  0.7987 -2.6850 -0.5842
 8143SOL    HW228218   2.014   1.559   9.264 -1.8871 -0.7360  1.4048
 8144SOL     OW28219   4.425   0.793   6.092 -0.1443  0.0267  0.0745
 8144SOL    HW128220   4.454   0.775   6.182 -3.3167 -0.6835  1.0629
 8144SOL    HW228221   4.487   0.744   6.037  1.7247  0.2756  1.8217
 8145SOL     OW28222   0.608   4.775   8.503  0.0893  0.8477  0.4961
 8145SOL    HW128223   0.661   4.838   8.552  0.9627  1.5386 -1.2348
 8145SOL    HW228224   0.538   4.827   8.464 -0.2837  0.4112  0.5721
 8146SOL     OW28225   2.027   8.693   3.013 -0.1182  0.1543 -0.0826
 8146SOL    HW128226   2.105   8.659   2.969 -0.6206  0.1214 -0.9749
 8146SOL    HW228227   1.960   8.626   2.999 -0.3671  0.2643  0.5262
 8147SOL     OW28228   6.970   7.217   6.173 -0.1341 -0.0833 -0.7639
 8147SOL    HW128229   6.955   7.126   6.197  0.7012 -0.4120 -1.4542
 8147SOL    HW228230   6.920   7.230   6.092 -0.8089  0.2798 -0.3042
 8148SOL     OW28231   4.033   0.418   1.941  0.2024  0.0614  0.1125
 8148SOL    HW128232   4.036   0.322   1.948 -0.7142  0.0634  0.7343
 8148SOL    HW228233   4.119   0.442   1.907  0.3546 -1.0030 -0.2936
 8149SOL     OW28234   0.851   6.151   5.847  0.6141 -0.0951  0.4318
 8149SOL    HW128235   0.761   6.165   5.875  0.6225  0.3720  0.2357
 8149SOL    HW228236   0.856   6.190   5.760  0.6928 -1.1899 -0.0611
 8150SOL     OW28237   3.702   2.592   7.699  0.4198  0.0715  0.1793
 8150SOL    HW128238   3.751   2.661   7.654 -0.4662 -0.8511 -2.4020
 8150SOL    HW228239   3.622   2.636   7.730  0.2008  0.3955 -0.7970
 8151SOL     OW28240   7.088  10.310   9.624 -0.3758 -0.5549  0.1182
 8151SOL    HW128241   7.011  10.270   9.664  0.7386 -2.3889  0.5059
 8151SOL    HW228242   7.125  10.365   9.694 -0.6083 -0.6689  0.3322
 8152SOL     OW28243   7.140   8.379   1.063 -0.2881 -0.1913  0.6639
 8152SOL    HW128244   7.185   8.296   1.048  0.2095  0.0933  0.5621
 8152SOL    HW228245   7.206   8.435   1.104  0.3270  1.1346 -1.9419
 8153SOL     OW28246   5.200   4.043   5.001  0.1628  0.4723 -0.0755
 8153SOL    HW128247   5.165   4.066   5.087  1.3520 -2.2946  1.2790
 8153SOL    HW228248   5.124   4.047   4.943 -1.1432  0.4140  1.5483
 8154SOL     OW28249   4.797   5.131   3.413 -0.1353  0.5021  0.4302
 8154SOL    HW128250   4.849   5.144   3.492 -0.5207 -0.5680  0.8775
 8154SOL    HW228251   4.731   5.200   3.416 -0.7406 -0.1038  1.5560
 8155SOL     OW28252   1.418   6.493   0.600 -0.2073 -0.3998 -0.0294
 8155SOL    HW128253   1.430   6.559   0.669 -1.0242 -0.9916  0.7002
 8155SOL    HW228254   1.433   6.409   0.644  1.3481 -0.7013 -1.0657
 8156SOL     OW28255   9.657   0.411   3.161  0.2571 -0.0549  0.0635
 8156SOL    HW128256   9.612   0.449   3.237  0.8268  1.3181 -0.2637
 8156SOL    HW228257   9.702   0.334   3.196 -1.0911 -0.5991  0.6975
 8157SOL     OW28258   3.592   4.337   2.839  0.0120  0.0151  0.0000
 8157SOL    HW128259   3.505   4.375   2.828 -0.7473 -1.9953 -1.4685
 8157SOL    HW228260   3.583   4.279   2.915 -0.6923 -1.9913 -1.5130
 8158SOL     OW28261   6.105   9.340   3.451  1.0036  0.0384 -0.5659
 8158SOL    HW128262   6.057   9.265   3.488  0.2481  0.0626 -1.4698
 8158SOL    HW228263   6.151   9.303   3.376 -1.4718  0.9419 -2.6629
 8159SOL     OW28264   1.537   6.305   9.936  0.5644 -0.9824 -0.2301
 8159SOL    HW128265   1.617   6.282   9.983  1.2983  0.7146 -0.5871
 8159SOL    HW228266   1.508   6.222   9.897  1.5698 -1.8229  0.7245
 8160SOL     OW28267   8.202   6.569   0.885 -0.3945  0.6506 -0.2344
 8160SOL    HW128268   8.198   6.550   0.978 -1.9188 -0.3459 -0.4750
 8160SOL    HW228269   8.192   6.483   0.842 -0.3648  1.1660 -1.3141
 8161SOL     OW28270   0.179   6.102   9.304  0.6511 -0.1773  0.2317
 8161SOL    HW128271   0.126   6.180   9.285 -0.3472 -0.7164  0.7359
 8161SOL    HW228272   0.232   6.090   9.225 -0.9286 -0.3713 -0.8417
 8162SOL     OW28273   3.232   0.565   3.042  0.7118 -0.3847  0.1073
 8162SOL    HW128274   3.247   0.636   2.979  0.9607 -0.7449 -0.2422
 8162SOL    HW228275   3.174   0.604   3.108  1.3764  0.3491  0.2759
 8163SOL     OW28276   7.033   9.892   2.272 -0.2271  0.6008  0.0024
 8163SOL    HW128277   7.125   9.894   2.246 -0.9009  0.6244 -2.5560
 8163SOL    HW228278   6.997   9.975   2.242 -1.4170 -0.0122 -0.3472
 8164SOL     OW28279   7.298   4.969   3.813 -0.9099  0.5396  0.0699
 8164SOL    HW128280   7.229   4.914   3.777 -1.6881  1.6652 -0.1807
 8164SOL    HW228281   7.252   5.042   3.855  0.0669  0.5083  1.2553
 8165SOL     OW28282   4.856   3.750   4.087  0.3348 -0.0413  0.5452
 8165SOL    HW128283   4.913   3.677   4.064  1.7797  1.0111  0.6454
 8165SOL    HW228284   4.824   3.782   4.003  2.0081  0.9780  0.2556
 8166SOL     OW28285   5.800   8.171   6.517 -0.3918 -0.0374 -0.2586
 8166SOL    HW128286   5.812   8.167   6.612 -1.2268 -1.1615 -0.1766
 8166SOL    HW228287   5.717   8.126   6.502 -0.3300  0.2473 -1.5164
 8167SOL     OW28288   8.116   0.973   3.287 -0.6688  0.1974  0.2061
 8167SOL    HW128289   8.205   0.963   3.252  0.7539  1.2184  3.1687
 8167SOL    HW228290   8.091   0.884   3.311  0.8274  0.1868  1.9685
 8168SOL     OW28291   8.535   5.540   0.096 -0.0285  0.6169 -0.4250
 8168SOL    HW128292   8.523   5.447   0.077  0.8825  0.5211 -0.5893
 8168SOL    HW228293   8.454   5.582   0.068 -0.0014  0.0182 -1.4269
 8169SOL     OW28294   7.032   7.321   7.802  0.1489 -0.0069  0.3836
 8169SOL    HW128295   7.066   7.234   7.824  1.1828  0.8684  2.6138
 8169SOL    HW228296   7.108   7.379   7.811 -0.4083  1.1114 -1.5198
 8170SOL     OW28297   0.955   5.648   8.459 -0.6359  0.2955  0.3885
 8170SOL    HW128298   0.892   5.600   8.513 -0.5020 -1.7693 -1.1774
 8170SOL    HW228299   0.983   5.721   8.514 -2.0394 -0.5323  2.3008
 8171SOL     OW28300   2.473   0.223   4.355 -0.1194 -0.4122 -0.3831
 8171SOL    HW128301   2.547   0.277   4.383 -0.4353  0.1288 -0.5717
 8171SOL    HW228302   2.441   0.182   4.436 -2.4677  2.9036  0.5655
 8172SOL     OW28303   3.124   4.213   5.612 -0.8556 -0.1874 -0.3629
 8172SOL    HW128304   3.189   4.263   5.563 -0.6421 -2.2460 -2.3304
 8172SOL    HW228305   3.171   4.181   5.689  0.0326 -0.3609 -0.9660
 8173SOL     OW28306   4.888   5.305   3.070 -0.0888 -0.0707  0.1205
 8173SOL    HW128307   4.794   5.290   3.085  0.0533 -2.2702 -0.8567
 8173SOL    HW228308   4.930   5.226   3.102  1.3374  0.3734 -0.5813
 8174SOL     OW28309   6.010   2.976   6.233  0.5213 -0.0886  0.1974
 8174SOL    HW128310   5.945   2.914   6.265  0.1141  0.9284  1.4013
 8174SOL    HW228311   6.004   3.051   6.293  1.0669  1.0769 -1.1479
 8175SOL     OW28312   8.084   1.442   9.984 -0.0036  0.3186  0.6362
 8175SOL    HW128313   8.040   1.449  10.068  1.9272  1.6710  1.5872
 8175SOL    HW228314   8.074   1.528   9.944  1.1092  0.4122  0.5389
 8176SOL     OW28315   4.877   1.699   7.088 -0.0340 -0.4072 -0.0751
 8176SOL    HW128316   4.906   1.766   7.149 -0.5355  0.0999 -0.3930
 8176SOL    HW228317   4.784   1.715   7.075 -0.8803 -2.8880  2.0448
 8177SOL     OW28318   8.612   8.310   1.294 -0.2847 -0.0244  0.1535
 8177SOL    HW128319   8.521   8.326   1.319 -0.8419 -3.4607  0.7051
 8177SOL    HW228320   8.609   8.297   1.199 -0.6343 -1.5099  0.3544
 8178SOL     OW28321   1.374   4.798   7.320  0.1673 -0.4847 -0.4321
 8178SOL    HW128322   1.327   4.880   7.306  0.8269  0.1927  1.0114
 8178SOL    HW228323   1.447   4.801   7.259  0.8445  0.5832  0.3871
 8179SOL     OW28324   9.200   1.767   5.715 -0.1903  0.2894  0.3693
 8179SOL    HW128325   9.252   1.829   5.665  0.7178 -1.0355 -0.3928
 8179SOL    HW228326   9.145   1.821   5.772 -0.1449  1.7854 -0.9675
 8180SOL     OW28327   3.493   3.221   8.037 -0.2312 -0.5858  0.3473
 8180SOL    HW128328   3.534   3.134   8.030  0.1339 -0.3303 -0.8300
 8180SOL    HW228329   3.567   3.282   8.035 -0.3531 -0.2689  2.7252
 8181SOL     OW28330   7.651   8.414   3.678  0.3485  0.6991  0.5022
 8181SOL    HW128331   7.640   8.437   3.586 -1.4272  1.6749  0.9105
 8181SOL    HW228332   7.590   8.471   3.724  0.3265 -0.6051  2.1858
 8182SOL     OW28333   9.885   2.587   1.154 -0.9710 -0.0625 -0.1326
 8182SOL    HW128334   9.828   2.614   1.082 -1.0696  1.1123  0.3569
 8182SOL    HW228335   9.940   2.518   1.117  0.2677  1.7705 -1.9339
 8183SOL     OW28336   7.348   6.036   8.086 -0.2234  0.5747  0.2144
 8183SOL    HW128337   7.388   5.951   8.101  0.4021  0.6344 -1.0143
 8183SOL    HW228338   7.341   6.043   7.991 -0.5062  1.7839  0.3081
 8184SOL     OW28339   4.136   3.836   3.416 -0.5818  0.1921  0.4125
 8184SOL    HW128340   4.054   3.866   3.376  0.1388 -0.8040 -1.9891
 8184SOL    HW228341   4.172   3.915   3.456 -1.2259  1.3841 -1.2228
 8185SOL     OW28342   5.004   5.254   5.473  0.6863 -0.0767 -0.5084
 8185SOL    HW128343   4.999   5.209   5.558  0.6538  0.4446 -0.2341
 8185SOL    HW228344   5.025   5.184   5.411 -0.9313 -0.7686 -0.3321
 8186SOL     OW28345   2.476   2.568   3.252 -0.1556  0.2015  0.2570
 8186SOL    HW128346   2.446   2.651   3.287  0.8601  0.4304  0.6063
 8186SOL    HW228347   2.516   2.590   3.168  0.2413  0.0878  0.4147
 8187SOL     OW28348   9.130   9.541   3.860  0.2270  0.3191  0.2339
 8187SOL    HW128349   9.121   9.500   3.774  0.2330  0.5323  0.1307
 8187SOL    HW228350   9.224   9.542   3.877  0.1452 -0.9095  0.8229
 8188SOL     OW28351   6.058   9.327   9.049  0.6617 -0.1801  0.0894
 8188SOL    HW128352   5.973   9.331   9.094  0.9305 -0.4689  0.6305
 8188SOL    HW228353   6.121   9.312   9.119  1.0622 -0.8593 -0.4155
 8189SOL     OW28354   3.291   0.853  10.109  0.7202  0.1443  0.2133
 8189SOL    HW128355   3.251   0.779  10.064 -0.5863  1.2815 -0.5758
 8189SOL    HW228356   3.220   0.893  10.158  1.8859 -0.3981  2.4672
 8190SOL     OW28357  10.319   8.612   2.412  0.2787  0.1417 -0.0306
 8190SOL    HW128358  10.402   8.654   2.388  0.7722 -0.3379  0.7978
 8190SOL    HW228359  10.326   8.523   2.379 -0.4126  0.4455 -1.0226
 8191SOL     OW28360   1.796   4.754   7.939 -0.0840  0.3260  0.5367
 8191SOL    HW128361   1.848   4.741   8.019  0.4847 -0.0046  0.1190
 8191SOL    HW228362   1.706   4.765   7.971  0.2238  0.8387  1.2659
 8192SOL     OW28363   1.916   3.518   3.198 -0.4673 -0.2677 -0.6171
 8192SOL    HW128364   1.906   3.574   3.275 -0.3615  1.2421 -1.6600
 8192SOL    HW228365   1.828   3.510   3.162 -0.0361  2.2860 -2.4896
 8193SOL     OW28366   3.878   7.786   0.850  0.0252  0.2802  0.0569
 8193SOL    HW128367   3.788   7.803   0.879  0.2853  1.0081  0.4538
 8193SOL    HW228368   3.908   7.869   0.814 -0.1175 -0.4687 -1.9046
 8194SOL     OW28369   7.892   7.073   6.693  0.0490  0.1263 -0.0852
 8194SOL    HW128370   7.981   7.055   6.722 -0.4276  0.6343  1.8729
 8194SOL    HW228371   7.856   6.987   6.671  0.4777 -0.3032  0.8344
 8195SOL     OW28372   6.692   9.652   1.792 -0.0866  0.4801  0.3357
 8195SOL    HW128373   6.773   9.654   1.741 -1.0899 -0.6418 -1.4099
 8195SOL    HW228374   6.713   9.700   1.872  2.0271  0.9740 -0.4433
 8196SOL     OW28375   7.215   2.097   8.446 -0.2047  0.0992 -0.3149
 8196SOL    HW128376   7.139   2.040   8.438 -0.2416  0.1048 -0.0272
 8196SOL    HW228377   7.183   2.172   8.497  0.1242 -0.1501  0.2691
 8197SOL     OW28378   2.333   1.662   9.994  0.0952  0.0934 -0.2157
 8197SOL    HW128379   2.261   1.620  10.041 -0.0875 -1.7619 -2.0121
 8197SOL    HW228380   2.392   1.589   9.971  1.3772  1.2595 -0.7647
 8198SOL     OW28381   6.574   8.694   2.273 -0.2178  0.0309 -0.7825
 8198SOL    HW128382   6.535   8.780   2.255  0.3711  0.2664 -0.9659
 8198SOL    HW228383   6.668   8.710   2.271 -0.0990 -0.1697  1.3141
 8199SOL     OW28384   3.710   0.244   4.540 -0.1205  0.4486  0.6941
 8199SOL    HW128385   3.690   0.151   4.528  1.2090  0.2915 -0.6693
 8199SOL    HW228386   3.625   0.287   4.539 -0.7044 -0.6628  0.5078
 8200SOL     OW28387   3.296  10.134   4.209 -0.7907 -0.7425  0.3957
 8200SOL    HW128388   3.239  10.071   4.254 -1.2371 -0.6566 -0.0382
 8200SOL    HW228389   3.294  10.106   4.117  0.6650 -1.3381  0.5271
 8201SOL     OW28390   2.458   5.882   7.907  0.4149  0.0845 -0.1942
 8201SOL    HW128391   2.439   5.837   7.988  0.8851  2.8033  1.5721
 8201SOL    HW228392   2.550   5.909   7.915  0.3311  0.8359 -1.3880
 8202SOL     OW28393   4.711   4.121   5.560 -0.2598 -0.3508  0.5835
 8202SOL    HW128394   4.738   4.091   5.473 -0.0428  0.4554  0.3669
 8202SOL    HW228395   4.751   4.059   5.620  1.5974  0.4680  0.2454
 8203SOL     OW28396   6.148   0.268   6.314  0.5247 -0.6664 -0.1978
 8203SOL    HW128397   6.124   0.193   6.259  1.2078 -0.7578 -0.3889
 8203SOL    HW228398   6.076   0.330   6.303  1.1652 -0.1769 -2.1354
 8204SOL     OW28399   3.567   1.805   3.869 -0.1051  0.1851  0.3909
 8204SOL    HW128400   3.529   1.776   3.952  0.4544 -0.7660  0.3319
 8204SOL    HW228401   3.590   1.723   3.825  1.8053  0.7294  0.3338
 8205SOL     OW28402   1.873   9.750   8.753  0.0066 -0.3523 -0.7894
 8205SOL    HW128403   1.830   9.804   8.819 -0.3938  0.1515 -1.4411
 8205SOL    HW228404   1.955   9.722   8.794 -0.3749 -0.3026  0.0206
 8206SOL     OW28405   8.762   7.080   4.855  0.4186  0.1320  0.2180
 8206SOL    HW128406   8.747   6.986   4.860  0.9689  0.0905  1.6666
 8206SOL    HW228407   8.685   7.114   4.809 -0.1140 -0.9493  0.2688
 8207SOL     OW28408   5.749   0.160   4.773 -0.4166 -0.3832  0.6623
 8207SOL    HW128409   5.715   0.141   4.686  1.3590  0.8637 -0.3876
 8207SOL    HW228410   5.672   0.164   4.830 -1.8628  0.9826 -1.2825
 8208SOL     OW28411   4.011   5.595   6.446  0.0524 -0.2973 -0.1236
 8208SOL    HW128412   4.102   5.619   6.459 -0.5585  2.5527 -0.4506
 8208SOL    HW228413   4.011   5.542   6.366  1.5668 -1.8385  0.8491
 8209SOL     OW28414   1.816   0.091   2.442  0.1282 -0.2741  0.6288
 8209SOL    HW128415   1.857   0.138   2.515 -0.9487  0.0045  1.0866
 8209SOL    HW228416   1.730   0.133   2.434  0.2763 -0.2245 -0.8891
 8210SOL     OW28417   7.827   9.566   9.922 -0.3942 -0.0089 -0.0011
 8210SOL    HW128418   7.918   9.557   9.895 -0.6572  1.4199 -1.5607
 8210SOL    HW228419   7.786   9.484   9.893  0.2050 -0.2767 -0.1202
 8211SOL     OW28420   9.995   8.112   9.027 -0.0400 -0.0908  0.1634
 8211SOL    HW128421   9.916   8.119   8.973  0.1897  0.0403 -0.1601
 8211SOL    HW228422  10.000   8.020   9.052  1.7757 -0.9949 -3.0100
 8212SOL     OW28423   2.295   7.439   1.150 -0.4353  0.5044 -0.2810
 8212SOL    HW128424   2.270   7.354   1.111  2.2230  0.4782 -2.2316
 8212SOL    HW228425   2.324   7.491   1.075  0.3714  2.2442  1.1863
 8213SOL     OW28426   3.034   6.965   6.704 -0.0876 -0.1806 -0.0670
 8213SOL    HW128427   3.058   6.882   6.662 -0.6075 -0.1120 -0.5127
 8213SOL    HW228428   3.108   7.023   6.688  0.1794 -0.4902  0.0476
 8214SOL     OW28429   5.041   3.849   7.796  0.5331 -0.0222  0.0570
 8214SOL    HW128430   5.060   3.928   7.847 -1.4044 -1.2181  2.8367
 8214SOL    HW228431   5.077   3.777   7.848 -1.7965 -1.3302  0.0061
 8215SOL     OW28432   4.755   8.232   3.609 -0.7890  0.0224  0.5566
 8215SOL    HW128433   4.843   8.213   3.577 -0.5775  0.4585  0.8677
 8215SOL    HW228434   4.699   8.165   3.569 -0.9332  1.8326 -2.5618
 8216SOL     OW28435   1.455   5.331   9.331 -0.1069  0.2687 -0.2442
 8216SOL    HW128436   1.468   5.259   9.269  1.8089  0.8869 -0.6309
 8216SOL    HW228437   1.543   5.367   9.345 -0.8742  1.8979  0.7210
 8217SOL     OW28438   5.773   0.875   4.202  0.2949 -0.0842  0.0367
 8217SOL    HW128439   5.849   0.861   4.258 -0.1555 -1.4466  0.3547
 8217SOL    HW228440   5.724   0.946   4.245 -0.1263 -1.2088  1.4902
 8218SOL     OW28441   1.630   7.548   5.400 -0.2769  0.2623  0.7097
 8218SOL    HW128442   1.582   7.587   5.473 -0.5682 -0.7180  1.0708
 8218SOL    HW228443   1.662   7.622   5.349  1.7451  1.0648  2.9730
 8219SOL     OW28444   6.123   5.729   0.146 -0.1854 -0.6645 -0.0387
 8219SOL    HW128445   6.147   5.804   0.092  1.1682 -0.1544  1.1934
 8219SOL    HW228446   6.039   5.699   0.110  0.0493  0.4154 -1.5806
 8220SOL     OW28447   8.200   0.312   9.203 -0.2819 -0.1450 -0.1260
 8220SOL    HW128448   8.225   0.341   9.115  0.4818  3.0681  1.0211
 8220SOL    HW228449   8.104   0.312   9.201 -0.2816  0.2694 -0.8529
 8221SOL     OW28450   0.034   8.558   7.338 -0.0127  0.4628  0.6810
 8221SOL    HW128451  -0.009   8.614   7.274  1.3979  3.8065  2.3917
 8221SOL    HW228452  -0.017   8.569   7.418 -0.3649 -1.7364  0.8268
 8222SOL     OW28453   7.177   6.264   8.204  0.4522  0.6983  0.2311
 8222SOL    HW128454   7.107   6.245   8.266 -0.9266  2.0819 -0.8033
 8222SOL    HW228455   7.188   6.182   8.155 -0.6200  0.5209  0.2604
 8223SOL     OW28456   5.303   6.067  10.285 -0.2288 -0.3470 -0.0247
 8223SOL    HW128457   5.265   6.133  10.226 -1.6742 -0.4709  0.7425
 8223SOL    HW228458   5.397   6.074  10.269 -0.4732  0.6782 -1.2421
 8224SOL     OW28459   3.342   1.171   6.016 -0.0086  0.2178  0.7444
 8224SOL    HW128460   3.266   1.202   6.064  0.3720  2.1224  0.1993
 8224SOL    HW228461   3.384   1.109   6.075 -2.2459 -1.3301  0.8219
 8225SOL     OW28462   2.439   3.060   0.499 -0.1592 -0.5572  0.0940
 8225SOL    HW128463   2.349   3.036   0.521 -0.0017 -0.8630  0.4280
 8225SOL    HW228464   2.464   3.124   0.565  0.4462 -1.7664  1.0935
 8226SOL     OW28465  10.323   4.232   3.087  0.0320 -0.0760  0.0462
 8226SOL    HW128466  10.308   4.267   3.175  1.7761  1.3947 -0.1856
 8226SOL    HW228467  10.238   4.242   3.042 -0.7850 -0.5437  1.4339
 8227SOL     OW28468   1.176   5.298   2.508 -0.7583  0.3586  0.5087
 8227SOL    HW128469   1.113   5.356   2.551 -0.0178  1.1941  0.5079
 8227SOL    HW228470   1.260   5.322   2.547 -0.6364 -2.0727  1.9432
 8228SOL     OW28471   9.258   7.325   6.192 -0.0373  0.6277 -0.1327
 8228SOL    HW128472   9.257   7.386   6.266 -1.0537 -1.9467  2.1740
 8228SOL    HW228473   9.172   7.283   6.194  0.6346 -0.9260 -1.5084
 8229SOL     OW28474   1.929   4.265   5.968  0.1153  0.2882 -0.2116
 8229SOL    HW128475   1.995   4.238   6.032  0.2523  1.0464 -0.0268
 8229SOL    HW228476   1.914   4.358   5.987  0.7304  0.7336 -1.7900
 8230SOL     OW28477   9.733   6.597   5.750 -0.2862  0.4040 -0.4078
 8230SOL    HW128478   9.697   6.682   5.776  1.3714  0.9781  0.1172
 8230SOL    HW228479   9.744   6.604   5.655 -1.2702  0.3155 -0.5386
 8231SOL     OW28480   8.041   4.027   8.765  0.0503  0.4711  0.1127
 8231SOL    HW128481   7.953   3.996   8.744  0.4093  0.4894 -1.5309
 8231SOL    HW228482   8.051   4.008   8.858 -1.3761 -0.2818  0.1448
 8232SOL     OW28483   4.360   1.371   3.403  0.1658  0.2069 -0.1677
 8232SOL    HW128484   4.394   1.456   3.376  0.0958  0.6895  1.1523
 8232SOL    HW228485   4.332   1.385   3.494 -2.4213 -0.4970 -0.7856
 8233SOL     OW28486   0.379   4.039   1.858 -0.0918 -0.0685 -0.0678
 8233SOL    HW128487   0.298   4.087   1.875  0.9168  1.5879  0.1844
 8233SOL    HW228488   0.352   3.947   1.859 -1.9671  0.4386 -0.0012
 8234SOL     OW28489   7.769   1.406   7.505 -0.2826 -0.2539  0.0139
 8234SOL    HW128490   7.674   1.392   7.510 -0.3309 -0.7741 -1.7176
 8234SOL    HW228491   7.806   1.318   7.495  0.4060 -0.0525  0.6346
 8235SOL     OW28492   3.418   3.871  10.291 -0.4651  0.0054 -0.2986
 8235SOL    HW128493   3.462   3.787  10.309 -0.0418  0.4535  0.8438
 8235SOL    HW228494   3.328   3.858  10.321  0.4148  1.0049  3.2739
 8236SOL     OW28495   8.980   3.555   3.407  0.1477 -0.9716 -0.6813
 8236SOL    HW128496   8.931   3.575   3.328  0.8197 -0.6262 -1.0184
 8236SOL    HW228497   9.055   3.504   3.377  2.5841  2.3965 -0.8728
 8237SOL     OW28498   8.779   2.047   0.789  0.5260 -0.0955 -0.0525
 8237SOL    HW128499   8.806   2.122   0.842  0.1492  0.4111 -0.5683
 8237SOL    HW228500   8.750   2.085   0.706 -3.3426 -0.3570  0.9712
 8238SOL     OW28501   4.885   7.248   9.124  0.2805  0.1988  0.2216
 8238SOL    HW128502   4.801   7.252   9.080 -0.2149 -0.5997  1.0563
 8238SOL    HW228503   4.939   7.191   9.069  0.4507  1.0970 -0.5670
 8239SOL     OW28504   2.551   0.877   8.032  0.3176  0.0649 -0.4751
 8239SOL    HW128505   2.475   0.822   8.049  0.3069  0.3646  0.5223
 8239SOL    HW228506   2.625   0.816   8.031  0.5454  0.1488  2.3806
 8240SOL     OW28507   7.108   5.151   4.607  0.3931  0.5883  0.0312
 8240SOL    HW128508   7.173   5.159   4.676  0.9413  0.5539 -0.4755
 8240SOL    HW228509   7.071   5.239   4.597  0.5766  0.6731  0.1121
 8241SOL     OW28510   3.112   0.879   6.365  0.8250  0.0085  0.1845
 8241SOL    HW128511   3.124   0.955   6.308  1.8291 -0.3835 -0.1685
 8241SOL    HW228512   3.200   0.861   6.399  0.1814  0.5026  2.2380
 8242SOL     OW28513   4.408   2.951   0.246 -0.2657  0.3449  0.0525
 8242SOL    HW128514   4.348   2.889   0.204  1.3616 -0.4934 -1.1185
 8242SOL    HW228515   4.460   2.987   0.175  1.0862  0.5268  1.0937
 8243SOL     OW28516   2.416   1.578   1.356  0.0097 -0.9474 -0.8099
 8243SOL    HW128517   2.321   1.571   1.355 -0.2775  1.8373 -0.4532
 8243SOL    HW228518   2.439   1.571   1.449 -0.1008  0.3685 -0.6597
 8244SOL     OW28519   5.674   5.979   9.297  0.1835  0.1183 -0.1140
 8244SOL    HW128520   5.586   6.004   9.268 -0.5510 -1.0221  1.0237
 8244SOL    HW228521   5.729   5.988   9.220 -1.1219 -0.0651 -1.0887
 8245SOL     OW28522   3.713   3.890   2.133  0.2659  0.5213 -0.4746
 8245SOL    HW128523   3.783   3.953   2.153  0.6121  0.4321 -1.3744
 8245SOL    HW228524   3.643   3.912   2.195  1.2944  0.2372  0.8385
 8246SOL     OW28525   2.806   6.867   9.104 -0.4699 -0.2997 -0.5458
 8246SOL    HW128526   2.768   6.833   9.185 -0.8348  0.0637 -0.5568
 8246SOL    HW228527   2.734   6.863   9.041 -0.5375  0.5051 -0.5396
 8247SOL     OW28528   2.206  10.042   0.389 -0.0524  0.0618 -0.9163
 8247SOL    HW128529   2.290  10.087   0.387 -0.2518  0.5032  0.0399
 8247SOL    HW228530   2.229   9.949   0.388  0.3426  0.1263 -3.5962
 8248SOL     OW28531   1.701   7.740   7.534 -0.1570  0.1025 -0.1866
 8248SOL    HW128532   1.749   7.770   7.457 -1.6099  0.2202 -1.0895
 8248SOL    HW228533   1.610   7.767   7.518 -0.6330 -0.5419  1.2204
 8249SOL     OW28534   3.557   5.629   8.039 -0.0652 -0.7087 -0.1990
 8249SOL    HW128535   3.514   5.587   7.965 -1.7387 -1.4096  1.0925
 8249SOL    HW228536   3.491   5.628   8.109  1.2085  0.5289  1.1002
 8250SOL     OW28537   4.717   3.428   5.234  0.0097 -0.1532 -0.0988
 8250SOL    HW128538   4.651   3.361   5.217 -1.4598  1.2344 -0.1329
 8250SOL    HW228539   4.709   3.446   5.328 -2.9357  3.1366 -0.7683
 8251SOL     OW28540   8.532   4.987   0.669  0.0734 -0.8957 -0.0907
 8251SOL    HW128541   8.595   4.953   0.733  0.7275 -1.4590 -1.0142
 8251SOL    HW228542   8.456   5.013   0.722  1.6192  1.2441  1.2639
 8252SOL     OW28543   0.021   4.422   5.848 -0.1983  0.0162  0.0175
 8252SOL    HW128544   0.002   4.329   5.852 -1.9697  0.3836  1.5341
 8252SOL    HW228545   0.087   4.430   5.779 -1.1843 -2.1573 -1.2911
 8253SOL     OW28546   9.758   5.326   1.577  0.1706  0.0057 -0.7988
 8253SOL    HW128547   9.707   5.391   1.530  2.1434  1.1217 -1.5056
 8253SOL    HW228548   9.790   5.372   1.654 -1.1057 -1.1351  0.4640
 8254SOL     OW28549   6.977   0.692  10.164 -0.2650 -0.1022 -0.3590
 8254SOL    HW128550   6.929   0.684  10.247 -1.5954 -0.4294 -1.1255
 8254SOL    HW228551   7.051   0.749  10.185  0.7455 -1.9783  1.5917
 8255SOL     OW28552   0.854   0.818   6.848 -0.0709  0.1060 -0.3881
 8255SOL    HW128553   0.918   0.748   6.837 -1.2890 -1.0331 -0.3844
 8255SOL    HW228554   0.900   0.884   6.900  1.4396 -0.1996 -1.2649
 8256SOL     OW28555   8.582   7.747   0.507  0.0157  0.0535 -0.5264
 8256SOL    HW128556   8.504   7.694   0.526  1.0045 -1.4218 -0.4271
 8256SOL    HW228557   8.647   7.718   0.572  0.6683  1.2282 -0.6310
 8257SOL     OW28558   3.588   5.384   3.218 -0.2791 -0.0896  0.4780
 8257SOL    HW128559   3.655   5.368   3.285  0.8831 -2.1605 -1.0785
 8257SOL    HW228560   3.540   5.460   3.251  1.9926  0.6921  2.3068
 8258SOL     OW28561   9.526   3.062   9.412 -0.5735 -0.1121  0.6870
 8258SOL    HW128562   9.565   3.002   9.348  0.7284  0.1362  1.2153
 8258SOL    HW228563   9.433   3.064   9.389 -0.5497 -1.8345  0.2471
 8259SOL     OW28564   2.412   1.720   3.675  0.3274  0.0136 -0.1721
 8259SOL    HW128565   2.372   1.765   3.749 -1.6122 -3.1873  0.9072
 8259SOL    HW228566   2.402   1.781   3.602 -0.4876  2.0271  1.5106
 8260SOL     OW28567   9.610   6.514   5.159  0.6316 -0.3768  0.3754
 8260SOL    HW128568   9.653   6.599   5.171 -0.3371  0.0830  0.6694
 8260SOL    HW228569   9.642   6.461   5.232  0.1135  0.2080  1.0406
 8261SOL     OW28570   6.624   6.954   6.243 -0.2572 -0.1003  0.2135
 8261SOL    HW128571   6.614   7.049   6.233  1.3168  0.0798  0.1726
 8261SOL    HW228572   6.617   6.940   6.338 -0.9719 -0.0145  0.1790
 8262SOL     OW28573   2.131   6.164   8.556 -0.2582  0.6872  0.2274
 8262SOL    HW128574   2.091   6.079   8.573 -1.3554  1.2405  0.5532
 8262SOL    HW228575   2.154   6.163   8.464 -0.8897  0.2753  0.0709
 8263SOL     OW28576   0.236   7.600   1.401 -0.3263 -0.1621  0.2003
 8263SOL    HW128577   0.291   7.666   1.358 -0.7573  0.5245  0.6806
 8263SOL    HW228578   0.289   7.520   1.400  0.1186  0.1315 -0.5776
 8264SOL     OW28579   9.624   4.807   6.572 -0.2833  0.4500  0.3790
 8264SOL    HW128580   9.696   4.813   6.635 -0.7986 -1.1731  1.1609
 8264SOL    HW228581   9.668   4.797   6.487  0.4257 -0.2172  0.8119
 8265SOL     OW28582   9.992  10.201   4.920 -0.1815 -0.1338  0.2716
 8265SOL    HW128583   9.953  10.284   4.947  0.6996  0.0064  1.1647
 8265SOL    HW228584   9.994  10.206   4.824  0.0115  0.9541  0.3197
 8266SOL     OW28585   0.197   3.526   1.581 -0.9483  0.5323  0.4242
 8266SOL    HW128586   0.248   3.566   1.510 -0.7972  0.3535  0.4298
 8266SOL    HW228587   0.166   3.443   1.544  1.6795 -1.0746  1.5127
 8267SOL     OW28588   5.059   1.417   2.165 -0.1191  0.1766  0.2955
 8267SOL    HW128589   5.106   1.397   2.084  0.7379  1.9990  0.2879
 8267SOL    HW228590   4.973   1.449   2.136  0.5168  1.7230  0.0011
 8268SOL     OW28591   1.020   8.644   0.159 -0.1203  0.1371 -0.0100
 8268SOL    HW128592   1.051   8.692   0.236  0.5212 -0.1438 -0.0851
 8268SOL    HW228593   0.970   8.570   0.195 -0.2007  0.2576  0.1265
 8269SOL     OW28594   9.664   4.010   5.109 -0.3134 -0.6067  0.2249
 8269SOL    HW128595   9.634   3.920   5.097  0.2622 -0.5559 -2.1903
 8269SOL    HW228596   9.662   4.048   5.021 -1.5929  2.1203  1.3210
 8270SOL     OW28597   6.864   2.121   9.007  0.7208 -0.2596  0.5586
 8270SOL    HW128598   6.800   2.049   9.012  0.0623  0.3166  0.6711
 8270SOL    HW228599   6.876   2.135   8.913 -0.8056  0.8796  0.4831
 8271SOL     OW28600   5.446   5.329   5.993 -0.1322  0.3744 -0.3442
 8271SOL    HW128601   5.373   5.317   5.932  0.0613 -1.6326 -0.2315
 8271SOL    HW228602   5.487   5.243   6.000  0.7693  0.8930  1.4782
 8272SOL     OW28603   9.486   6.711   4.382 -0.3049 -0.3403  0.3459
 8272SOL    HW128604   9.579   6.700   4.398 -0.1322  1.3251  0.6036
 8272SOL    HW228605   9.480   6.776   4.313 -1.2506  2.6141  2.9701
 8273SOL     OW28606   8.301   2.720   1.947  0.6540 -0.2268  0.4932
 8273SOL    HW128607   8.378   2.663   1.952  0.0414 -0.9981  1.5848
 8273SOL    HW228608   8.333   2.806   1.974  1.1913 -0.4674  0.6399
 8274SOL     OW28609   6.172   4.877   5.258  0.1075 -0.4202 -0.2477
 8274SOL    HW128610   6.105   4.934   5.220 -2.6175 -2.7990  0.5997
 8274SOL    HW228611   6.152   4.877   5.352 -0.8675 -3.6230 -0.3447
 8275SOL     OW28612  10.203   9.995   2.304  0.0671 -0.2507  0.0933
 8275SOL    HW128613  10.181  10.028   2.216  1.2679  1.0965  0.2702
 8275SOL    HW228614  10.134  10.031   2.360  0.2191  0.2730 -0.0451
 8276SOL     OW28615   3.178   6.654   5.626  0.5509  0.4441  0.0004
 8276SOL    HW128616   3.216   6.567   5.611  0.5471  0.4434 -0.0045
 8276SOL    HW228617   3.246   6.715   5.598  0.3496  0.4407 -0.4943
 8277SOL     OW28618   4.405   9.316   3.102 -0.1676  0.3647  0.1797
 8277SOL    HW128619   4.344   9.380   3.064 -0.8989 -0.5982 -0.3049
 8277SOL    HW228620   4.491   9.351   3.080 -0.5339  1.4218  0.3222
 8278SOL     OW28621   3.098   0.245   9.617 -0.4836  0.2367  0.2812
 8278SOL    HW128622   3.191   0.251   9.639 -0.3472 -0.1591 -0.1645
 8278SOL    HW228623   3.089   0.292   9.535 -1.0764  2.1036  1.3557
 8279SOL     OW28624   6.742   4.851   2.444  0.2220 -0.0327 -0.1009
 8279SOL    HW128625   6.755   4.918   2.377  0.4786  0.8567  0.8142
 8279SOL    HW228626   6.653   4.819   2.430 -0.2484  1.1731  0.0261
 8280SOL     OW28627   8.425   0.132   0.452  0.0925  0.2782 -0.2321
 8280SOL    HW128628   8.511   0.169   0.430  0.4564 -0.0278  0.6301
 8280SOL    HW228629   8.364   0.205   0.442  0.4961  0.5678 -0.5919
 8281SOL     OW28630   4.039   5.180   5.472  0.4738 -0.1790 -0.5677
 8281SOL    HW128631   4.073   5.267   5.450 -0.4740  0.1041 -0.9662
 8281SOL    HW228632   3.960   5.171   5.418 -0.1522 -0.7639  0.4097
 8282SOL     OW28633   9.618   4.878   7.208 -0.3645  0.3455  0.1082
 8282SOL    HW128634   9.608   4.839   7.295 -0.3801  0.2030  0.0417
 8282SOL    HW228635   9.623   4.804   7.148 -3.1322  0.4223 -0.3365
 8283SOL     OW28636   2.270   7.020   1.602  0.6271 -0.1577 -0.2384
 8283SOL    HW128637   2.297   6.929   1.598  1.1774 -0.0096  0.0454
 8283SOL    HW228638   2.343   7.070   1.565 -0.1116  0.0995 -1.4152
 8284SOL     OW28639   2.214   1.419   6.911 -0.4882 -0.2482 -0.7489
 8284SOL    HW128640   2.195   1.357   6.841  0.8438  0.5116 -1.8452
 8284SOL    HW228641   2.136   1.418   6.966 -1.4886 -1.0420 -2.1159
 8285SOL     OW28642  10.026   9.466   4.711  0.0485  0.4635  0.1096
 8285SOL    HW128643  10.117   9.435   4.716 -0.1710 -0.2031 -0.0529
 8285SOL    HW228644  10.027   9.529   4.638  0.1180 -0.4539 -0.7004
 8286SOL     OW28645   2.031   9.788   7.402 -0.3459  0.2403 -0.0679
 8286SOL    HW128646   2.083   9.796   7.322  2.2320  1.8370  1.6423
 8286SOL    HW228647   2.073   9.719   7.453 -1.4306 -0.1518  0.3436
 8287SOL     OW28648   4.024   8.871   4.569  0.4430  0.1354 -0.2239
 8287SOL    HW128649   4.114   8.904   4.573  0.8294 -0.7991 -0.8534
 8287SOL    HW228650   4.011   8.825   4.652  1.6129 -2.2800 -1.2655
 8288SOL     OW28651   4.268   1.623   5.580 -0.1936 -0.4172  0.2605
 8288SOL    HW128652   4.206   1.650   5.648  1.2419 -1.6924  2.1861
 8288SOL    HW228653   4.347   1.600   5.628  1.3379 -0.1802 -1.9956
 8289SOL     OW28654   4.543   9.579   9.273  0.2131 -0.4594  0.3683
 8289SOL    HW128655   4.462   9.530   9.286 -0.5192  0.3080 -1.0361
 8289SOL    HW228656   4.532   9.658   9.327 -1.0463  0.7663 -1.5411
 8290SOL     OW28657   6.777   9.189   0.287 -0.2768  0.3320  0.8508
 8290SOL    HW128658   6.735   9.268   0.320 -0.4547  0.4462  0.3632
 8290SOL    HW228659   6.837   9.220   0.220  1.7549  0.3295  2.5574
 8291SOL     OW28660   4.258   1.123   1.241 -0.0692  0.2742 -0.2298
 8291SOL    HW128661   4.194   1.162   1.300  2.1750 -0.5685  3.0210
 8291SOL    HW228662   4.342   1.163   1.265  1.0649 -0.4803 -2.5782
 8292SOL     OW28663  10.127   9.969   7.147  0.1282 -0.4977  0.5530
 8292SOL    HW128664  10.084   9.950   7.230 -0.4074  1.1704  0.6749
 8292SOL    HW228665  10.194  10.034   7.168 -0.1115  0.0550 -0.3294
 8293SOL     OW28666   1.079   2.072   1.841  0.3853  0.6090  0.3436
 8293SOL    HW128667   1.085   1.990   1.889  0.3193  0.8435  0.7540
 8293SOL    HW228668   0.986   2.080   1.818  0.5115  0.1887 -0.3817
 8294SOL     OW28669   1.852   4.368   3.414  0.5806 -0.2160  0.0335
 8294SOL    HW128670   1.944   4.347   3.427  0.6384 -0.6384 -0.8951
 8294SOL    HW228671   1.824   4.307   3.345 -0.3777 -0.0599  0.2704
 8295SOL     OW28672  10.133   5.039   1.857  0.0386 -0.6356 -0.7471
 8295SOL    HW128673  10.095   5.066   1.941  0.2901  0.0207 -0.8429
 8295SOL    HW228674  10.091   4.955   1.838  1.1922 -1.6419  0.8610
 8296SOL     OW28675   6.464   1.291   2.977 -0.3643 -0.0759  0.2792
 8296SOL    HW128676   6.435   1.230   3.045  1.5796 -0.6127  0.6805
 8296SOL    HW228677   6.516   1.237   2.918 -1.2748  0.5695 -1.1782
 8297SOL     OW28678   6.041   4.974   8.018  0.1671 -0.0595 -0.6957
 8297SOL    HW128679   5.970   4.911   8.007  0.4184 -0.4387 -0.1783
 8297SOL    HW228680   6.039   5.026   7.938 -0.0930 -0.6739 -1.0980
 8298SOL     OW28681   8.842   4.686   8.773  0.4167  0.1259 -0.4321
 8298SOL    HW128682   8.764   4.656   8.726  0.6915 -1.5037  0.0947
 8298SOL    HW228683   8.892   4.736   8.709 -0.0367 -0.6234 -1.3826
 8299SOL     OW28684   6.665   6.979   0.304  0.3104 -0.2032  0.0286
 8299SOL    HW128685   6.736   7.037   0.331 -0.0286  1.1470 -1.7632
 8299SOL    HW228686   6.619   6.957   0.385  2.7417 -1.1772  1.2616
 8300SOL     OW28687   0.740   8.806   1.556 -0.0609 -0.2946 -0.3152
 8300SOL    HW128688   0.700   8.793   1.470 -0.9944  0.2559  0.0189
 8300SOL    HW228689   0.728   8.723   1.601 -1.0091 -0.0772 -0.1539
 8301SOL     OW28690   3.197   0.515   2.573 -0.1818  0.3930  0.4464
 8301SOL    HW128691   3.158   0.466   2.644  0.9866 -1.9030 -0.4091
 8301SOL    HW228692   3.280   0.548   2.609 -0.9235  1.7713  0.9901
 8302SOL     OW28693   3.684  10.247   1.794  0.1282 -0.6804  0.0794
 8302SOL    HW128694   3.737  10.317   1.834  0.4667 -1.5845  1.2928
 8302SOL    HW228695   3.659  10.192   1.868  0.7506 -2.4294 -0.9567
 8303SOL     OW28696   7.089   8.747   1.367  0.0410 -0.2166 -0.2174
 8303SOL    HW128697   7.124   8.662   1.391  1.5213  0.2117 -0.7883
 8303SOL    HW228698   7.119   8.806   1.436  0.1491  0.0924 -0.5274
 8304SOL     OW28699   1.530   5.016   2.577  0.0158  0.0330  0.2097
 8304SOL    HW128700   1.480   5.059   2.508  1.1696  0.3605 -0.4632
 8304SOL    HW228701   1.494   4.928   2.583  0.6790 -0.4169 -1.7025
 8305SOL     OW28702   3.462   1.530   7.057  0.3631 -0.0365  0.1852
 8305SOL    HW128703   3.369   1.552   7.063  0.7654  1.9104  0.0040
 8305SOL    HW228704   3.464   1.435   7.051 -1.5570 -0.1916  1.2758
 8306SOL     OW28705   4.671   9.373   3.033  0.3857  0.2711 -0.2878
 8306SOL    HW128706   4.711   9.340   3.113  0.1693 -0.5607 -0.5106
 8306SOL    HW228707   4.738   9.359   2.965  0.1879  0.0225 -0.4349
 8307SOL     OW28708   0.008   3.544   5.031 -0.8291  0.2064  0.3557
 8307SOL    HW128709  -0.070   3.556   5.085 -0.2775  1.5504  0.9021
 8307SOL    HW228710   0.073   3.603   5.069 -0.8380  2.3412 -2.5880
 8308SOL     OW28711   2.399   0.418   3.361 -0.3498  0.8761  0.8889
 8308SOL    HW128712   2.356   0.335   3.342 -0.2366  0.8086  0.9246
 8308SOL    HW228713   2.425   0.452   3.276 -0.2931  0.8195  0.8841
 8309SOL     OW28714   8.112   2.919  10.305  0.0842  0.7048 -0.1469
 8309SOL    HW128715   8.159   2.849  10.260  2.5617 -1.0868  4.5040
 8309SOL    HW228716   8.040   2.875  10.350 -0.6405  1.8719 -0.1083
 8310SOL     OW28717   3.284   2.516   1.238  0.2486 -0.0293 -0.1755
 8310SOL    HW128718   3.279   2.504   1.143  2.1518  0.6858 -0.4128
 8310SOL    HW228719   3.270   2.610   1.251  0.8692  0.0292  0.1447
 8311SOL     OW28720   5.145   8.664   0.351  0.1400  0.2087  0.1035
 8311SOL    HW128721   5.160   8.759   0.354  3.5661 -0.0497 -2.3009
 8311SOL    HW228722   5.195   8.630   0.425 -0.1763  0.2005  0.3144
 8312SOL     OW28723   6.329   2.374   8.239 -0.0819 -0.6337 -0.0301
 8312SOL    HW128724   6.321   2.445   8.175 -3.0386  0.7344  1.6450
 8312SOL    HW228725   6.306   2.295   8.190  0.9618 -0.1363 -1.3843
 8313SOL     OW28726   0.129   4.395   9.647  0.4337  0.5933 -0.2780
 8313SOL    HW128727   0.211   4.345   9.647  0.4476  0.5717 -1.8763
 8313SOL    HW228728   0.138   4.457   9.575 -0.2419  1.8394  0.6787
 8314SOL     OW28729   8.889   7.808   1.934  0.5459 -0.3631  0.1395
 8314SOL    HW128730   8.903   7.842   2.022 -0.3821 -2.1169  1.0034
 8314SOL    HW228731   8.813   7.856   1.901 -1.7821 -2.5433  1.9601
 8315SOL     OW28732   0.093   6.099   6.459 -0.0352  0.2355 -0.5705
 8315SOL    HW128733   0.130   6.037   6.523 -0.9665  3.1455  3.1224
 8315SOL    HW228734   0.169   6.148   6.427  0.1504  1.2852  1.3419
 8316SOL     OW28735   0.081   7.370   7.573 -0.3145 -0.3491 -0.7447
 8316SOL    HW128736   0.102   7.287   7.529 -0.0470 -1.3920  1.2335
 8316SOL    HW228737   0.030   7.344   7.650 -1.7467  1.5000 -1.0252
 8317SOL     OW28738   6.468  10.248   2.624  0.6404 -0.3676 -0.3741
 8317SOL    HW128739   6.501  10.237   2.713 -0.0792  0.5369  0.0242
 8317SOL    HW228740   6.438  10.160   2.599 -1.6047 -0.1954  1.3239
 8318SOL     OW28741   4.763   3.934  10.198 -0.3622  0.1975 -0.1376
 8318SOL    HW128742   4.806   4.010  10.161 -1.8504  0.4798 -1.3605
 8318SOL    HW228743   4.769   3.867  10.130 -1.4276  0.1056 -0.1648
 8319SOL     OW28744   0.925   5.247   4.490 -0.1536 -0.2809 -0.0444
 8319SOL    HW128745   0.994   5.297   4.448 -2.5356  1.4526 -2.1976
 8319SOL    HW228746   0.865   5.313   4.526 -1.7676 -1.6136 -0.1428
 8320SOL     OW28747   5.767   6.234   0.041  0.0015 -0.0368  0.6849
 8320SOL    HW128748   5.745   6.326   0.026  1.3117  0.2782  0.5464
 8320SOL    HW228749   5.840   6.217  -0.018  0.2560 -0.9525  1.2431
 8321SOL     OW28750   3.765   6.092   4.398  0.3129 -0.3464 -0.1561
 8321SOL    HW128751   3.677   6.060   4.377  0.4411 -1.8983  1.4324
 8321SOL    HW228752   3.753   6.148   4.475  0.7659 -0.9456  0.3561
 8322SOL     OW28753   4.734   9.495   6.407 -0.5354 -0.0567  0.3933
 8322SOL    HW128754   4.694   9.580   6.389  0.2754  0.1554 -0.5095
 8322SOL    HW228755   4.828   9.509   6.390 -0.3653 -1.0659  0.4632
 8323SOL     OW28756   6.834   8.733   1.485  0.8839  0.0357  0.0479
 8323SOL    HW128757   6.918   8.731   1.439  1.6361  0.9892  1.3235
 8323SOL    HW228758   6.832   8.651   1.535  0.8963 -0.1434 -0.2419
 8324SOL     OW28759   6.818   5.036   2.141  0.1146  0.2202  0.3358
 8324SOL    HW128760   6.885   5.013   2.077 -1.5295  0.7073 -1.6708
 8324SOL    HW228761   6.740   4.988   2.114 -0.7290  0.6529  1.8242
 8325SOL     OW28762   5.334   8.478   8.731  0.5700  0.0279 -0.1620
 8325SOL    HW128763   5.245   8.472   8.694  0.4999  0.3399 -0.0513
 8325SOL    HW228764   5.327   8.435   8.816  0.7646 -0.8133 -0.5651
 8326SOL     OW28765   3.031   8.807   5.907  0.0267 -0.1245 -0.2061
 8326SOL    HW128766   3.092   8.752   5.956  0.8369 -0.1109 -1.1790
 8326SOL    HW228767   2.959   8.749   5.884 -0.0764 -0.2759  0.4761
 8327SOL     OW28768   7.253   5.512   4.797 -0.1639 -0.3101  0.2780
 8327SOL    HW128769   7.234   5.485   4.707 -1.1808  0.8020  0.1261
 8327SOL    HW228770   7.306   5.442   4.833 -1.1153 -1.5615 -0.6781
 8328SOL     OW28771   8.955   6.646   0.926  0.4814  0.5851  0.2082
 8328SOL    HW128772   9.047   6.643   0.952  0.7211 -1.6841 -0.7002
 8328SOL    HW228773   8.957   6.664   0.832  0.1914 -1.6828 -0.3030
 8329SOL     OW28774   1.550   2.540   6.537 -0.2161 -0.2909 -0.4403
 8329SOL    HW128775   1.541   2.470   6.601 -0.1087 -0.8586 -1.0365
 8329SOL    HW228776   1.473   2.532   6.480 -1.0822  1.1223  0.4672
 8330SOL     OW28777   0.448   0.735   3.165 -0.1548  0.1051  0.0139
 8330SOL    HW128778   0.435   0.640   3.172  0.2028 -0.1775 -2.3930
 8330SOL    HW228779   0.497   0.747   3.083  0.0300  2.3625  0.3870
 8331SOL     OW28780  10.186   6.096  10.002  0.2035  0.6002 -0.0186
 8331SOL    HW128781  10.211   6.069  10.090 -3.0015  0.4221  0.9890
 8331SOL    HW228782  10.182   6.192  10.007 -0.3546  0.5741  0.2046
 8332SOL     OW28783   0.613   1.782   0.928 -0.1221 -0.9231 -0.3572
 8332SOL    HW128784   0.690   1.733   0.957  0.2133 -1.0399 -1.3913
 8332SOL    HW228785   0.642   1.873   0.925 -0.3036 -0.8446  0.1253
 8333SOL     OW28786   6.245   8.466   0.896  0.2162 -0.0994  0.4480
 8333SOL    HW128787   6.171   8.526   0.904  0.0333 -0.3989  1.0141
 8333SOL    HW228788   6.283   8.486   0.810  1.8943  2.8200  1.7330
 8334SOL     OW28789   0.709   8.261   8.689 -0.2379  0.2251  0.0553
 8334SOL    HW128790   0.631   8.253   8.744 -1.0840 -0.6617 -1.1895
 8334SOL    HW228791   0.765   8.324   8.734 -1.3695  0.3522  1.3395
 8335SOL     OW28792   5.160   1.795   0.817 -0.4733 -0.1309 -0.4132
 8335SOL    HW128793   5.204   1.876   0.844 -0.0046 -0.9757  1.5253
 8335SOL    HW228794   5.223   1.753   0.757 -0.4117  0.5791 -0.8621
 8336SOL     OW28795   4.619   3.698   9.781 -0.2026 -0.1045 -0.5374
 8336SOL    HW128796   4.561   3.771   9.758  1.0853  0.5863 -1.6860
 8336SOL    HW228797   4.598   3.629   9.718 -1.2765 -0.6953  0.4220
 8337SOL     OW28798   3.061   9.771   8.586  0.5126  0.1451 -0.4794
 8337SOL    HW128799   3.121   9.784   8.514 -1.0292 -1.9872 -2.3129
 8337SOL    HW228800   3.072   9.679   8.610 -0.2091  0.3794  0.8749
 8338SOL     OW28801   4.973   0.139  10.057 -0.1387  0.4424  0.2367
 8338SOL    HW128802   4.915   0.173  10.124  0.4708 -0.3903  1.2192
 8338SOL    HW228803   4.977   0.045  10.073  0.6308  0.3345 -0.4709
 8339SOL     OW28804   4.539   2.974   3.268  0.5408  0.3145 -0.4501
 8339SOL    HW128805   4.616   2.943   3.220 -0.6348 -0.7394 -1.7417
 8339SOL    HW228806   4.518   3.058   3.227  1.4472  0.9991  0.4452
 8340SOL     OW28807   5.643   0.693   3.649 -0.8060 -0.0491  0.6742
 8340SOL    HW128808   5.710   0.678   3.715 -0.8690 -1.5813  0.4419
 8340SOL    HW228809   5.656   0.783   3.620 -0.1396  0.3197  2.0415
 8341SOL     OW28810   1.031   5.608   6.725  0.0970 -0.0562  0.1529
 8341SOL    HW128811   0.996   5.519   6.720 -1.9854  0.6888  0.4598
 8341SOL    HW228812   1.063   5.617   6.814 -2.4345  0.3850  1.1070
 8342SOL     OW28813   4.293   0.232   8.466  0.4652  0.2533 -0.1136
 8342SOL    HW128814   4.376   0.258   8.427  1.6802 -1.5188  1.1289
 8342SOL    HW228815   4.285   0.138   8.446 -0.7097  0.1583  0.6877
 8343SOL     OW28816   8.145   7.444   5.512 -0.0625 -0.6624  0.2007
 8343SOL    HW128817   8.169   7.352   5.522  0.5689 -0.7881 -1.8551
 8343SOL    HW228818   8.052   7.447   5.533  0.3777 -1.2981  2.5143
 8344SOL     OW28819   7.651   4.069   8.568 -0.0332 -0.4798  0.1310
 8344SOL    HW128820   7.584   4.087   8.503  1.1291 -1.3675 -1.3643
 8344SOL    HW228821   7.733   4.099   8.528  0.7821 -1.5620  0.9298
 8345SOL     OW28822   7.246   0.517   5.569 -0.5212  0.3852  0.2723
 8345SOL    HW128823   7.265   0.601   5.526 -0.6286 -0.7402 -2.1167
 8345SOL    HW228824   7.312   0.457   5.536  0.3382 -0.2759  2.9146
 8346SOL     OW28825   3.111   5.807   2.397 -0.0677 -0.4558 -0.4930
 8346SOL    HW128826   3.159   5.838   2.474  2.1419 -1.4148 -1.3852
 8346SOL    HW228827   3.030   5.858   2.396 -0.5222 -0.8947  2.8285
 8347SOL     OW28828   2.129   7.590   2.731 -0.3092  0.4884 -0.7029
 8347SOL    HW128829   2.170   7.569   2.815  2.2598  0.5317 -1.8450
 8347SOL    HW228830   2.169   7.673   2.706 -1.6102  0.8550 -1.6191
 8348SOL     OW28831   1.597   3.459   7.458 -0.1514 -0.4473 -0.2054
 8348SOL    HW128832   1.604   3.472   7.363  0.6604  0.7477  0.0017
 8348SOL    HW228833   1.549   3.376   7.467  1.8613 -1.8769 -1.6676
 8349SOL     OW28834   1.531   9.258   5.280 -0.3034 -0.0386  0.0475
 8349SOL    HW128835   1.521   9.278   5.373 -1.0375  0.0611 -0.0432
 8349SOL    HW228836   1.548   9.164   5.277 -1.1308 -0.2030  0.2418
 8350SOL     OW28837   4.330   3.470   1.826 -0.0017  0.5140 -0.1155
 8350SOL    HW128838   4.352   3.556   1.863 -0.6423  0.2472  0.9363
 8350SOL    HW228839   4.318   3.414   1.903  0.7121 -0.5998 -0.7992
 8351SOL     OW28840   7.419   9.378   2.509 -0.4052  0.9335  0.0391
 8351SOL    HW128841   7.334   9.334   2.503 -0.3182  0.8739 -1.0921
 8351SOL    HW228842   7.477   9.312   2.546 -0.6505  0.6604 -0.0553
 8352SOL     OW28843   7.563   8.560   1.010  0.3250 -0.2106  0.3303
 8352SOL    HW128844   7.537   8.472   0.983  0.0172  0.1409 -0.5308
 8352SOL    HW228845   7.578   8.552   1.105  1.0341 -1.3655  0.1490
 8353SOL     OW28846   0.629   2.016   7.944 -0.2186 -0.3495  0.3023
 8353SOL    HW128847   0.573   2.091   7.925  0.1472 -0.0736  0.3050
 8353SOL    HW228848   0.569   1.942   7.949 -0.6341  0.0109  0.7245
 8354SOL     OW28849   6.547   1.760   0.244 -0.1642  0.4880 -0.2788
 8354SOL    HW128850   6.522   1.817   0.172  2.1608  3.1948  0.8682
 8354SOL    HW228851   6.516   1.805   0.322 -0.4742 -1.1465  0.5840
 8355SOL     OW28852   6.820   1.135   0.090 -0.8433  0.5917 -0.3460
 8355SOL    HW128853   6.828   1.065   0.155  0.4232 -0.4172 -1.5147
 8355SOL    HW228854   6.878   1.204   0.122  0.0357 -0.0382 -0.5502
 8356SOL     OW28855  10.150   5.181   7.651 -1.0092  0.4166 -0.3459
 8356SOL    HW128856  10.078   5.152   7.596 -1.7124  0.2141  0.6605
 8356SOL    HW228857  10.176   5.104   7.701 -0.9384  0.7930  0.2135
 8357SOL     OW28858   7.527   2.022   5.745  0.2897  0.1594  0.5511
 8357SOL    HW128859   7.547   1.930   5.760 -1.7780 -0.5184 -0.4976
 8357SOL    HW228860   7.554   2.038   5.655  1.6795  0.9389  1.0679
 8358SOL     OW28861   9.799   0.773   5.952 -0.2816 -0.2537 -0.0161
 8358SOL    HW128862   9.730   0.832   5.921  0.6797  0.8556 -0.0792
 8358SOL    HW228863   9.844   0.822   6.020  0.1696 -1.1454  0.3382
 8359SOL     OW28864   8.871   2.110   2.128  0.1776 -0.3499  0.3128
 8359SOL    HW128865   8.817   2.095   2.051 -0.4255  0.0572  0.6539
 8359SOL    HW228866   8.902   2.022   2.152  0.7201 -0.4347 -0.6313
 8360SOL     OW28867   0.799   5.692   9.479  0.1106 -0.0363  0.2455
 8360SOL    HW128868   0.726   5.634   9.500 -0.1116  0.5618  1.1458
 8360SOL    HW228869   0.860   5.636   9.430 -0.0708 -1.0525  1.1390
 8361SOL     OW28870   4.133   1.206   1.585 -0.0655  0.5183  0.1150
 8361SOL    HW128871   4.198   1.276   1.587  0.6127 -0.1114  0.7252
 8361SOL    HW228872   4.119   1.183   1.676 -2.9658  2.2437  0.2238
 8362SOL     OW28873   2.996   1.117   7.208 -0.2413 -0.2782 -0.1119
 8362SOL    HW128874   3.032   1.070   7.132 -0.0090 -1.4380  0.6865
 8362SOL    HW228875   3.021   1.063   7.283 -0.2454  0.9766  0.8261
 8363SOL     OW28876   7.279   3.382   0.006  0.3080 -0.2618 -0.7326
 8363SOL    HW128877   7.210   3.364   0.070  2.5740 -0.3889  1.8469
 8363SOL    HW228878   7.299   3.297  -0.033  2.8230 -1.5156  2.7769
 8364SOL     OW28879   3.041   1.768   3.329  0.1057 -0.0187  0.1451
 8364SOL    HW128880   3.132   1.797   3.337  0.0057  0.7503 -1.2788
 8364SOL    HW228881   2.996   1.840   3.285 -0.9414 -0.8590 -0.2033
 8365SOL     OW28882   5.383   3.005   3.803 -0.8665  0.1096  0.1598
 8365SOL    HW128883   5.475   3.017   3.780 -0.9427  0.2501 -0.0740
 8365SOL    HW228884   5.337   3.009   3.720 -1.0353 -0.4791  0.2219
 8366SOL     OW28885   3.226   2.380   4.818 -0.0511 -0.3114 -0.1081
 8366SOL    HW128886   3.242   2.384   4.724  0.1689  0.9356 -0.0341
 8366SOL    HW228887   3.311   2.361   4.856 -0.0378 -0.2973 -0.1309
 8367SOL     OW28888   4.327   3.737   6.029 -0.3410 -0.0189  0.2756
 8367SOL    HW128889   4.368   3.678   5.966  0.1301  0.4532  0.1391
 8367SOL    HW228890   4.259   3.782   5.979 -0.2379  0.0619  0.2102
 8368SOL     OW28891   9.675   3.671   9.851  0.1574  0.6261 -0.7865
 8368SOL    HW128892   9.596   3.630   9.887  0.2796 -0.0720 -1.2892
 8368SOL    HW228893   9.740   3.665   9.921  0.8070 -1.9177 -1.4922
 8369SOL     OW28894   0.387   4.246   6.233  0.1740 -0.3071 -0.2067
 8369SOL    HW128895   0.372   4.261   6.140 -0.3311  0.7049  0.0241
 8369SOL    HW228896   0.481   4.229   6.240  0.0471 -1.5123 -1.0200
 8370SOL     OW28897   4.769   5.876   3.952  0.2813  0.3035  0.0644
 8370SOL    HW128898   4.740   5.847   4.039  0.9696  1.1045  0.5751
 8370SOL    HW228899   4.759   5.971   3.954  2.2857  0.5526  0.0410
 8371SOL     OW28900   7.157   3.766   7.221  0.0676  0.0376 -0.2582
 8371SOL    HW128901   7.153   3.721   7.306  0.3829 -0.5228 -0.5426
 8371SOL    HW228902   7.187   3.854   7.243 -0.7337  0.1799  0.3203
 8372SOL     OW28903   1.427   4.947   1.555  0.6286 -0.6301  0.5506
 8372SOL    HW128904   1.449   4.938   1.462  0.5428 -0.8212  0.5491
 8372SOL    HW228905   1.482   5.020   1.585 -0.2606  0.2619  0.0604
 8373SOL     OW28906   0.626   1.646   5.471 -0.3493  0.2709 -0.1861
 8373SOL    HW128907   0.697   1.694   5.513 -0.6207 -1.0759  1.9921
 8373SOL    HW228908   0.669   1.569   5.434 -0.6947 -1.0422  1.9654
 8374SOL     OW28909   9.859   9.707   5.554 -0.0693  0.8419  0.1175
 8374SOL    HW128910   9.854   9.746   5.467 -0.1001  0.3716 -0.0952
 8374SOL    HW228911   9.777   9.732   5.597  0.0324  1.2368  0.0813
 8375SOL     OW28912   5.156   3.921   2.979  0.1079  0.4767 -0.3500
 8375SOL    HW128913   5.177   3.883   2.894  1.3167  0.1772  0.0549
 8375SOL    HW228914   5.116   4.005   2.959  0.7875  0.6018 -1.2164
 8376SOL     OW28915   2.827   4.202   2.999  0.1945 -0.0661  0.5157
 8376SOL    HW128916   2.895   4.202   2.931  0.2769  2.3188  0.5318
 8376SOL    HW228917   2.864   4.251   3.071 -0.4650 -1.3012  1.7552
 8377SOL     OW28918   7.056   7.898   1.905 -0.4626 -0.1921  0.4687
 8377SOL    HW128919   7.084   7.909   1.814  0.1462 -1.3172  0.5029
 8377SOL    HW228920   6.961   7.907   1.903 -0.4442 -0.1392 -0.2621
 8378SOL     OW28921   0.905   4.862   4.999 -0.2979  0.0827 -0.2613
 8378SOL    HW128922   0.814   4.863   4.968 -0.3500  0.6119 -0.0942
 8378SOL    HW228923   0.955   4.829   4.924 -0.3744  1.7197 -1.0735
 8379SOL     OW28924   3.448   0.016   5.858 -0.5062 -0.1893 -0.0166
 8379SOL    HW128925   3.411   0.098   5.890 -0.7379  0.4777 -1.8878
 8379SOL    HW228926   3.522  -0.001   5.916  0.6929  2.3391 -0.6910
 8380SOL     OW28927   8.728   8.919   3.945  0.6963  0.0445  0.5302
 8380SOL    HW128928   8.666   8.979   3.986  1.0350  0.6862  0.1240
 8380SOL    HW228929   8.710   8.834   3.985 -0.4248  0.2236  0.4240
 8381SOL     OW28930   0.286   3.901   7.864 -0.3948 -0.2928 -0.4921
 8381SOL    HW128931   0.232   3.848   7.806 -0.3102 -1.5147  0.4987
 8381SOL    HW228932   0.349   3.839   7.902 -0.4715  0.4407  0.9082
 8382SOL     OW28933   5.890   4.534   0.033 -0.3706  0.0200 -0.1371
 8382SOL    HW128934   5.839   4.513   0.111 -0.8186  0.4879 -0.3002
 8382SOL    HW228935   5.949   4.604   0.061  1.6990 -1.8866  0.6340
 8383SOL     OW28936   3.374   6.847   5.565 -0.1594  0.6845  0.3638
 8383SOL    HW128937   3.448   6.881   5.515  0.6667 -1.1224  0.3092
 8383SOL    HW228938   3.405   6.844   5.656  0.6652 -2.1030  0.0593
 8384SOL     OW28939   0.565   6.340   0.361 -0.4884 -0.6045 -0.2311
 8384SOL    HW128940   0.634   6.288   0.401  0.5055 -0.3734 -1.5956
 8384SOL    HW228941   0.498   6.276   0.336  0.0929 -1.0623 -0.6266
 8385SOL     OW28942   8.346   4.142   6.564  0.1253 -0.3435  0.1691
 8385SOL    HW128943   8.269   4.086   6.559 -1.0156  1.0728  1.2574
 8385SOL    HW228944   8.359   4.156   6.658  0.5617  0.9853 -0.0775
 8386SOL     OW28945   1.747   6.036   6.724  0.0268  0.1091  0.3680
 8386SOL    HW128946   1.668   6.079   6.692 -0.4723  0.1911  1.6266
 8386SOL    HW228947   1.795   6.010   6.645 -1.0695  0.3960 -0.4117
 8387SOL     OW28948   3.851   8.417   2.810  0.5586  0.5736 -0.0022
 8387SOL    HW128949   3.900   8.374   2.739  1.2020  1.4357 -0.1104
 8387SOL    HW228950   3.811   8.493   2.768  0.0544  0.5002  0.3399
 8388SOL     OW28951   6.948   8.313   9.677  0.1210  0.3398 -0.2322
 8388SOL    HW128952   6.972   8.286   9.765  0.2735 -0.0465 -0.3905
 8388SOL    HW228953   6.853   8.324   9.680  0.1178  0.2599 -0.0397
 8389SOL     OW28954   5.511   6.838   5.413  0.8409  0.1890  0.0589
 8389SOL    HW128955   5.421   6.842   5.380  1.5314  1.0221 -1.8544
 8389SOL    HW228956   5.526   6.925   5.450  0.8441  0.0364  0.4135
 8390SOL     OW28957   7.954   5.261   5.271 -0.1185  0.1933  0.1348
 8390SOL    HW128958   7.980   5.282   5.360  0.9175  1.8351 -0.5101
 8390SOL    HW228959   7.993   5.175   5.254 -0.2927 -0.1160  1.2236
 8391SOL     OW28960   7.493   8.155   5.542 -0.1348 -0.0283  0.1411
 8391SOL    HW128961   7.418   8.160   5.483 -1.0723 -0.6832  1.2368
 8391SOL    HW228962   7.541   8.077   5.514 -1.2473 -1.0498  0.9586
 8392SOL     OW28963   7.050   5.064   0.987  0.0304  0.0798  0.1776
 8392SOL    HW128964   7.048   5.000   1.057  0.0724 -0.2412 -0.1107
 8392SOL    HW228965   6.959   5.089   0.973 -0.1469 -0.9685 -0.6551
 8393SOL     OW28966   9.205   2.518   6.603  0.1369 -0.1429  0.8312
 8393SOL    HW128967   9.260   2.529   6.526 -0.7884  1.7630  0.3681
 8393SOL    HW228968   9.182   2.608   6.629 -2.0443 -0.8217  1.4900
 8394SOL     OW28969   0.268   3.339   8.319  0.2311  0.1195 -0.2012
 8394SOL    HW128970   0.246   3.254   8.358  0.5176  0.5966  1.0572
 8394SOL    HW228971   0.241   3.403   8.385  2.1664  0.8904 -0.0902
 8395SOL     OW28972   5.586   3.179   5.746 -0.3165 -0.7917 -0.3149
 8395SOL    HW128973   5.618   3.089   5.735 -0.8816 -1.0286 -0.0648
 8395SOL    HW228974   5.610   3.202   5.836 -1.7258 -1.3357  0.2118
 8396SOL     OW28975   3.675   5.463   0.685  0.4796 -0.3795  0.1908
 8396SOL    HW128976   3.672   5.438   0.778 -0.2835 -1.7188 -0.1634
 8396SOL    HW228977   3.608   5.531   0.677  1.1413  0.3637  0.7699
 8397SOL     OW28978   8.170   5.659   3.142 -0.0900 -0.1612  0.4717
 8397SOL    HW128979   8.239   5.599   3.170  0.7727  0.2968 -0.6032
 8397SOL    HW228980   8.210   5.712   3.073 -1.3386  0.5256  0.2342
 8398SOL     OW28981   0.405   7.095  10.311 -0.8230  0.5219 -0.5876
 8398SOL    HW128982   0.330   7.055  10.267  0.5177  0.2210 -2.7018
 8398SOL    HW228983   0.365   7.160  10.370 -2.7262  0.6599 -1.9202
 8399SOL     OW28984  10.291   5.300   4.547 -0.2835 -0.3412 -0.0156
 8399SOL    HW128985  10.270   5.274   4.457  1.2537 -1.5962 -0.0596
 8399SOL    HW228986  10.236   5.244   4.602  2.2492 -3.2158 -0.1371
 8400SOL     OW28987   7.251   0.987   4.759  0.1698  0.6925  0.0106
 8400SOL    HW128988   7.258   1.063   4.817  0.6331 -0.7667  1.9834
 8400SOL    HW228989   7.253   0.911   4.818 -0.3577 -0.8704 -1.8626
 8401SOL     OW28990   4.040   3.572   5.039 -0.1646 -0.1516  0.3922
 8401SOL    HW128991   4.085   3.611   4.964  0.4195  0.3239  0.9706
 8401SOL    HW228992   3.989   3.499   5.003 -0.0700  0.2177 -0.4868
 8402SOL     OW28993   6.883   3.620   9.541  0.0122 -0.4299  0.3717
 8402SOL    HW128994   6.839   3.695   9.581  1.6008  0.6768  0.1414
 8402SOL    HW228995   6.872   3.633   9.447 -1.0319 -1.3451  0.3501
 8403SOL     OW28996   1.876   1.805   2.719  0.2834  0.2375  0.0019
 8403SOL    HW128997   1.963   1.814   2.681  0.9724  3.1983  1.9129
 8403SOL    HW228998   1.827   1.882   2.688 -0.3714  0.6381  1.8408
 8404SOL     OW28999   8.432   7.751   1.057  0.2623  0.2943 -0.2274
 8404SOL    HW129000   8.477   7.823   1.102  0.2780 -0.0604  0.3389
 8404SOL    HW229001   8.344   7.784   1.041  0.4753  0.6919 -0.5937
 8405SOL     OW29002   6.246   1.267   4.275 -0.0047  0.7062  0.7256
 8405SOL    HW129003   6.183   1.323   4.229 -0.9114 -0.6437  0.2841
 8405SOL    HW229004   6.209   1.256   4.362  0.5964  1.4419  1.0886
 8406SOL     OW29005   1.355   8.138   0.370 -0.5268  0.1587  0.8325
 8406SOL    HW129006   1.338   8.216   0.423 -0.1007  0.7660  0.0987
 8406SOL    HW229007   1.434   8.100   0.408 -0.8566 -0.0464  1.3279
 8407SOL     OW29008   6.969   1.452   9.208  0.3967 -0.1769  0.7389
 8407SOL    HW129009   7.000   1.501   9.132 -0.0054  0.7812  1.1685
 8407SOL    HW229010   6.890   1.499   9.236  0.3233 -0.7441  1.5126
 8408SOL     OW29011   2.835   2.885   9.999  0.4999 -0.2096  0.2749
 8408SOL    HW129012   2.827   2.962  10.055  1.5303 -0.6599  1.0641
 8408SOL    HW229013   2.789   2.816  10.046  0.1786 -0.2555 -0.1003
 8409SOL     OW29014   4.912   1.711   2.752 -0.0733 -0.0486 -0.0158
 8409SOL    HW129015   4.816   1.711   2.744 -0.2604 -2.7676  0.9874
 8409SOL    HW229016   4.944   1.713   2.662 -1.2468 -2.7651 -0.6088
 8410SOL     OW29017   9.092   4.893   8.786  0.0206 -0.7121 -0.2075
 8410SOL    HW129018   9.036   4.954   8.737  2.7503  2.7054  0.5352
 8410SOL    HW229019   9.149   4.855   8.719  2.9138  3.0215 -0.2364
 8411SOL     OW29020   9.115   6.452   5.729 -0.2408 -0.5022 -0.0598
 8411SOL    HW129021   9.097   6.391   5.801  1.7870 -0.4010  0.6188
 8411SOL    HW229022   9.204   6.482   5.746 -0.7474  1.7485 -1.0503
 8412SOL     OW29023   1.136   7.492   1.032 -0.4425 -0.3600  0.4404
 8412SOL    HW129024   1.111   7.559   1.096 -1.6179 -1.5806  1.3127
 8412SOL    HW229025   1.062   7.433   1.029 -0.5551 -0.1907 -2.3595
 8413SOL     OW29026   2.819   0.780   7.452  0.1468  0.3123  0.0162
 8413SOL    HW129027   2.828   0.822   7.538  2.9643 -2.3388  1.2131
 8413SOL    HW229028   2.781   0.694   7.472 -1.6540  0.6210 -1.8078
 8414SOL     OW29029   1.321   8.627   0.309 -0.3377 -0.1859 -0.5111
 8414SOL    HW129030   1.329   8.563   0.239  0.0299 -1.2373  0.4574
 8414SOL    HW229031   1.268   8.583   0.376 -1.8330  1.2794 -0.6605
 8415SOL     OW29032   7.171   9.638   0.186  0.7333  0.2129  0.3295
 8415SOL    HW129033   7.197   9.717   0.139 -0.5893  0.8048  0.5493
 8415SOL    HW229034   7.177   9.569   0.120 -1.9632  1.1653 -1.0779
 8416SOL     OW29035   4.020   4.071   6.519 -0.2779 -0.3048 -0.1199
 8416SOL    HW129036   4.042   4.164   6.523 -0.2212 -0.3368  0.3462
 8416SOL    HW229037   4.008   4.053   6.426  0.7484 -0.0724 -0.3124
 8417SOL     OW29038  10.278   3.210   6.249 -0.9377  0.1933 -0.1790
 8417SOL    HW129039  10.275   3.189   6.342 -0.2387 -1.7866 -0.5518
 8417SOL    HW229040  10.370   3.233   6.233 -0.3892 -2.2804 -0.8788
 8418SOL     OW29041   9.323   3.211   8.863  0.2939 -0.4643  0.6215
 8418SOL    HW129042   9.242   3.207   8.812  0.6232 -3.8052  0.1009
 8418SOL    HW229043   9.320   3.296   8.907 -3.3583 -0.3096  0.4174
 8419SOL     OW29044   3.480   2.722   5.273 -0.0798 -0.3943 -0.3041
 8419SOL    HW129045   3.479   2.710   5.368 -0.1342 -3.1228 -0.5664
 8419SOL    HW229046   3.571   2.707   5.248 -0.2501 -0.7074 -0.7526
 8420SOL     OW29047   1.915   7.880   7.398  0.1558 -0.2554  0.8787
 8420SOL    HW129048   1.964   7.918   7.325 -2.2814  2.0733  0.3198
 8420SOL    HW229049   1.925   7.943   7.469  0.2374 -1.1580  1.6888
 8421SOL     OW29050   8.088   9.378   7.882  0.2139 -0.1372 -0.0992
 8421SOL    HW129051   8.153   9.418   7.824  1.2435  0.4463  1.4121
 8421SOL    HW229052   8.074   9.291   7.844  1.5198 -0.1028 -0.7512
 8422SOL     OW29053   1.877   9.006   7.433 -0.4363 -0.1818  0.0335
 8422SOL    HW129054   1.814   8.944   7.469 -1.8155  0.8136 -0.5588
 8422SOL    HW229055   1.906   8.966   7.351 -1.3347 -0.0638 -0.3551
 8423SOL     OW29056   2.112   2.864   4.058  0.0805 -0.3640  0.0996
 8423SOL    HW129057   2.155   2.795   4.007  0.5302  0.0130 -0.0347
 8423SOL    HW229058   2.106   2.938   3.998  0.9346  0.2081  0.6940
 8424SOL     OW29059   7.559   4.156   4.320  0.1174  0.0680  0.1670
 8424SOL    HW129060   7.563   4.248   4.346 -1.3745  0.5130 -1.0011
 8424SOL    HW229061   7.535   4.109   4.400 -1.1500  0.9796  0.3567
 8425SOL     OW29062   6.087   5.271  10.157  0.2555  0.4958 -0.1992
 8425SOL    HW129063   6.009   5.242  10.110  0.3943 -0.6324  0.2306
 8425SOL    HW229064   6.157   5.266  10.092  0.1176  0.7138 -0.3654
 8426SOL     OW29065   8.091   1.405   0.094 -0.0883  0.2592  0.2439
 8426SOL    HW129066   8.091   1.354   0.175 -1.0421 -0.2242 -0.0478
 8426SOL    HW229067   8.119   1.493   0.121  0.1017 -0.0232  1.0018
 8427SOL     OW29068   1.186   2.531   9.727  0.4699  0.0583 -0.0572
 8427SOL    HW129069   1.170   2.608   9.782  0.2217 -0.9628  1.3666
 8427SOL    HW229070   1.100   2.507   9.693  0.2629 -0.5761  0.8866
 8428SOL     OW29071   6.207   6.854  10.263 -0.3577  0.2785  0.0352
 8428SOL    HW129072   6.262   6.849  10.184 -0.1439  1.8633  0.0574
 8428SOL    HW229073   6.267   6.832  10.334 -0.1871  0.2686 -0.1085
 8429SOL     OW29074   6.241   2.692   4.250  0.4451  0.1547  0.4965
 8429SOL    HW129075   6.277   2.609   4.283  1.5385  0.6273  0.5092
 8429SOL    HW229076   6.244   2.751   4.325 -0.0563  0.3004  0.4057
 8430SOL     OW29077   5.702   9.618   6.130  0.3842  0.3806  0.5623
 8430SOL    HW129078   5.710   9.537   6.080  0.2073  0.9987 -0.5005
 8430SOL    HW229079   5.783   9.666   6.111  0.8785  0.1085  1.8615
 8431SOL     OW29080   3.715   8.245   1.670  0.0021 -0.5365 -0.1041
 8431SOL    HW129081   3.668   8.161   1.671  0.3330 -0.7262 -0.1441
 8431SOL    HW229082   3.783   8.235   1.737 -2.2227  1.0423  2.5747
 8432SOL     OW29083  10.227   6.330   4.337 -0.5731  0.3338  0.2178
 8432SOL    HW129084  10.176   6.323   4.256 -0.6573  2.0482  0.0935
 8432SOL    HW229085  10.174   6.384   4.395  1.0488  2.1983  0.0730
 8433SOL     OW29086   9.938   9.235   8.290  0.1476 -0.4354  0.1902
 8433SOL    HW129087   9.897   9.317   8.264 -0.5023 -0.4106  1.2471
 8433SOL    HW229088   9.893   9.168   8.238 -0.7545 -0.3252  0.7969
 8434SOL     OW29089  10.128   0.894   5.660  0.3172  0.0052  0.1832
 8434SOL    HW129090  10.188   0.958   5.622 -0.6097  0.2468 -0.9316
 8434SOL    HW229091  10.111   0.832   5.589  0.9253 -1.3154  1.1390
 8435SOL     OW29092   5.860   7.326   0.175  0.1995  0.0744 -0.2376
 8435SOL    HW129093   5.879   7.236   0.150  0.5212 -0.2877  1.2415
 8435SOL    HW229094   5.946   7.368   0.180  0.1381  0.1414  0.2643
 8436SOL     OW29095   8.145   0.641   1.552 -0.7785 -0.5413  0.0705
 8436SOL    HW129096   8.077   0.606   1.495 -0.2252 -2.0803  0.2945
 8436SOL    HW229097   8.187   0.710   1.501 -0.9785 -1.1748 -0.9692
 8437SOL     OW29098   9.802  10.045   3.789  0.2304 -0.4175  0.1346
 8437SOL    HW129099   9.893  10.048   3.760 -0.2569 -1.1207 -1.6160
 8437SOL    HW229100   9.751  10.062   3.710 -1.1766 -0.3155  1.0249
 8438SOL     OW29101   4.020   1.859   1.520  0.3285  0.3249 -0.4108
 8438SOL    HW129102   4.065   1.870   1.436  1.4993 -0.3695  0.0917
 8438SOL    HW229103   3.962   1.784   1.507 -0.2471  0.8423 -0.8843
 8439SOL     OW29104   8.273   1.190   3.596  0.0364 -0.0387  0.2074
 8439SOL    HW129105   8.359   1.231   3.591  0.8076 -1.5429  0.3665
 8439SOL    HW229106   8.212   1.256   3.564  1.0633  1.5823  1.4582
 8440SOL     OW29107   6.830   9.437   9.587  0.6063  0.4193 -0.2961
 8440SOL    HW129108   6.886   9.361   9.604 -2.4246 -1.9356 -0.0564
 8440SOL    HW229109   6.758   9.403   9.535 -1.3574  2.9381  0.5571
 8441SOL     OW29110   4.901   2.358  10.286 -0.4447  0.1495  0.3654
 8441SOL    HW129111   4.833   2.381  10.349 -1.0949  0.1083 -0.3045
 8441SOL    HW229112   4.883   2.267  10.263  0.4836 -0.2094  0.9669
 8442SOL     OW29113   7.707   2.298   2.831  0.1268 -0.1791 -0.1398
 8442SOL    HW129114   7.668   2.214   2.854 -0.6004 -0.2934 -1.6671
 8442SOL    HW229115   7.712   2.346   2.914 -2.8912 -0.3047  0.2293
 8443SOL     OW29116   3.378   5.842   2.083  0.3457 -0.7699  0.0660
 8443SOL    HW129117   3.316   5.912   2.066  0.3588 -0.5877  0.7198
 8443SOL    HW229118   3.324   5.770   2.118  0.1775 -1.4982 -1.6083
 8444SOL     OW29119   3.923   8.055   0.478 -0.4586 -0.3319 -0.1280
 8444SOL    HW129120   3.857   8.109   0.435 -0.7327  0.4247  1.1759
 8444SOL    HW229121   3.999   8.059   0.421 -1.6853 -1.7425 -1.9974
 8445SOL     OW29122   4.822   6.402   9.566 -0.3047  0.1810 -0.0856
 8445SOL    HW129123   4.842   6.490   9.535  1.9729 -0.4053 -0.4068
 8445SOL    HW229124   4.779   6.415   9.651 -0.2049  1.5821 -0.2374
 8446SOL     OW29125   4.136   6.949   2.724 -0.1465  0.0406  0.0874
 8446SOL    HW129126   4.121   6.976   2.814 -0.8437  0.1554 -0.0608
 8446SOL    HW229127   4.185   6.867   2.731 -0.1663  0.0686  0.5653
 8447SOL     OW29128   6.575   0.506   9.800 -0.3380  0.5690 -0.2353
 8447SOL    HW129129   6.600   0.595   9.824 -0.9018  0.8622 -0.7085
 8447SOL    HW229130   6.629   0.450   9.856 -0.8828  1.2154  0.9708
 8448SOL     OW29131   9.452   5.035   9.113 -0.5933  0.1966 -0.0768
 8448SOL    HW129132   9.366   5.044   9.073 -0.5424 -0.7454 -0.4359
 8448SOL    HW229133   9.434   4.997   9.200 -0.6023  0.8811  0.2231
 8449SOL     OW29134   9.175   7.776   7.083  0.3024 -0.5613 -0.4319
 8449SOL    HW129135   9.079   7.768   7.078  0.3867 -1.1399 -1.4510
 8449SOL    HW229136   9.207   7.697   7.040  1.2467 -0.4498  0.0587
 8450SOL     OW29137   5.527   7.307   1.983 -0.0241 -0.1746 -0.2322
 8450SOL    HW129138   5.461   7.340   2.044 -0.2522 -2.2102  0.7273
 8450SOL    HW229139   5.611   7.326   2.025 -0.0347  1.1390 -0.7696
 8451SOL     OW29140  10.336   7.879   8.190 -0.2299 -0.2470  0.8542
 8451SOL    HW129141  10.331   7.914   8.101 -0.9019 -1.5208  0.3721
 8451SOL    HW229142  10.260   7.822   8.198 -0.3606  0.0778  2.3648
 8452SOL     OW29143   4.530   8.157   4.733 -0.2994  0.3504 -0.5253
 8452SOL    HW129144   4.537   8.193   4.821  0.1294  0.3901 -0.5735
 8452SOL    HW229145   4.446   8.109   4.733  0.1417 -0.4510  0.2033
 8453SOL     OW29146   0.733   8.305   4.207  0.0150 -0.2029  0.0268
 8453SOL    HW129147   0.663   8.365   4.181  1.1307  1.5386  0.8801
 8453SOL    HW229148   0.801   8.318   4.142  0.1340 -0.8020  0.0299
 8454SOL     OW29149   3.131   2.968   3.277  0.5664 -0.0466 -0.0686
 8454SOL    HW129150   3.048   2.921   3.271  0.5281 -0.1977  1.2608
 8454SOL    HW229151   3.108   3.060   3.264  0.2989 -0.1642 -0.4201
 8455SOL     OW29152   8.466   5.891   5.963  0.2947 -0.0489  0.0115
 8455SOL    HW129153   8.513   5.961   6.010  0.6112 -0.3616  0.1638
 8455SOL    HW229154   8.519   5.813   5.977  0.3560 -0.1639 -0.8158
 8456SOL     OW29155  10.135   4.521   5.914  0.0100 -0.3960 -0.2443
 8456SOL    HW129156  10.221   4.489   5.885  0.4774 -0.0893  0.7933
 8456SOL    HW229157  10.073   4.466   5.865  0.7958 -1.8025  0.2655
 8457SOL     OW29158   2.720   9.090   0.046  0.4224  0.2996  0.2308
 8457SOL    HW129159   2.778   9.015   0.059  0.5906  0.5652  1.0464
 8457SOL    HW229160   2.632   9.052   0.044  0.5264  0.0498  0.3332
 8458SOL     OW29161   4.527   0.972   9.754 -0.1166  0.2871 -0.2704
 8458SOL    HW129162   4.484   0.944   9.835  0.3839 -0.4430 -0.2432
 8458SOL    HW229163   4.455   0.998   9.696 -0.4026  2.5045  0.9918
 8459SOL     OW29164   1.512   1.011   6.884  0.3373 -0.0703  0.0397
 8459SOL    HW129165   1.503   0.923   6.919  2.0529  0.3194  1.6050
 8459SOL    HW229166   1.597   1.011   6.840 -0.0432  0.5594 -0.7119
 8460SOL     OW29167   1.518   1.059   4.123  0.2256  0.1855 -0.3859
 8460SOL    HW129168   1.451   1.033   4.059 -0.7931  0.5438  0.5179
 8460SOL    HW229169   1.471   1.067   4.206  1.7464 -1.5099  0.7091
 8461SOL     OW29170   5.560   5.041   7.307 -0.4249  0.5776 -0.1660
 8461SOL    HW129171   5.470   5.020   7.333  0.0572  0.6065  1.6442
 8461SOL    HW229172   5.550   5.105   7.236 -1.8331  0.9242  0.3069
 8462SOL     OW29173   1.096   0.955  10.273  0.2334 -0.7435  0.1240
 8462SOL    HW129174   1.169   0.919  10.323  1.6470 -1.3221 -2.1832
 8462SOL    HW229175   1.102   0.913  10.187 -0.0971  2.4161 -1.6279
 8463SOL     OW29176   7.074   7.972   7.307 -0.0062 -0.1683 -0.2864
 8463SOL    HW129177   7.136   7.912   7.348 -1.0424 -0.0757  1.5152
 8463SOL    HW229178   7.128   8.028   7.252  1.2947 -1.1364 -0.0327
 8464SOL     OW29179   6.831   8.273   4.309  0.4497  0.7883 -0.2026
 8464SOL    HW129180   6.852   8.183   4.333 -1.7197 -0.0749 -1.2152
 8464SOL    HW229181   6.846   8.323   4.389 -1.0445 -0.9831  1.2892
 8465SOL     OW29182   6.434   3.936   9.095 -0.1072  0.1993  0.2348
 8465SOL    HW129183   6.509   3.893   9.134 -1.0813 -1.2963  0.5339
 8465SOL    HW229184   6.378   3.865   9.064 -1.2847  1.2690 -0.2229
 8466SOL     OW29185   0.230   0.423   6.504 -0.5998 -0.2121  0.4865
 8466SOL    HW129186   0.232   0.433   6.409 -2.3366 -0.5518  0.3895
 8466SOL    HW229187   0.320   0.402   6.528 -0.4468 -1.7440 -1.2719
 8467SOL     OW29188   6.062   3.341   9.043  0.0006  0.4436 -0.1623
 8467SOL    HW129189   6.052   3.380   8.956  1.6388  0.0344 -0.5728
 8467SOL    HW229190   6.119   3.402   9.090  0.6607 -0.2625 -0.0257
 8468SOL     OW29191   4.447   3.620   4.899  0.1194 -0.0942  0.9628
 8468SOL    HW129192   4.528   3.584   4.935  1.5917  1.4373 -0.6237
 8468SOL    HW229193   4.463   3.625   4.804 -2.5423 -1.3978  0.3476
 8469SOL     OW29194  10.201   8.567   3.122 -0.3514  0.1829  0.3415
 8469SOL    HW129195  10.206   8.505   3.195 -0.4421 -0.8058 -0.4749
 8469SOL    HW229196  10.278   8.547   3.068 -1.3097 -0.3994 -0.8464
 8470SOL     OW29197   6.162   3.105   8.856 -0.3072 -0.3656 -0.2561
 8470SOL    HW129198   6.153   3.134   8.946 -0.5108  0.4577 -0.5287
 8470SOL    HW229199   6.098   3.034   8.847  0.8471 -1.5794  0.6749
 8471SOL     OW29200   3.139   9.789   2.388 -0.4988 -0.7222 -0.2580
 8471SOL    HW129201   3.056   9.743   2.374 -1.6915  2.0047 -3.8879
 8471SOL    HW229202   3.151   9.840   2.308  3.9219  0.3048  0.8270
 8472SOL     OW29203   0.247   8.549   1.455  0.0346 -0.2953  0.4068
 8472SOL    HW129204   0.183   8.612   1.420 -0.4917 -1.8358 -1.5903
 8472SOL    HW229205   0.219   8.534   1.545 -2.2063 -0.6069 -0.2764
 8473SOL     OW29206   0.406   2.105   6.491  0.1001  0.3481 -0.6906
 8473SOL    HW129207   0.311   2.115   6.492 -0.0369 -0.8072  0.3932
 8473SOL    HW229208   0.438   2.170   6.553 -0.0595  0.1566 -0.4046
 8474SOL     OW29209   5.450   1.643   0.339 -0.3029 -0.1906 -0.2602
 8474SOL    HW129210   5.356   1.623   0.331 -0.4945 -0.5447  2.2324
 8474SOL    HW229211   5.491   1.560   0.359  0.3345  0.2187  0.1701
 8475SOL     OW29212   6.184   6.314   7.940 -0.0090  0.3934  0.1565
 8475SOL    HW129213   6.099   6.332   7.900  0.3670 -0.4076 -1.0643
 8475SOL    HW229214   6.174   6.228   7.982 -0.4131  1.2425  1.9027
 8476SOL     OW29215   9.376   0.857   7.079 -0.1864  0.3404 -0.1000
 8476SOL    HW129216   9.385   0.765   7.053  1.0325  0.3223  0.3012
 8476SOL    HW229217   9.464   0.881   7.110 -0.2049  1.9487 -1.1931
 8477SOL     OW29218   6.175   5.315   3.422 -0.4547  0.0164  0.4298
 8477SOL    HW129219   6.199   5.406   3.402 -1.9108  0.3346  0.0108
 8477SOL    HW229220   6.091   5.302   3.379 -0.9428 -1.1024  1.6461
 8478SOL     OW29221   8.570   0.852   8.729  0.1595 -0.2790 -0.0747
 8478SOL    HW129222   8.550   0.762   8.756  0.4274 -0.7198 -1.2648
 8478SOL    HW229223   8.530   0.907   8.796  0.9378 -1.3016  1.2682
 8479SOL     OW29224   0.567   5.841   7.952 -0.4811  0.0168 -0.0896
 8479SOL    HW129225   0.570   5.822   8.046  0.1604  1.2217  0.1475
 8479SOL    HW229226   0.620   5.772   7.912 -3.4900 -2.5786  0.0231
 8480SOL     OW29227   0.195  10.032   9.962 -0.3539 -0.0060  0.7526
 8480SOL    HW129228   0.227   9.959   9.909 -0.9135  0.2324  0.0750
 8480SOL    HW229229   0.252  10.033  10.039  0.3438 -0.4814  0.2487
 8481SOL     OW29230  10.256   5.701   6.253  0.0111  0.1674 -0.0859
 8481SOL    HW129231  10.249   5.795   6.264  1.5874  0.5768 -1.9288
 8481SOL    HW229232  10.255   5.688   6.158 -0.4863 -1.7034  0.1318
 8482SOL     OW29233   0.151   4.345   7.182  0.0048  0.1204  0.0727
 8482SOL    HW129234   0.244   4.367   7.194 -0.0533  0.9982 -0.9297
 8482SOL    HW229235   0.128   4.297   7.262  1.5739 -1.0137 -0.0988
 8483SOL     OW29236   3.540   0.819   3.080  0.3142  0.2596 -0.0066
 8483SOL    HW129237   3.461   0.813   3.026 -0.2632 -0.4923  0.8904
 8483SOL    HW229238   3.610   0.838   3.018 -0.4506  0.1996 -0.9120
 8484SOL     OW29239   3.454   8.557   7.234  0.2036 -0.0626  0.3912
 8484SOL    HW129240   3.544   8.527   7.250  0.7902  0.7826 -1.1167
 8484SOL    HW229241   3.432   8.608   7.313  2.9575  3.9585 -1.0619
 8485SOL     OW29242   9.853   3.115   0.615 -0.1466 -0.3553  0.0966
 8485SOL    HW129243   9.799   3.099   0.692  0.0483  1.0615  0.5600
 8485SOL    HW229244   9.793   3.105   0.541 -0.4728 -1.1270  0.4496
 8486SOL     OW29245   5.961   4.808   1.956  0.4523 -0.0905  0.3407
 8486SOL    HW129246   5.912   4.785   1.877  0.6724 -1.2349  0.5230
 8486SOL    HW229247   5.989   4.898   1.941 -0.0444 -0.0772 -0.6100
 8487SOL     OW29248   3.339   2.144   1.896 -0.4701  0.8154 -0.1981
 8487SOL    HW129249   3.393   2.216   1.862  0.1786  0.3255 -0.2321
 8487SOL    HW229250   3.252   2.161   1.861 -1.1517  3.3663  2.3434
 8488SOL     OW29251   7.217   2.725   6.699  0.1663  0.1263 -0.0429
 8488SOL    HW129252   7.285   2.663   6.673  0.2490  0.4268 -0.5665
 8488SOL    HW229253   7.135   2.676   6.691  0.0735  0.5292 -2.0225
 8489SOL     OW29254   7.072   2.625   6.439  0.3007 -0.4438  0.2234
 8489SOL    HW129255   7.111   2.711   6.421  0.4107 -0.6147 -0.3989
 8489SOL    HW229256   7.135   2.563   6.404 -1.6569 -0.6889 -3.3133
 8490SOL     OW29257   5.456   4.948   8.441 -0.2715  0.0871  0.7014
 8490SOL    HW129258   5.435   5.015   8.505 -1.3329 -0.6826  1.1978
 8490SOL    HW229259   5.416   4.978   8.360 -0.1568  0.3802  0.7537
 8491SOL     OW29260   1.482   3.934   4.273 -0.0050  0.3893  0.0347
 8491SOL    HW129261   1.400   3.885   4.264  0.7204 -1.5358  2.8456
 8491SOL    HW229262   1.521   3.932   4.185 -1.0516 -2.2286 -0.4621
 8492SOL     OW29263   0.099   7.011   3.998 -0.1288 -0.1699 -0.3226
 8492SOL    HW129264   0.070   6.931   3.955 -2.3933 -0.6470  1.8482
 8492SOL    HW229265   0.098   6.989   4.091  1.5044  1.7174  0.1911
 8493SOL     OW29266   4.153   5.781   7.377  0.1214  0.9268 -0.9770
 8493SOL    HW129267   4.160   5.687   7.391  1.4552  0.4941 -3.8744
 8493SOL    HW229268   4.081   5.808   7.435  0.1601 -1.6906  0.4669
 8494SOL     OW29269   8.325   8.201   7.725  0.5757 -0.1151 -0.5061
 8494SOL    HW129270   8.294   8.207   7.634  1.3307 -1.5824 -0.8813
 8494SOL    HW229271   8.414   8.236   7.722  0.9431 -1.0320 -0.5303
 8495SOL     OW29272   9.701   9.874   7.554 -0.2740 -0.2094 -0.2796
 8495SOL    HW129273   9.681   9.782   7.570 -0.1792  0.2685  3.5806
 8495SOL    HW229274   9.797   9.878   7.555 -0.2644  0.0841  1.4690
 8496SOL     OW29275   2.101   3.879   9.187 -0.3454 -0.4857 -0.1594
 8496SOL    HW129276   2.038   3.843   9.250  0.0569 -0.1301  0.4554
 8496SOL    HW229277   2.151   3.943   9.237 -1.1579  1.0984 -1.2646
 8497SOL     OW29278   3.721   7.107   2.415  0.4448  0.4947 -0.2534
 8497SOL    HW129279   3.797   7.051   2.394  0.9334  1.8682 -2.5229
 8497SOL    HW229280   3.747   7.152   2.495  1.2076 -0.4645  0.0706
 8498SOL     OW29281   7.999   4.352   3.573  0.1680 -0.5554 -0.0481
 8498SOL    HW129282   8.053   4.314   3.503 -1.8081 -0.8451 -1.4912
 8498SOL    HW229283   8.009   4.446   3.563 -0.2841 -0.5860 -0.9192
 8499SOL     OW29284   1.227   7.006   8.848 -0.4456  0.3868  0.3818
 8499SOL    HW129285   1.158   7.014   8.914 -0.9013 -0.8203  0.0757
 8499SOL    HW229286   1.182   6.973   8.770  0.3340  0.4044 -0.0870
 8500SOL     OW29287   7.169   9.012   9.578 -0.4975  1.0013 -0.1727
 8500SOL    HW129288   7.165   8.948   9.507  1.0749  0.4136  0.2286
 8500SOL    HW229289   7.169   8.958   9.658  0.6369  1.4986  0.1748
 8501SOL     OW29290   4.505   6.296   3.869 -1.0700 -0.5750  0.1123
 8501SOL    HW129291   4.582   6.258   3.911 -0.2504 -0.4617 -1.2371
 8501SOL    HW229292   4.481   6.369   3.925 -0.3602 -0.7821  0.7003
 8502SOL     OW29293   6.694   4.409   9.463 -0.0583 -0.5396  0.4513
 8502SOL    HW129294   6.700   4.500   9.436  0.1243 -0.6174  0.2256
 8502SOL    HW229295   6.755   4.363   9.405 -0.3954 -0.8521  0.3390
 8503SOL     OW29296   1.836   3.556   4.770 -0.2214 -0.2325  0.4780
 8503SOL    HW129297   1.866   3.619   4.705 -0.7737  1.3100  1.6727
 8503SOL    HW229298   1.753   3.523   4.735  0.9843 -1.8162 -1.0824
 8504SOL     OW29299   1.342   1.627   6.692  0.3450 -1.0196 -0.2393
 8504SOL    HW129300   1.338   1.691   6.763 -2.3607 -1.8753  0.5023
 8504SOL    HW229301   1.272   1.652   6.632  0.9475 -1.7795 -1.2965
 8505SOL     OW29302   5.761   5.745   5.339 -0.4033 -0.4640  0.1288
 8505SOL    HW129303   5.731   5.699   5.260 -0.4352  0.8447 -0.6625
 8505SOL    HW229304   5.808   5.821   5.305  2.8087 -1.7454  1.3329
 8506SOL     OW29305   9.795   5.294   9.763 -0.2570  0.0288  0.3218
 8506SOL    HW129306   9.888   5.291   9.743 -0.6004 -2.3047 -1.2880
 8506SOL    HW229307   9.790   5.275   9.857  0.9181  1.9017  0.8224
 8507SOL     OW29308   1.977   9.246   0.500  0.4411  0.1041  0.1755
 8507SOL    HW129309   2.060   9.292   0.515  1.0241 -0.7751 -0.2209
 8507SOL    HW229310   1.943   9.228   0.588  1.0839 -0.2229  0.3664
 8508SOL     OW29311   7.304   6.427   7.079  0.1019  0.1212  0.2867
 8508SOL    HW129312   7.306   6.331   7.081 -0.3638  0.1104  0.5013
 8508SOL    HW229313   7.380   6.454   7.130  1.3763 -0.1206 -1.3979
 8509SOL     OW29314   7.749   7.027   6.120 -0.3124  0.2975 -0.6379
 8509SOL    HW129315   7.806   7.003   6.193  0.0293  0.8653 -0.7074
 8509SOL    HW229316   7.765   7.121   6.107  0.5307 -0.0279 -2.2109
 8510SOL     OW29317   1.585   0.540   3.543 -0.1532  0.3949 -0.0456
 8510SOL    HW129318   1.615   0.558   3.454 -1.4493  1.1404 -0.3490
 8510SOL    HW229319   1.600   0.621   3.591  0.5725 -0.0147  0.4470
 8511SOL     OW29320   3.864   4.129   2.805  0.2697 -0.3533  0.1478
 8511SOL    HW129321   3.945   4.092   2.839  0.3525  0.4684  0.8812
 8511SOL    HW229322   3.872   4.122   2.709  1.4063  0.1419  0.1963
 8512SOL     OW29323   6.021   6.609   2.274  0.0999  0.5423  0.4546
 8512SOL    HW129324   6.085   6.678   2.256 -0.5947  0.9802 -0.4338
 8512SOL    HW229325   6.063   6.529   2.242  1.5758  0.2342  2.9308
 8513SOL     OW29326   7.381   4.791   2.819  0.1576 -0.2320  0.0461
 8513SOL    HW129327   7.464   4.806   2.865  0.9481 -0.2497 -1.3269
 8513SOL    HW229328   7.318   4.848   2.863  1.6810  2.4662 -1.0809
 8514SOL     OW29329   1.297   8.230   1.104 -0.4349  0.0733 -0.6443
 8514SOL    HW129330   1.204   8.219   1.124  0.0320 -0.6557  1.5121
 8514SOL    HW229331   1.340   8.162   1.157  1.3796  1.0047 -0.8539
 8515SOL     OW29332   2.501   3.515   4.155 -0.1441 -0.0301  0.5305
 8515SOL    HW129333   2.471   3.490   4.242 -0.5977 -1.3863  0.0084
 8515SOL    HW229334   2.514   3.432   4.109 -0.4869  0.6645 -0.8918
 8516SOL     OW29335   0.587   8.559   7.332  0.3587  0.0169 -0.2259
 8516SOL    HW129336   0.659   8.594   7.385  0.7211 -0.6042 -0.3051
 8516SOL    HW229337   0.605   8.466   7.326 -0.5054 -0.1595 -0.1738
 8517SOL     OW29338   9.099   7.510   6.846  0.2834  0.1970 -0.1578
 8517SOL    HW129339   9.038   7.511   6.919 -0.5962 -1.1377 -0.8326
 8517SOL    HW229340   9.138   7.423   6.848 -0.8572 -0.4218 -2.1320
 8518SOL     OW29341   9.644   7.532   6.435  0.6103  0.5361 -0.0391
 8518SOL    HW129342   9.716   7.591   6.454  2.3279 -1.7201  0.8452
 8518SOL    HW229343   9.664   7.452   6.483 -2.8185 -0.0083  0.7851
 8519SOL     OW29344   7.908   1.394   1.613 -0.0406 -0.5290  0.5823
 8519SOL    HW129345   7.931   1.470   1.665  1.2032  0.3561 -1.1435
 8519SOL    HW229346   7.991   1.348   1.600 -0.4005 -0.9943 -0.1684
 8520SOL     OW29347   1.358   0.739   3.046  0.1307 -0.2741  0.2634
 8520SOL    HW129348   1.390   0.697   3.126 -0.5495 -0.7924  0.2776
 8520SOL    HW229349   1.294   0.677   3.011  0.7319 -0.2422 -0.9138
 8521SOL     OW29350   8.895   5.558   5.064 -0.6239  0.1178 -0.1664
 8521SOL    HW129351   8.931   5.470   5.071 -0.4686  0.2412  0.7098
 8521SOL    HW229352   8.918   5.587   4.976 -2.7506 -1.6167 -1.3905
 8522SOL     OW29353   6.918   2.211   2.619 -0.4354  0.0697 -0.2944
 8522SOL    HW129354   6.930   2.305   2.601  0.7836  0.1405  0.6886
 8522SOL    HW229355   6.902   2.172   2.534  0.1928  1.0342 -0.8806
 8523SOL     OW29356   4.678   9.004   4.410 -0.2128  0.2574 -0.0046
 8523SOL    HW129357   4.621   9.076   4.436  1.1368  1.0470  0.8956
 8523SOL    HW229358   4.638   8.926   4.450 -0.9848  0.6867  0.0795
 8524SOL     OW29359  10.098  10.110   7.400  0.1693 -0.4649 -0.6450
 8524SOL    HW129360  10.083  10.181   7.337 -2.0994 -0.1783  0.1124
 8524SOL    HW229361  10.150  10.151   7.469 -1.5517  0.7283  0.0485
 8525SOL     OW29362   9.244   7.970   8.965 -0.3853  0.3201  0.6945
 8525SOL    HW129363   9.334   7.954   8.936 -0.9593 -0.0594 -0.9924
 8525SOL    HW229364   9.243   8.063   8.990  0.2949  0.5222  0.0110
 8526SOL     OW29365   2.559   5.645   9.176 -0.4607 -0.0219  0.1335
 8526SOL    HW129366   2.524   5.640   9.265  1.1992  1.0210  0.8879
 8526SOL    HW229367   2.560   5.739   9.157  0.5843 -0.1312 -0.4067
 8527SOL     OW29368   2.579   5.481   3.466  0.6258 -0.2838 -0.6087
 8527SOL    HW129369   2.647   5.413   3.457  0.7199 -0.1663 -0.7934
 8527SOL    HW229370   2.498   5.436   3.445  0.4612 -0.7740  0.9340
 8528SOL     OW29371   3.290   3.910   4.313  0.0013  0.2491  0.3126
 8528SOL    HW129372   3.199   3.896   4.286  0.4483 -0.7486 -0.7705
 8528SOL    HW229373   3.332   3.826   4.298  1.2263  0.8563  0.2833
 8529SOL     OW29374   8.394   6.297  10.231  0.1338 -0.6300  0.2219
 8529SOL    HW129375   8.451   6.373  10.238  1.2388 -1.4404  0.3087
 8529SOL    HW229376   8.391   6.277  10.137 -0.2240 -0.4360  0.1899
 8530SOL     OW29377   5.267   1.365   2.738 -0.3727  0.0318 -0.2784
 8530SOL    HW129378   5.243   1.331   2.652  1.4427  0.1735 -0.8810
 8530SOL    HW229379   5.349   1.320   2.759 -0.1383  0.9388  0.8108
 8531SOL     OW29380   8.231   5.489   0.915  0.1475 -0.3806  0.2471
 8531SOL    HW129381   8.146   5.513   0.952  0.5792  2.1727 -0.1939
 8531SOL    HW229382   8.213   5.480   0.821  0.2965 -0.0885  0.1888
 8532SOL     OW29383   1.143   7.702   1.897 -0.5556 -0.0371  0.1718
 8532SOL    HW129384   1.222   7.733   1.940  0.2101  0.5004 -1.5659
 8532SOL    HW229385   1.155   7.607   1.892 -1.5256 -0.3949  2.7455
 8533SOL     OW29386   1.014  10.062   8.357  0.4689 -0.2969  0.0064
 8533SOL    HW129387   1.099  10.106   8.360 -0.4770  1.7320 -0.5968
 8533SOL    HW229388   1.022   9.989   8.418  2.0166  1.0443  1.5281
 8534SOL     OW29389   6.828   7.668  10.128  0.7172 -0.4398 -0.0383
 8534SOL    HW129390   6.791   7.753  10.153  3.4376  1.1480 -0.9085
 8534SOL    HW229391   6.814   7.612  10.203 -1.4944  0.6471  0.4388
 8535SOL     OW29392   0.615   3.723   6.962  0.0717  0.5769 -0.6904
 8535SOL    HW129393   0.548   3.673   7.008  1.5441  0.7596  1.7771
 8535SOL    HW229394   0.692   3.667   6.961  1.1708  1.9858  0.4065
 8536SOL     OW29395  10.244   7.384   1.713  0.4860 -0.0310 -0.0124
 8536SOL    HW129396  10.289   7.408   1.794  1.2811 -1.9043  0.1567
 8536SOL    HW229397  10.166   7.440   1.711  1.4569  1.4217  1.0328
 8537SOL     OW29398   0.382   9.589   4.136  0.0236  0.0360  0.0754
 8537SOL    HW129399   0.381   9.594   4.232 -0.6445 -0.0463  0.0772
 8537SOL    HW229400   0.408   9.498   4.118 -1.0581 -0.3185  0.2049
 8538SOL     OW29401   2.220   2.657   3.520  0.2491  0.4744  0.1203
 8538SOL    HW129402   2.215   2.654   3.425 -0.2160  1.3015  0.1122
 8538SOL    HW229403   2.192   2.745   3.543 -1.9027 -0.3784  1.1458
 8539SOL     OW29404   9.131   4.445   9.309  0.5278 -0.4612  0.1804
 8539SOL    HW129405   9.197   4.422   9.243  1.3814  0.8200  0.5512
 8539SOL    HW229406   9.069   4.501   9.261 -1.2755 -2.9543 -0.5965
 8540SOL     OW29407   2.547   2.836   8.178 -0.0258 -0.4005  0.0296
 8540SOL    HW129408   2.530   2.778   8.252 -0.9249 -0.6690 -0.3809
 8540SOL    HW229409   2.464   2.882   8.163  0.8181  1.4813  0.7422
 8541SOL     OW29410   0.960   4.750   9.104 -0.8641  0.2647  0.2264
 8541SOL    HW129411   0.931   4.836   9.075  1.0212  0.7924 -0.2346
 8541SOL    HW229412   1.042   4.767   9.151  0.5180 -1.4189 -1.4338
 8542SOL     OW29413   4.108   5.771   1.814  0.0946 -0.2252  0.1018
 8542SOL    HW129414   4.036   5.724   1.857  0.0323 -0.3142 -0.0986
 8542SOL    HW229415   4.065   5.839   1.762  0.2335  0.7147  1.1796
 8543SOL     OW29416   5.635   4.757   8.381  0.2090  0.1776 -0.3245
 8543SOL    HW129417   5.585   4.825   8.425 -0.7743 -0.4656 -0.4159
 8543SOL    HW229418   5.668   4.701   8.452  0.7658  0.5731 -0.2674
 8544SOL     OW29419   9.564   1.711   2.018  0.6006  0.1546  0.2423
 8544SOL    HW129420   9.496   1.773   1.993  0.2806 -0.6873 -1.0791
 8544SOL    HW229421   9.558   1.641   1.953  1.3879 -0.9378  1.2989
 8545SOL     OW29422   1.801   3.247   4.729 -0.1838  0.2321  0.1914
 8545SOL    HW129423   1.890   3.278   4.744  2.2062 -5.1528 -0.3918
 8545SOL    HW229424   1.792   3.246   4.633 -0.6669  0.2221  0.2323
 8546SOL     OW29425   7.421   8.784   4.939 -0.2757  0.7719 -0.7477
 8546SOL    HW129426   7.395   8.743   4.856 -1.5642 -0.7013  0.3445
 8546SOL    HW229427   7.516   8.777   4.939 -0.3284 -0.3801 -1.5398
 8547SOL     OW29428   7.756  10.318   4.967  0.1531  0.2513 -0.1597
 8547SOL    HW129429   7.741  10.409   4.993  1.0444  0.3311  0.1028
 8547SOL    HW229430   7.710  10.266   5.033 -2.2778  0.4904 -1.5281
 8548SOL     OW29431   7.459   4.136   5.657 -0.2925 -0.0220 -0.1967
 8548SOL    HW129432   7.459   4.215   5.711  2.2919  1.5075 -2.2107
 8548SOL    HW229433   7.543   4.094   5.674 -1.2208 -1.8793  0.1088
 8549SOL     OW29434   1.726   5.216   7.171 -0.3478 -0.1737 -0.1993
 8549SOL    HW129435   1.647   5.173   7.137 -0.9233  0.5259  0.2172
 8549SOL    HW229436   1.762   5.263   7.096  0.1986 -1.2190 -0.6207
 8550SOL     OW29437   1.528   0.305   3.241 -0.7349 -0.4423  0.2080
 8550SOL    HW129438   1.530   0.284   3.148 -0.1774 -0.4775  0.2275
 8550SOL    HW229439   1.445   0.351   3.253 -0.8659 -0.5467 -0.2808
 8551SOL     OW29440   4.757  10.233   0.293  0.1592 -0.0062  0.2399
 8551SOL    HW129441   4.848  10.257   0.306 -0.7539  3.8090  0.6483
 8551SOL    HW229442   4.728  10.199   0.378  0.4929  1.6305  1.0482
 8552SOL     OW29443   8.454   1.865   7.394 -0.7245  0.2607 -0.0659
 8552SOL    HW129444   8.468   1.956   7.365 -0.0641  0.6073  1.2636
 8552SOL    HW229445   8.376   1.869   7.449  1.0539  0.6795  2.5944
 8553SOL     OW29446   8.962   3.520   7.395 -0.3141  0.3927 -0.4039
 8553SOL    HW129447   9.047   3.503   7.436  0.3975 -0.4842 -2.1459
 8553SOL    HW229448   8.984   3.564   7.313 -1.7710  3.5642  0.7342
 8554SOL     OW29449   7.644   9.910   6.279  0.5065 -0.3517 -0.1698
 8554SOL    HW129450   7.642   9.839   6.216  0.7793  0.1195 -0.7158
 8554SOL    HW229451   7.727   9.955   6.262 -0.3425  0.9998 -0.8300
 8555SOL     OW29452   8.666   0.939   9.724 -0.0667  0.4774  0.1871
 8555SOL    HW129453   8.724   0.863   9.711 -1.0582 -0.0688 -1.2495
 8555SOL    HW229454   8.578   0.901   9.730 -0.6040  1.5346 -0.8222
 8556SOL     OW29455   3.239   8.870   5.312 -0.1761  0.0429 -0.7637
 8556SOL    HW129456   3.250   8.888   5.219 -0.9978 -0.3628 -0.9500
 8556SOL    HW229457   3.150   8.900   5.332  0.6245  1.8191  0.3197
 8557SOL     OW29458   9.143   0.294   1.932 -0.4232 -0.1135 -0.2407
 8557SOL    HW129459   9.118   0.329   1.846 -1.0243  0.7495  0.2754
 8557SOL    HW229460   9.203   0.359   1.968 -2.3737  1.0026  1.1804
 8558SOL     OW29461   3.525   2.471   3.279 -0.6905  0.3170 -0.1543
 8558SOL    HW129462   3.447   2.417   3.266 -1.0812  1.0525 -1.0369
 8558SOL    HW229463   3.509   2.516   3.362 -0.3198 -0.9606  0.6285
 8559SOL     OW29464   4.643   4.600   9.913  0.1750 -0.1113 -0.0011
 8559SOL    HW129465   4.561   4.603   9.962  0.0214 -3.4729  0.1200
 8559SOL    HW229466   4.620   4.638   9.828 -1.5115 -0.9524  0.0359
 8560SOL     OW29467   8.597  10.224   0.900 -0.2466  0.0931  0.5072
 8560SOL    HW129468   8.620  10.134   0.923 -1.1070 -0.5871 -1.0949
 8560SOL    HW229469   8.580  10.267   0.984  2.1723 -0.6258  1.4298
 8561SOL     OW29470   4.748   7.245   4.377 -0.5070  0.4537 -0.3572
 8561SOL    HW129471   4.720   7.190   4.303  0.3846  0.5288 -0.7646
 8561SOL    HW229472   4.696   7.324   4.369 -0.8523  0.2096 -0.5508
 8562SOL     OW29473   7.158   6.881   2.178  0.4376 -0.5491 -0.3821
 8562SOL    HW129474   7.102   6.951   2.144  1.3242 -0.3969 -1.6181
 8562SOL    HW229475   7.119   6.801   2.144 -3.0821 -1.2820  4.3740
 8563SOL     OW29476   8.061   6.085   3.458  0.0208  0.0419 -0.1188
 8563SOL    HW129477   7.996   6.072   3.389 -1.6269 -1.3992  1.5868
 8563SOL    HW229478   8.051   6.176   3.484 -1.4885 -0.1955  0.2256
 8564SOL     OW29479   6.496   3.512   4.661  0.4079 -0.4503 -0.8739
 8564SOL    HW129480   6.412   3.557   4.657  0.3423 -0.2548  1.6405
 8564SOL    HW229481   6.483   3.441   4.723  2.3744  0.2396  0.4075
 8565SOL     OW29482   1.913   8.095   6.076 -0.2365  0.1664 -0.7059
 8565SOL    HW129483   1.949   8.059   5.995  1.9734  0.2361  0.1819
 8565SOL    HW229484   1.979   8.158   6.105 -0.8548 -0.0520  1.2859
 8566SOL     OW29485   5.424   7.577   2.702  0.3803  0.0433  0.2049
 8566SOL    HW129486   5.381   7.499   2.737  0.3958  0.4405  1.1238
 8566SOL    HW229487   5.355   7.624   2.656  0.1958 -0.1150  0.3205
 8567SOL     OW29488   7.021  10.165   5.659  0.5564 -0.0977  0.1505
 8567SOL    HW129489   7.100  10.156   5.712  0.8474 -0.8824 -0.3918
 8567SOL    HW229490   7.033  10.247   5.611  0.4576  0.4269  1.0028
 8568SOL     OW29491   8.298   1.785   1.618 -0.2482  0.3666 -0.1509
 8568SOL    HW129492   8.386   1.755   1.599 -0.2497 -0.5098  1.0559
 8568SOL    HW229493   8.293   1.784   1.714 -0.4382  3.7643  0.0038
 8569SOL     OW29494   3.068   7.012   9.328  0.5697 -0.5370  0.1822
 8569SOL    HW129495   3.108   7.043   9.247 -0.7541 -0.4734 -0.4702
 8569SOL    HW229496   3.141   7.005   9.390  1.3588  1.0001 -0.5232
 8570SOL     OW29497   5.912   7.292   4.780 -0.9938 -0.5274  0.7624
 8570SOL    HW129498   5.983   7.237   4.747  0.8781  2.2580 -0.2363
 8570SOL    HW229499   5.941   7.320   4.867 -1.4945 -0.3649  0.8842
 8571SOL     OW29500   0.433   9.352   3.261 -0.3743  0.3473 -0.0551
 8571SOL    HW129501   0.385   9.325   3.183 -2.3367  1.3614  0.7397
 8571SOL    HW229502   0.386   9.311   3.334 -0.1626  1.5346  0.7741
 8572SOL     OW29503   5.633   4.968   0.564  0.2136  0.3252  0.3839
 8572SOL    HW129504   5.706   4.916   0.598  0.3408  0.3394  0.1348
 8572SOL    HW229505   5.602   4.919   0.489 -0.5325 -0.0753  0.9462
 8573SOL     OW29506   9.805   2.028   2.790 -0.2105 -0.0726  0.2921
 8573SOL    HW129507   9.780   2.117   2.814  0.5597  0.1151  0.4265
 8573SOL    HW229508   9.760   1.973   2.854 -0.8460  0.2017  0.0910
 8574SOL     OW29509   2.320   9.935   9.606 -0.1288  0.2985  0.4209
 8574SOL    HW129510   2.308  10.029   9.596 -2.0739 -0.0116 -0.6545
 8574SOL    HW229511   2.287   9.915   9.694 -0.1354  0.5656  0.4772
 8575SOL     OW29512   2.312   1.018  10.150 -0.5822 -0.1517 -0.0071
 8575SOL    HW129513   2.378   1.080  10.120  0.6092 -0.3115  2.0677
 8575SOL    HW229514   2.268   0.989  10.071  0.7745  1.1655 -1.3026
 8576SOL     OW29515   4.920   6.296   3.238  0.2226  0.3522  0.4387
 8576SOL    HW129516   4.977   6.241   3.185  0.4489 -0.6056  1.6283
 8576SOL    HW229517   4.857   6.333   3.176  0.5458 -0.6374 -0.4959
 8577SOL     OW29518   1.891   4.601   3.065 -0.2377 -0.3223 -0.1431
 8577SOL    HW129519   1.943   4.680   3.080 -0.4821 -0.3426  0.8754
 8577SOL    HW229520   1.802   4.625   3.091 -0.6621 -0.4359 -1.4217
 8578SOL     OW29521   8.737   7.453   7.899  0.1002  0.1219 -0.1108
 8578SOL    HW129522   8.814   7.478   7.849  0.2660  1.1789  0.6583
 8578SOL    HW229523   8.667   7.509   7.865 -0.5147 -1.2699 -1.2548
 8579SOL     OW29524   3.892   3.837   9.561  0.1838 -0.0530 -0.0403
 8579SOL    HW129525   3.881   3.825   9.655  1.9843  2.0850  0.5226
 8579SOL    HW229526   3.863   3.927   9.545  2.4045  0.5580 -1.0053
 8580SOL     OW29527   9.707   8.355   7.887  0.1983 -0.0843 -0.3177
 8580SOL    HW129528   9.721   8.264   7.912  0.6418 -0.0352 -0.3634
 8580SOL    HW229529   9.736   8.405   7.963  3.5745  0.1516 -1.5712
 8581SOL     OW29530   4.549   2.482   7.027 -0.4527 -0.2037 -0.4369
 8581SOL    HW129531   4.638   2.500   6.998  1.2299 -2.0972  2.9564
 8581SOL    HW229532   4.539   2.534   7.107 -2.7196  0.4731 -1.0726
 8582SOL     OW29533   5.549   5.903   8.595 -0.0323 -0.4203  0.1306
 8582SOL    HW129534   5.479   5.884   8.532  0.4292 -0.4935 -0.3640
 8582SOL    HW229535   5.591   5.982   8.562  0.6427 -0.8366 -0.0259
 8583SOL     OW29536   1.645   7.144   6.684  0.1021 -0.2275 -0.4433
 8583SOL    HW129537   1.732   7.171   6.656  1.0920 -3.5066 -0.9713
 8583SOL    HW229538   1.654   7.126   6.778  0.4255 -1.7850 -0.7381
 8584SOL     OW29539   6.747   6.092   7.951  0.3594 -0.3325  0.2543
 8584SOL    HW129540   6.653   6.101   7.964  0.1630  1.7528 -1.8162
 8584SOL    HW229541   6.755   6.033   7.876  0.5435  0.7786 -0.6450
 8585SOL     OW29542   4.568   9.229   7.747  0.3719  0.0930  0.7454
 8585SOL    HW129543   4.660   9.240   7.770  0.0713 -1.1974  2.7135
 8585SOL    HW229544   4.520   9.277   7.814 -0.5046 -3.1120  2.6183
 8586SOL     OW29545   6.351   6.981   5.097 -0.2357  0.4594  0.0665
 8586SOL    HW129546   6.398   6.900   5.076 -0.2409  0.5599 -0.3309
 8586SOL    HW229547   6.407   7.051   5.064 -0.0975  0.6357  0.6623
 8587SOL     OW29548   0.688   2.789   6.268  0.0910  0.0105 -0.1056
 8587SOL    HW129549   0.632   2.768   6.342 -0.7358  0.2870 -0.6367
 8587SOL    HW229550   0.713   2.704   6.232 -2.7919 -0.2138 -1.9120
 8588SOL     OW29551   1.414   1.781   5.139 -0.6826 -0.0719  0.4899
 8588SOL    HW129552   1.404   1.697   5.094 -0.1222  0.9910 -1.7599
 8588SOL    HW229553   1.328   1.822   5.133 -0.3752  0.4582 -0.4899
 8589SOL     OW29554   6.293   0.592   7.155 -0.1269 -0.7551  0.5099
 8589SOL    HW129555   6.351   0.530   7.110  0.9390  1.1675 -0.9069
 8589SOL    HW229556   6.208   0.581   7.111  0.5576  0.1322 -1.0984
 8590SOL     OW29557   6.955   2.200   9.734 -0.1588 -0.2884  0.2206
 8590SOL    HW129558   6.958   2.221   9.827 -0.8913 -0.9661  0.4098
 8590SOL    HW229559   6.878   2.246   9.701  0.6436  0.7447 -0.2761
 8591SOL     OW29560   1.857   3.645   1.065  1.1748  0.4232 -0.3149
 8591SOL    HW129561   1.852   3.585   1.139  2.2465 -1.0259 -1.3655
 8591SOL    HW229562   1.885   3.728   1.104  0.4096  0.0609  1.0610
 8592SOL     OW29563   6.961   5.770   7.621  0.6003  0.3372 -0.3932
 8592SOL    HW129564   7.050   5.784   7.588  0.1160  0.6785 -1.6029
 8592SOL    HW229565   6.962   5.807   7.709  1.1897  1.9825 -1.0426
 8593SOL     OW29566   9.471   0.135   9.902 -0.1033  0.2489 -0.9276
 8593SOL    HW129567   9.500   0.083   9.826  0.0710  0.6635 -1.1465
 8593SOL    HW229568   9.401   0.191   9.867  0.7243  1.2292 -1.0453
 8594SOL     OW29569   2.131   4.249   3.318 -0.0006 -0.0749 -0.6571
 8594SOL    HW129570   2.110   4.222   3.229  1.3644 -0.3803 -0.9202
 8594SOL    HW229571   2.191   4.323   3.307 -0.7746  0.6793  0.0364
 8595SOL     OW29572   8.333   9.926   6.528 -0.2129 -0.1741  0.1990
 8595SOL    HW129573   8.321   9.966   6.614  2.1498  1.5854 -0.1861
 8595SOL    HW229574   8.407   9.866   6.540  1.3630  1.4268 -0.9114
 8596SOL     OW29575   9.063   3.077   4.324 -0.3161 -0.6785 -0.6338
 8596SOL    HW129576   9.023   3.001   4.366  0.0515 -1.0533 -0.9511
 8596SOL    HW229577   9.059   3.146   4.389 -0.2512 -1.0999 -0.1794
 8597SOL     OW29578   2.149   6.570   8.348 -0.4409 -0.0846 -0.9054
 8597SOL    HW129579   2.071   6.626   8.355  0.4517  1.0061  0.9467
 8597SOL    HW229580   2.148   6.517   8.428  1.0017  0.3364 -0.5809
 8598SOL     OW29581   6.619   8.313   8.548  0.1910 -0.2062 -0.8541
 8598SOL    HW129582   6.674   8.390   8.561  2.1431 -1.9421  3.0278
 8598SOL    HW229583   6.558   8.314   8.622  0.2559 -2.2736 -0.7006
 8599SOL     OW29584   6.707   5.107   0.188  0.2252 -0.4506 -0.1046
 8599SOL    HW129585   6.713   5.164   0.265 -1.7022 -0.7149  0.2977
 8599SOL    HW229586   6.640   5.042   0.212 -1.4594  0.2773 -2.4946
 8600SOL     OW29587   0.363   2.486   8.197  0.5105  0.3720 -0.1029
 8600SOL    HW129588   0.337   2.396   8.177  3.2997 -0.8282  1.1057
 8600SOL    HW229589   0.434   2.505   8.136  2.9480  0.0039  2.4394
 8601SOL     OW29590   5.403   1.088   1.458 -0.4050  0.2722  0.5309
 8601SOL    HW129591   5.482   1.057   1.413  0.4158  0.7393  1.6018
 8601SOL    HW229592   5.434   1.156   1.517 -2.0022  2.3469 -0.8900
 8602SOL     OW29593   3.995   8.007   0.744 -0.3615  0.5594 -0.1812
 8602SOL    HW129594   3.969   7.977   0.657  0.8020 -0.1240 -0.3144
 8602SOL    HW229595   3.995   8.102   0.738 -2.5395  0.6022 -0.2276
 8603SOL     OW29596   6.173   7.501   3.892  0.3247 -0.6180 -0.0558
 8603SOL    HW129597   6.230   7.546   3.954  1.0651  0.6556 -1.5714
 8603SOL    HW229598   6.215   7.416   3.879  0.7003 -0.5155  0.4459
 8604SOL     OW29599   6.788   3.607   3.015  0.3555 -0.5476 -0.2045
 8604SOL    HW129600   6.800   3.515   2.989 -1.1931 -0.6790 -0.5278
 8604SOL    HW229601   6.859   3.624   3.077  1.3390 -1.6219 -0.9848
 8605SOL     OW29602   1.044   7.983   9.920 -0.1793  0.1901 -0.4757
 8605SOL    HW129603   1.092   8.043   9.863 -2.4700 -0.6923 -3.6071
 8605SOL    HW229604   1.057   8.018  10.008  3.0572  2.0305 -1.5169
 8606SOL     OW29605   7.490   1.812   4.418 -0.2662 -0.0884 -0.6004
 8606SOL    HW129606   7.507   1.751   4.346 -0.6146 -0.6800 -0.2009
 8606SOL    HW229607   7.575   1.851   4.437 -0.1551  0.0133 -1.2759
 8607SOL     OW29608   4.119   9.191   4.212  0.1939 -0.7257 -0.5251
 8607SOL    HW129609   4.042   9.191   4.268  1.6400 -0.3541  1.5991
 8607SOL    HW229610   4.166   9.111   4.235  0.9072 -0.4964 -1.1081
 8608SOL     OW29611   4.861   0.043   7.651 -0.1231  0.4774  0.1964
 8608SOL    HW129612   4.939   0.025   7.704 -0.2269 -0.4819  0.0496
 8608SOL    HW229613   4.795   0.071   7.715  0.6478  2.3930  0.1903
 8609SOL     OW29614   8.269   0.900   3.588 -0.1135  0.0504  0.0839
 8609SOL    HW129615   8.275   0.993   3.567 -0.9143  0.1569  0.2968
 8609SOL    HW229616   8.291   0.855   3.506  1.9038  0.3846  0.3862
 8610SOL     OW29617   1.526   5.583   9.014 -0.3722  0.0226 -0.0578
 8610SOL    HW129618   1.606   5.561   9.061  0.4898 -1.0471 -1.9211
 8610SOL    HW229619   1.474   5.503   9.016 -0.3261 -0.0303 -0.9237
 8611SOL     OW29620   0.758   5.244   9.295 -0.0529 -0.0730 -0.4880
 8611SOL    HW129621   0.812   5.173   9.330 -1.9725 -1.0473  0.5997
 8611SOL    HW229622   0.775   5.242   9.200 -1.7578 -3.5614 -0.8525
 8612SOL     OW29623   1.248   0.310   2.377 -0.4474 -0.3205 -0.1074
 8612SOL    HW129624   1.294   0.383   2.417  1.1540 -1.1223 -0.4086
 8612SOL    HW229625   1.217   0.344   2.293  1.3495 -0.2841 -0.8011
 8613SOL     OW29626   7.082   2.935  10.085  0.1309 -0.2433  0.0548
 8613SOL    HW129627   7.060   2.891  10.003 -1.1974  1.4804 -0.5693
 8613SOL    HW229628   7.045   3.023  10.076  1.3936  0.5265  1.8457
 8614SOL     OW29629   0.647   6.467   1.863 -0.2501 -0.1075 -0.2454
 8614SOL    HW129630   0.741   6.472   1.882  0.0241 -0.7907 -1.3304
 8614SOL    HW229631   0.639   6.499   1.773 -1.2758  1.4159  0.3437
 8615SOL     OW29632   2.832   4.308   1.927 -0.1544  0.1359 -0.2133
 8615SOL    HW129633   2.877   4.361   1.862  0.0440  1.1688  0.7290
 8615SOL    HW229634   2.902   4.272   1.981 -0.3494 -0.1393 -0.1421
 8616SOL     OW29635   0.376   9.001   0.027  0.2670 -0.9933  0.8278
 8616SOL    HW129636   0.450   9.057   0.002 -0.4984 -0.9872 -1.7793
 8616SOL    HW229637   0.405   8.913   0.003 -0.5412 -0.9839 -0.2392
 8617SOL     OW29638   1.128   7.120   6.098  0.0807  0.3706  0.1962
 8617SOL    HW129639   1.138   7.155   6.186  0.7241 -0.3767  0.4289
 8617SOL    HW229640   1.116   7.025   6.111  1.8084  0.0070 -0.5792
 8618SOL     OW29641   9.742   1.977   5.263  0.0505  0.5678 -0.3082
 8618SOL    HW129642   9.833   1.978   5.233  0.1117  2.1337 -0.1685
 8618SOL    HW229643   9.700   1.907   5.212  0.5690  1.9471 -2.7790
 8619SOL     OW29644   8.745   5.199   2.881 -0.5894  0.1733  0.0514
 8619SOL    HW129645   8.741   5.188   2.786 -1.9822 -1.2237  0.2148
 8619SOL    HW229646   8.816   5.141   2.910 -1.5315 -1.0561  0.0093
 8620SOL     OW29647   3.713   6.456   4.465  0.2946  0.0791 -0.2280
 8620SOL    HW129648   3.661   6.534   4.481 -0.1512 -0.3629  0.5316
 8620SOL    HW229649   3.664   6.408   4.398  0.7273  0.5837 -0.9238
 8621SOL     OW29650   6.638   0.182  10.193 -0.1037 -0.0535  0.0655
 8621SOL    HW129651   6.680   0.135  10.265  0.2129  0.2234  0.0576
 8621SOL    HW229652   6.546   0.190  10.220 -0.2482 -1.0044 -0.0950
 8622SOL     OW29653   6.394   9.875   9.816  0.1534 -0.3047 -0.1268
 8622SOL    HW129654   6.426   9.813   9.881  0.2434 -0.2690 -0.1371
 8622SOL    HW229655   6.472   9.922   9.787 -0.1200  0.8616  0.9790
 8623SOL     OW29656   6.096   4.359   5.724 -0.3252  0.3622 -0.4102
 8623SOL    HW129657   6.042   4.291   5.683  0.8214 -0.3128 -0.8371
 8623SOL    HW229658   6.120   4.323   5.809  0.2902  0.2287 -0.6398
 8624SOL     OW29659   9.999   6.591   2.745 -0.0755 -0.1911  0.0914
 8624SOL    HW129660  10.001   6.537   2.667 -1.5996  1.3333 -1.0750
 8624SOL    HW229661  10.068   6.555   2.801  1.7176 -0.7372 -2.3148
 8625SOL     OW29662   4.825   1.024   8.391 -0.2668  0.4307 -0.0364
 8625SOL    HW129663   4.742   1.035   8.439 -0.5037 -2.7882  0.4923
 8625SOL    HW229664   4.818   1.087   8.319 -2.4859  1.3254  0.8315
 8626SOL     OW29665   7.630   6.157   7.267 -0.0102  0.8235  0.0658
 8626SOL    HW129666   7.646   6.075   7.220  0.0522 -1.0719  3.1166
 8626SOL    HW229667   7.558   6.137   7.327 -0.2153  3.1247  0.6806
 8627SOL     OW29668   4.451   4.455   8.050 -0.3606  0.3272  0.2144
 8627SOL    HW129669   4.414   4.376   8.090  0.0881  0.2348  0.4533
 8627SOL    HW229670   4.375   4.505   8.020 -0.6233 -0.7234 -0.9509
 8628SOL     OW29671   2.461  10.202   0.363 -0.0753  0.1976 -0.2205
 8628SOL    HW129672   2.449  10.286   0.320  0.1917  0.7404  0.7391
 8628SOL    HW229673   2.529  10.218   0.429  0.1567 -0.8280 -0.1969
 8629SOL     OW29674   8.460   9.396   2.802  0.1463 -0.5143 -0.5670
 8629SOL    HW129675   8.530   9.431   2.857 -1.8431  2.7128  0.1661
 8629SOL    HW229676   8.441   9.466   2.739 -2.7815 -0.9965 -0.3612
 8630SOL     OW29677   9.578   1.910   8.976 -0.6649  1.0055  0.3940
 8630SOL    HW129678   9.606   1.915   8.885  1.0522 -0.4560  0.7793
 8630SOL    HW229679   9.643   1.960   9.025 -0.1339 -0.2893  1.0518
 8631SOL     OW29680   5.322   1.989   1.201  0.4857 -0.0155 -0.0210
 8631SOL    HW129681   5.329   1.978   1.296  0.2048 -0.5293 -0.0535
 8631SOL    HW229682   5.382   1.923   1.166 -0.4296 -0.7625 -0.2178
 8632SOL     OW29683   6.347   2.687   1.220 -0.0040  0.0430 -0.3816
 8632SOL    HW129684   6.301   2.749   1.276 -0.4080 -1.3982  0.9671
 8632SOL    HW229685   6.279   2.623   1.196  1.2571 -2.2887  1.8656
 8633SOL     OW29686   7.788   0.712   3.280 -0.1720  0.1651 -0.3073
 8633SOL    HW129687   7.770   0.804   3.300  0.3232  0.4892 -1.2920
 8633SOL    HW229688   7.882   0.702   3.297 -0.3071 -0.2742  0.1987
 8634SOL     OW29689   4.951  10.008   2.863  0.4564 -0.0856  0.0488
 8634SOL    HW129690   4.973  10.099   2.884 -1.4583  0.6409 -0.8497
 8634SOL    HW229691   4.914   9.973   2.943 -2.7794  1.3391 -0.6179
 8635SOL     OW29692   8.763   7.889   9.409  0.2871  0.5465  0.0122
 8635SOL    HW129693   8.795   7.897   9.319 -0.3327 -1.2487 -0.4085
 8635SOL    HW229694   8.841   7.895   9.464  0.7887  0.7118 -0.7161
 8636SOL     OW29695   4.318   9.547   8.423  0.1768  0.4343 -0.3369
 8636SOL    HW129696   4.363   9.568   8.505 -0.6050  0.1448  0.1796
 8636SOL    HW229697   4.383   9.501   8.371  0.4786  0.0048  0.4041
 8637SOL     OW29698   2.174   1.546   0.841  0.2110  0.4369 -0.5884
 8637SOL    HW129699   2.123   1.480   0.887 -1.3239  1.7056 -0.3781
 8637SOL    HW229700   2.110   1.613   0.816  1.5898  1.5067 -1.4009
 8638SOL     OW29701   0.686   1.231   8.587  0.2331 -0.2337 -0.5680
 8638SOL    HW129702   0.663   1.202   8.498 -1.7490 -0.4527 -0.0304
 8638SOL    HW229703   0.705   1.150   8.634  0.8328 -0.1526 -0.6657
 8639SOL     OW29704   9.505   7.075   2.656  0.2126  0.4390 -0.4312
 8639SOL    HW129705   9.418   7.049   2.624 -0.0270  0.6133  0.0689
 8639SOL    HW229706   9.546   6.992   2.683  0.9788  0.0857 -2.4720
 8640SOL     OW29707   1.188   4.893   7.917  0.4630  0.0211  0.4459
 8640SOL    HW129708   1.246   4.924   7.848 -0.1794  1.4557  0.5111
 8640SOL    HW229709   1.128   4.832   7.874 -0.0698  1.0668 -0.3218
 8641SOL     OW29710   9.142   0.891   3.656  0.3200  0.2453 -0.0270
 8641SOL    HW129711   9.177   0.953   3.720  0.5015  0.1382 -0.0210
 8641SOL    HW229712   9.186   0.808   3.676  1.7475  0.6088 -1.4167
 8642SOL     OW29713  10.121   9.835   8.140  0.1360 -0.7372  0.3595
 8642SOL    HW129714  10.033   9.827   8.176 -0.4087  1.3696 -0.3769
 8642SOL    HW229715  10.167   9.895   8.199  0.1590  0.3868 -0.7446
 8643SOL     OW29716   7.533   5.380   9.450 -0.5054  0.1212 -0.1547
 8643SOL    HW129717   7.623   5.397   9.420 -1.0292 -0.5849 -2.2559
 8643SOL    HW229718   7.482   5.452   9.413 -0.9966 -0.0636  0.1615
 8644SOL     OW29719   7.111   3.054   9.398  0.3191 -0.3730  0.2980
 8644SOL    HW129720   7.039   2.993   9.385  0.5316 -0.5206 -0.1879
 8644SOL    HW229721   7.116   3.065   9.493 -0.4267 -0.2581  0.3325
 8645SOL     OW29722   7.664   7.956   6.067  0.1227 -1.0641  0.2035
 8645SOL    HW129723   7.636   8.008   5.992 -2.2032  1.6522  2.7067
 8645SOL    HW229724   7.643   7.866   6.044  0.2091 -0.4431 -2.6301
 8646SOL     OW29725  10.315   7.301   6.073  0.2013 -0.4951 -0.2253
 8646SOL    HW129726  10.263   7.302   6.154  0.9002 -0.1610  0.2337
 8646SOL    HW229727  10.345   7.392   6.064 -0.1574 -0.4598 -1.0476
 8647SOL     OW29728   2.162   8.973   4.389  0.1423  0.3432  0.4398
 8647SOL    HW129729   2.190   8.950   4.477  0.5355 -1.8929 -0.1879
 8647SOL    HW229730   2.102   8.902   4.364 -1.8165  2.1325 -0.2781
 8648SOL     OW29731   8.853   8.637   7.371 -0.0732 -0.0722 -0.5026
 8648SOL    HW129732   8.814   8.697   7.307 -1.4295 -1.3038 -0.8896
 8648SOL    HW229733   8.779   8.606   7.422  0.5790 -1.5049 -0.3903
 8649SOL     OW29734  10.107   9.592   4.964  1.0671 -0.0696  0.5245
 8649SOL    HW129735  10.072   9.543   4.890  0.1708  0.5865  0.4973
 8649SOL    HW229736  10.079   9.682   4.949  0.7050  0.0446  1.7469
 8650SOL     OW29737   9.946   3.657   7.363 -0.3298 -0.3153 -0.1311
 8650SOL    HW129738   9.961   3.626   7.274  3.0636 -0.3991  0.3119
 8650SOL    HW229739   9.961   3.581   7.418 -0.5657  0.1391  0.5729
 8651SOL     OW29740   1.889  10.340   4.722  0.6270 -0.4037  0.1426
 8651SOL    HW129741   1.980  10.322   4.700  1.0964  2.7785 -1.1365
 8651SOL    HW229742   1.890  10.427   4.762 -2.0011  0.9774 -2.3344
 8652SOL     OW29743   6.483  10.087   5.637 -0.1709  0.1452 -0.5811
 8652SOL    HW129744   6.429  10.166   5.646 -1.7316 -1.0920  3.1838
 8652SOL    HW229745   6.562  10.107   5.687  0.2457 -0.0700 -1.1530
 8653SOL     OW29746   1.206   0.900   0.752 -0.3274  0.3924  0.3485
 8653SOL    HW129747   1.296   0.867   0.750 -0.2758  0.5215  0.5768
 8653SOL    HW229748   1.205   0.970   0.687 -0.4373 -0.0475 -0.1411
 8654SOL     OW29749   3.904   2.172   0.471  0.2350  0.0312  0.1393
 8654SOL    HW129750   3.930   2.215   0.552 -1.3899  1.9952 -0.3064
 8654SOL    HW229751   3.832   2.225   0.437 -1.0162 -2.3147 -1.1709
 8655SOL     OW29752   8.439   4.165   1.309  0.0691 -0.3658 -0.5814
 8655SOL    HW129753   8.440   4.100   1.239 -0.9820 -0.1147 -0.8440
 8655SOL    HW229754   8.465   4.116   1.387 -0.0151 -0.9441 -0.9092
 8656SOL     OW29755   4.159   2.440   6.049  0.7596  0.2335  0.3768
 8656SOL    HW129756   4.137   2.352   6.079 -0.3222 -0.0803 -1.2054
 8656SOL    HW229757   4.207   2.426   5.967 -2.3683  1.0533 -1.8013
 8657SOL     OW29758   8.167   4.599   6.585  0.2402 -0.8344 -0.1895
 8657SOL    HW129759   8.088   4.595   6.531 -1.3157 -0.5377  1.9059
 8657SOL    HW229760   8.140   4.561   6.669  2.3869 -0.8404  0.5655
 8658SOL     OW29761   0.205   0.873   9.686  0.2818 -0.1383 -0.2870
 8658SOL    HW129762   0.288   0.885   9.733  0.0131  0.7596 -0.0289
 8658SOL    HW229763   0.144   0.842   9.753  0.1777  0.0730 -0.2850
 8659SOL     OW29764   8.456   1.007   7.353  0.0062 -0.0565  0.1098
 8659SOL    HW129765   8.443   0.931   7.409  0.5497  0.5825  1.1283
 8659SOL    HW229766   8.371   1.052   7.354 -0.9824 -1.6617 -2.1403
 8660SOL     OW29767   8.951   0.558   7.951  0.0121  0.3252 -0.2116
 8660SOL    HW129768   8.923   0.580   8.040 -1.5032  1.4930 -0.9302
 8660SOL    HW229769   8.998   0.635   7.921 -1.2859  0.7863 -1.1254
 8661SOL     OW29770   2.556   4.903   5.624 -0.3189  0.1882  0.5086
 8661SOL    HW129771   2.600   4.842   5.564  1.5308 -0.5106  2.4487
 8661SOL    HW229772   2.470   4.917   5.585 -1.0440 -4.0479  0.1710
 8662SOL     OW29773   7.046   4.399   4.886  0.1930 -0.0084 -0.7148
 8662SOL    HW129774   7.140   4.386   4.871 -0.2469 -2.6381 -1.7438
 8662SOL    HW229775   7.004   4.370   4.805 -1.5473  0.9172 -0.1933
 8663SOL     OW29776   8.683   2.859   2.874 -0.0156  0.3792  0.0243
 8663SOL    HW129777   8.655   2.921   2.807 -0.7859  1.3896  1.2247
 8663SOL    HW229778   8.778   2.872   2.881  0.2707 -0.5429 -1.6098
 8664SOL     OW29779   9.177   8.916   8.584 -0.2141  0.2289 -0.0918
 8664SOL    HW129780   9.088   8.950   8.576  0.1082  1.5451  1.5949
 8664SOL    HW229781   9.186   8.892   8.676  1.5127  1.1088 -0.0026
 8665SOL     OW29782   5.909   8.277   0.161 -0.0536  0.0514 -0.2447
 8665SOL    HW129783   5.968   8.206   0.184  0.7859  0.8654  0.2000
 8665SOL    HW229784   5.851   8.285   0.236 -1.7830 -1.7400 -1.2907
 8666SOL     OW29785   2.927   1.156   5.315  0.5336  0.5445 -0.5622
 8666SOL    HW129786   2.912   1.168   5.221  0.6701  1.2785 -0.5005
 8666SOL    HW229787   2.942   1.062   5.325  0.9569  0.5203 -1.3335
 8667SOL     OW29788   3.952   9.663   9.920  0.4484  0.0879  0.4139
 8667SOL    HW129789   4.035   9.691   9.881  0.3668  1.6810  1.2843
 8667SOL    HW229790   3.963   9.680  10.014 -1.2992  1.6001  0.3983
 8668SOL     OW29791   0.621   0.559   2.823 -0.7207  0.3890 -0.1359
 8668SOL    HW129792   0.702   0.545   2.774 -1.3186  1.3912 -1.4928
 8668SOL    HW229793   0.650   0.593   2.908  0.3180 -0.6861 -0.0331
 8669SOL     OW29794   9.201   5.306   6.045  0.0090 -0.0484 -0.2610
 8669SOL    HW129795   9.193   5.251   5.967  0.7738  1.9580 -1.8334
 8669SOL    HW229796   9.267   5.261   6.099 -0.7381 -1.6128 -0.5880
 8670SOL     OW29797   6.642   4.610   8.692 -0.7581  0.0118 -0.0698
 8670SOL    HW129798   6.577   4.648   8.633  1.1305  4.0711  0.1324
 8670SOL    HW229799   6.618   4.642   8.778  0.8260  0.6851  0.1584
 8671SOL     OW29800   7.842   4.932   2.917  0.6078 -0.2285 -0.5572
 8671SOL    HW129801   7.907   4.996   2.947 -0.1130  0.2725 -0.0130
 8671SOL    HW229802   7.761   4.983   2.908  0.4171 -0.7211 -1.7678
 8672SOL     OW29803   8.959   6.540   8.487 -0.0574  0.5644  0.0941
 8672SOL    HW129804   8.951   6.627   8.526 -1.2803  0.9040 -0.8371
 8672SOL    HW229805   8.896   6.540   8.415 -0.3487 -1.2164  0.2872
 8673SOL     OW29806   4.279   8.719  10.066 -0.4031  0.0609  0.2301
 8673SOL    HW129807   4.357   8.760  10.105  0.0234 -0.8680  0.3718
 8673SOL    HW229808   4.240   8.670  10.138 -0.8378  0.1129  0.0297
 8674SOL     OW29809   1.043   8.575   9.655  0.0559 -0.1579  0.1527
 8674SOL    HW129810   1.075   8.661   9.682 -0.5205 -0.1675  0.9024
 8674SOL    HW229811   1.057   8.573   9.561 -0.9382  1.1966 -0.0466
 8675SOL     OW29812   4.738   7.033   2.437 -0.3888 -0.0689  0.0443
 8675SOL    HW129813   4.770   6.966   2.376  0.5820 -0.5005  0.9696
 8675SOL    HW229814   4.668   7.078   2.390 -0.3017 -0.9972 -1.0233
 8676SOL     OW29815   5.132   5.161   7.275  0.0296 -0.4011  0.7616
 8676SOL    HW129816   5.157   5.072   7.249  1.1466  0.0706  0.1145
 8676SOL    HW229817   5.039   5.155   7.298  0.0235 -1.6720  0.4724
 8677SOL     OW29818   4.905   4.612   0.709 -0.1649  0.4329 -0.0382
 8677SOL    HW129819   4.953   4.598   0.628 -0.1299  2.8626 -0.5238
 8677SOL    HW229820   4.953   4.681   0.754 -0.7611 -0.1528  1.5772
 8678SOL     OW29821   8.289   0.336   1.378  1.3329  0.2837 -0.0931
 8678SOL    HW129822   8.357   0.269   1.378  1.2244  0.1698  0.4984
 8678SOL    HW229823   8.244   0.325   1.462  0.3351  0.1057 -0.6338
 8679SOL     OW29824   3.738   4.151  10.091 -0.8154 -0.3800 -0.6138
 8679SOL    HW129825   3.703   4.144  10.180  1.6909  0.6274  0.5686
 8679SOL    HW229826   3.702   4.233  10.057  0.5700  0.8648  0.7349
 8680SOL     OW29827   2.424   1.283   5.375  0.3226 -0.0815 -0.0805
 8680SOL    HW129828   2.395   1.367   5.412 -1.7661  0.3871 -2.5051
 8680SOL    HW229829   2.407   1.219   5.443 -2.0092  0.9199  0.3502
 8681SOL     OW29830   6.458   6.589   9.560  0.4518 -0.0468 -0.1917
 8681SOL    HW129831   6.479   6.673   9.602 -1.7315 -0.7580  2.6680
 8681SOL    HW229832   6.530   6.531   9.584 -0.0588 -0.0432  1.4703
 8682SOL     OW29833   2.981   8.899   4.406  1.1747  0.3968 -0.6725
 8682SOL    HW129834   2.934   8.892   4.323 -0.2419  1.3474  0.0164
 8682SOL    HW229835   2.941   8.973   4.451  2.3355  0.2955  0.6101
 8683SOL     OW29836   2.301   4.180   9.060  0.3851 -0.0752 -0.2610
 8683SOL    HW129837   2.219   4.204   9.018  0.0799 -0.6900 -0.0198
 8683SOL    HW229838   2.290   4.205   9.152  1.0073  1.1586 -0.4972
 8684SOL     OW29839   8.795   0.055   8.574 -0.6122 -0.5764  0.2032
 8684SOL    HW129840   8.699   0.051   8.574 -0.6212 -0.5702  0.9616
 8684SOL    HW229841   8.815   0.129   8.632 -0.1346 -1.2965  0.9714
 8685SOL     OW29842   1.500   2.500   9.906 -0.0224  0.7010  0.7208
 8685SOL    HW129843   1.414   2.460   9.892 -0.1420  0.4887  1.9645
 8685SOL    HW229844   1.488   2.592   9.881  0.5239 -0.1077 -3.1730
 8686SOL     OW29845   5.109   4.698   6.036  0.0976 -0.7185  0.0391
 8686SOL    HW129846   5.023   4.737   6.023  0.6199  0.2002 -0.8314
 8686SOL    HW229847   5.133   4.665   5.949  0.5111 -1.2149  0.3348
 8687SOL     OW29848   3.226   4.407   5.224 -0.0530 -0.5016  0.1032
 8687SOL    HW129849   3.299   4.367   5.176  0.2294 -1.8071  1.5589
 8687SOL    HW229850   3.149   4.388   5.170  0.6183  0.8843 -1.4506
 8688SOL     OW29851   6.095   3.854   9.612  0.2603 -0.5465 -0.1972
 8688SOL    HW129852   6.031   3.910   9.655 -1.3685 -2.6489  0.2517
 8688SOL    HW229853   6.142   3.913   9.553 -1.9883  1.1348 -0.4429
 8689SOL     OW29854   2.921   8.807   5.454  0.0399  0.4528  0.3139
 8689SOL    HW129855   2.910   8.867   5.380  0.7780  0.1663 -0.0424
 8689SOL    HW229856   2.869   8.730   5.431 -0.5708  0.7769  0.5803
 8690SOL     OW29857   0.125   3.864   0.449  0.6773 -0.2639  0.0291
 8690SOL    HW129858   0.081   3.812   0.517 -0.6502  0.2894 -0.3687
 8690SOL    HW229859   0.107   3.955   0.473 -0.8294 -0.0567 -1.6515
 8691SOL     OW29860   5.731   7.093   2.715  0.4463  0.5307  0.4892
 8691SOL    HW129861   5.763   7.155   2.781 -0.3821  0.3593  1.0622
 8691SOL    HW229862   5.772   7.009   2.740 -0.8968  0.1725  1.5985
 8692SOL     OW29863   2.678   9.229   3.257 -0.0112  0.0703 -0.2343
 8692SOL    HW129864   2.744   9.298   3.253  1.1070 -1.0047 -1.3873
 8692SOL    HW229865   2.598   9.270   3.225  0.5866  0.9029 -0.6796
 8693SOL     OW29866   2.820   2.883   8.272  0.7047 -0.4052 -0.2801
 8693SOL    HW129867   2.887   2.867   8.337 -0.6889  0.3187  1.4254
 8693SOL    HW229868   2.764   2.806   8.275 -0.9216  0.7427  1.4694
 8694SOL     OW29869   2.279   3.576   2.590  0.2428 -0.4998 -0.5812
 8694SOL    HW129870   2.277   3.671   2.599  0.0968 -0.6381  1.2598
 8694SOL    HW229871   2.372   3.554   2.586  0.5175 -0.5041  2.9385
 8695SOL     OW29872   5.885   3.664   0.402 -0.3607  0.4356 -0.3243
 8695SOL    HW129873   5.800   3.620   0.410  0.7545 -2.1197 -1.6469
 8695SOL    HW229874   5.884   3.702   0.314  0.9792 -2.4128 -1.7057
 8696SOL     OW29875   4.266   8.305   0.757 -0.3871  0.1839  0.2983
 8696SOL    HW129876   4.175   8.304   0.726 -0.1885 -1.5139 -0.3542
 8696SOL    HW229877   4.318   8.291   0.678  0.2928 -1.2329  0.9503
 8697SOL     OW29878   6.974   9.383   3.842  0.4038  0.0487  0.6167
 8697SOL    HW129879   7.049   9.366   3.785  0.3562  0.2978  0.4769
 8697SOL    HW229880   6.898   9.383   3.782  0.3734  0.4732  0.6587
 8698SOL     OW29881   6.790   3.172   7.871  0.3583  0.0019 -0.1717
 8698SOL    HW129882   6.743   3.091   7.852  0.5210 -0.4459  1.2347
 8698SOL    HW229883   6.851   3.149   7.941  0.0033  1.4699  0.6733
 8699SOL     OW29884  10.358   3.864   4.998  0.3932 -0.0995  0.9197
 8699SOL    HW129885  10.276   3.816   4.987 -0.1182  0.9381 -0.0283
 8699SOL    HW229886  10.406   3.848   4.917  2.0114 -2.2410  2.2116
 8700SOL     OW29887   2.047   9.448   3.366  0.1060 -0.1192  0.0066
 8700SOL    HW129888   2.043   9.525   3.422  2.9370  1.0293 -1.1483
 8700SOL    HW229889   1.993   9.469   3.291 -0.4060  0.0677  0.4265
 8701SOL     OW29890   1.914   7.487   4.485 -0.3349 -0.7957  0.3967
 8701SOL    HW129891   1.905   7.433   4.406 -0.9620 -0.6426  0.3602
 8701SOL    HW229892   1.826   7.490   4.522  0.3441 -2.8179  2.4109
 8702SOL     OW29893   1.562   0.840   4.676 -0.5042  0.4669 -0.1377
 8702SOL    HW129894   1.576   0.895   4.599 -0.9318  0.3395 -0.3115
 8702SOL    HW229895   1.577   0.751   4.646  0.2841  0.4915  0.1694
 8703SOL     OW29896   0.119   1.963   3.849 -0.3402 -0.5950  0.1266
 8703SOL    HW129897   0.070   1.973   3.767 -0.0071  0.9399  0.0659
 8703SOL    HW229898   0.132   1.869   3.859 -0.5040 -0.8253 -1.5259
 8704SOL     OW29899   0.031   5.173   5.790  0.1013  0.1004 -0.1154
 8704SOL    HW129900  -0.050   5.187   5.741 -0.3635  0.5416  0.7544
 8704SOL    HW229901   0.029   5.239   5.860  1.6117  0.6734 -0.5672
 8705SOL     OW29902   9.310   1.279   4.469 -0.0144 -0.0628  0.0912
 8705SOL    HW129903   9.352   1.221   4.405  0.3496  0.6149 -0.2839
 8705SOL    HW229904   9.219   1.248   4.473  0.1069 -0.4744 -0.3191
 8706SOL     OW29905   6.822   6.053   8.234 -0.3240  0.4818 -0.9068
 8706SOL    HW129906   6.737   6.030   8.271 -0.3609 -1.3192 -1.9865
 8706SOL    HW229907   6.802   6.106   8.157 -0.4221  0.7525 -0.6955
 8707SOL     OW29908   0.660   7.669   5.328  0.1645 -0.1264  0.4014
 8707SOL    HW129909   0.721   7.740   5.312  0.7850 -0.7713 -0.1594
 8707SOL    HW229910   0.650   7.666   5.423  1.1421 -0.1223  0.5120
 8708SOL     OW29911   1.190   8.093   1.795 -0.2537 -0.1770  0.2653
 8708SOL    HW129912   1.275   8.119   1.760 -0.1420  0.2831  0.8553
 8708SOL    HW229913   1.155   8.173   1.834 -1.6779  0.0511 -1.3587
 8709SOL     OW29914   4.419   4.145   8.656 -0.1435  0.1309 -0.2335
 8709SOL    HW129915   4.401   4.061   8.699 -2.0637  0.8126  0.3747
 8709SOL    HW229916   4.498   4.178   8.700  0.6435 -1.3221 -0.4820
 8710SOL     OW29917   9.882   7.396   4.149  0.0321  0.3469 -0.1297
 8710SOL    HW129918   9.843   7.452   4.082 -2.0090  0.0747  0.7579
 8710SOL    HW229919   9.954   7.448   4.185 -1.4770  2.2520  0.3116
 8711SOL     OW29920   2.649   5.378   7.659  0.0143 -0.4950 -0.2169
 8711SOL    HW129921   2.702   5.299   7.673 -0.1017 -0.5383 -0.0261
 8711SOL    HW229922   2.660   5.397   7.566 -0.4183 -1.0749 -0.4011
 8712SOL     OW29923   6.485   1.864   6.642  0.3252 -0.8195  0.0475
 8712SOL    HW129924   6.456   1.806   6.572  0.5167  0.6421 -1.2861
 8712SOL    HW229925   6.546   1.925   6.600 -1.6475  1.8664  0.8168
 8713SOL     OW29926   9.815   5.444   1.828  0.3585  0.3695  0.2106
 8713SOL    HW129927   9.822   5.372   1.890  2.2445  1.0196  0.8560
 8713SOL    HW229928   9.725   5.474   1.835  0.1994 -0.3873  1.7179
 8714SOL     OW29929   8.727   3.677   0.253  0.4647 -0.7369 -0.3001
 8714SOL    HW129930   8.752   3.768   0.236 -0.8265 -0.0077  1.4107
 8714SOL    HW229931   8.641   3.668   0.213 -0.2697 -0.5679  1.1564
 8715SOL     OW29932   2.742   5.892   8.011 -0.4648  0.0064  0.2763
 8715SOL    HW129933   2.766   5.836   7.937  1.0276  0.5185  0.3368
 8715SOL    HW229934   2.822   5.940   8.032 -1.2635  0.9587  1.2853
 8716SOL     OW29935   6.843   7.538   0.413 -0.7233  0.3103  0.1859
 8716SOL    HW129936   6.813   7.484   0.340  2.1273  2.3984 -2.8363
 8716SOL    HW229937   6.816   7.626   0.390  0.6509  1.0966  1.4207
 8717SOL     OW29938   4.462   0.109   2.858  0.2563  0.2643  0.3369
 8717SOL    HW129939   4.383   0.060   2.838  0.8284  0.0670 -1.7214
 8717SOL    HW229940   4.529   0.042   2.874  0.1749  0.4273  1.4621
 8718SOL     OW29941   0.668   0.042   0.450 -0.0052  0.3501  0.2384
 8718SOL    HW129942   0.618   0.052   0.369 -1.0597  1.4616  0.9830
 8718SOL    HW229943   0.717  -0.039   0.439  0.0832  0.6156 -1.6090
 8719SOL     OW29944   8.518   1.327   0.552 -0.2934 -0.1204 -0.5772
 8719SOL    HW129945   8.522   1.232   0.561 -1.7070 -0.1273  0.3636
 8719SOL    HW229946   8.490   1.358   0.638  1.2257  1.2546 -0.5417
 8720SOL     OW29947   8.429   8.805   7.259  0.2360  0.5417 -0.3609
 8720SOL    HW129948   8.455   8.713   7.259  0.3941  0.5854 -0.2655
 8720SOL    HW229949   8.485   8.845   7.192  0.1416  0.5613 -0.4280
 8721SOL     OW29950   1.946   9.880   6.435 -0.3081  0.4935 -0.2627
 8721SOL    HW129951   1.888   9.956   6.443 -0.9949 -0.1807  1.5085
 8721SOL    HW229952   2.030   9.910   6.469  0.0774  1.0854 -1.6437
 8722SOL     OW29953   4.923   1.421   4.425 -0.1137 -0.2737  0.1835
 8722SOL    HW129954   4.850   1.402   4.483 -0.5837  1.2539  0.1290
 8722SOL    HW229955   4.884   1.430   4.339  0.3917 -1.1019 -0.1515
 8723SOL     OW29956   5.347   7.368   2.480  0.6288 -0.8083  0.0682
 8723SOL    HW129957   5.433   7.361   2.522  0.7153  0.3154  0.0926
 8723SOL    HW229958   5.357   7.436   2.414 -0.3850 -0.2792  0.4355
 8724SOL     OW29959   9.493   7.248   5.265  0.1159 -0.4342  0.8600
 8724SOL    HW129960   9.524   7.186   5.330  1.0691  1.3548  2.1903
 8724SOL    HW229961   9.528   7.215   5.182  2.3872 -0.6004  1.8031
 8725SOL     OW29962   8.993   7.228   6.154  0.0025 -0.4905 -0.8848
 8725SOL    HW129963   8.929   7.201   6.220 -1.6464  2.5141 -1.0746
 8725SOL    HW229964   8.942   7.236   6.074  0.7547  1.1674 -1.2384
 8726SOL     OW29965   9.518   3.074   0.117  0.0603  0.1913  0.4888
 8726SOL    HW129966   9.570   3.097   0.040 -0.5152  0.8969  0.3085
 8726SOL    HW229967   9.569   3.109   0.191 -0.5136  1.5795  0.2594
 8727SOL     OW29968   7.537   7.221   9.914  0.2057 -0.1202  0.7086
 8727SOL    HW129969   7.534   7.292   9.851  1.3795  1.5205  2.3886
 8727SOL    HW229970   7.607   7.164   9.883 -0.1396 -0.0793 -0.1687
 8728SOL     OW29971   2.453   9.195   0.969  0.1444  0.0305 -0.1739
 8728SOL    HW129972   2.518   9.262   0.991 -0.2924  0.5984 -0.5971
 8728SOL    HW229973   2.369   9.231   0.997 -0.0788 -0.3878 -0.2899
 8729SOL     OW29974   2.532   1.589   5.384  0.0394 -0.5024  0.2820
 8729SOL    HW129975   2.614   1.618   5.425  1.2042  0.2846 -2.3648
 8729SOL    HW229976   2.484   1.547   5.454  1.0366  2.3039  2.9018
 8730SOL     OW29977   9.853   0.544   6.537 -0.5681  0.0058  0.0226
 8730SOL    HW129978   9.816   0.574   6.620  1.3758 -1.8073  1.6476
 8730SOL    HW229979   9.801   0.466   6.515  0.4050 -0.9002  0.8337
 8731SOL     OW29980   1.888   5.030   7.532 -0.1325 -0.0359 -0.0514
 8731SOL    HW129981   1.896   4.983   7.615 -0.1714 -0.6013 -0.3596
 8731SOL    HW229982   1.797   5.014   7.504 -0.4347  1.0105  0.2993
 8732SOL     OW29983   5.890   5.603   0.496  0.2077  0.0082  0.2969
 8732SOL    HW129984   5.876   5.697   0.487  2.2139  0.2127 -1.6427
 8732SOL    HW229985   5.820   5.563   0.445  0.8756  0.6101 -1.1619
 8733SOL     OW29986   1.214   5.915   2.018  0.3572  0.3283 -0.3818
 8733SOL    HW129987   1.260   5.839   1.983 -1.4343 -1.2680  0.5478
 8733SOL    HW229988   1.127   5.911   1.979  0.0606  1.6540  0.0674
 8734SOL     OW29989   5.140   2.648   1.575 -1.0206 -0.6168  0.1039
 8734SOL    HW129990   5.159   2.651   1.481  2.9126  2.7927  0.6923
 8734SOL    HW229991   5.208   2.591   1.611  1.6515  2.8741  1.2250
 8735SOL     OW29992   8.240   3.708   7.937 -0.5561  0.2599  0.2458
 8735SOL    HW129993   8.229   3.690   7.844  0.4977 -0.1470  0.1841
 8735SOL    HW229994   8.190   3.788   7.952  0.1533  0.9472 -0.9142
 8736SOL     OW29995   5.336   9.255   0.264 -0.2817  0.4975  0.1325
 8736SOL    HW129996   5.352   9.265   0.358  0.3545  3.2598 -0.1888
 8736SOL    HW229997   5.421   9.230   0.228 -0.1838  0.8137  0.1400
 8737SOL     OW29998   9.706   6.753   6.784  0.5225  0.1960  0.3147
 8737SOL    HW129999   9.613   6.744   6.764  0.8814 -0.7935 -0.9964
 8737SOL    HW230000   9.744   6.789   6.704  1.2868  0.5847  0.8415
 8738SOL     OW30001   1.421   9.910  10.203  0.1752 -0.2679 -0.3226
 8738SOL    HW130002   1.447   9.829  10.160  0.1108  0.1582 -1.2084
 8738SOL    HW230003   1.484   9.922  10.274  1.9509  0.3474 -1.9255
 8739SOL     OW30004   2.726   8.415   8.434 -0.0356  0.1853 -0.7673
 8739SOL    HW130005   2.793   8.448   8.375  0.6023 -0.2716 -0.3105
 8739SOL    HW230006   2.774   8.383   8.510 -0.9052  2.0194  0.6513
 8740SOL     OW30007   9.050   7.685   9.281  0.1500 -0.4004 -0.6815
 8740SOL    HW130008   8.992   7.727   9.216  1.1011 -2.1415 -2.7871
 8740SOL    HW230009   9.019   7.595   9.285  0.9908 -0.6557  0.2739
 8741SOL     OW30010   3.914   6.826   0.099  0.4874 -0.5143 -0.2326
 8741SOL    HW130011   3.854   6.889   0.140  0.7027 -0.2756 -0.2787
 8741SOL    HW230012   3.991   6.879   0.076  0.7710 -0.8475 -0.0461
 8742SOL     OW30013   1.000   6.257   7.053 -0.2100  0.2572  0.0488
 8742SOL    HW130014   0.932   6.192   7.040 -1.2456  1.5515 -1.4219
 8742SOL    HW230015   0.969   6.311   7.126 -1.6592  1.8310 -1.6296
 8743SOL     OW30016   1.633   2.973   8.298 -0.4514 -0.6801 -0.0867
 8743SOL    HW130017   1.662   2.904   8.359  1.4968  0.9513  0.9531
 8743SOL    HW230018   1.668   2.946   8.213  0.5980 -0.8295  0.3771
 8744SOL     OW30019   1.035   7.591   5.512 -0.3271 -0.1874 -0.3267
 8744SOL    HW130020   1.038   7.502   5.476  0.6774 -0.1063 -0.4691
 8744SOL    HW230021   1.108   7.636   5.471  0.6392  0.0158  1.4865
 8745SOL     OW30022   1.128   3.730   3.219  0.5604 -0.3655 -0.1599
 8745SOL    HW130023   1.063   3.730   3.289  0.4463 -2.8413 -0.1680
 8745SOL    HW230024   1.096   3.796   3.157 -1.3034 -0.6467  0.4212
 8746SOL     OW30025   6.333   7.051   8.704 -0.2420 -0.1404 -0.0376
 8746SOL    HW130026   6.387   6.974   8.720 -0.4852 -0.1318  0.8806
 8746SOL    HW230027   6.245   7.017   8.690 -0.5147 -0.0015  1.2054
 8747SOL     OW30028   2.467   2.051   4.571  0.3569  0.0915 -0.5176
 8747SOL    HW130029   2.438   1.959   4.571 -1.9602  0.6895  2.4592
 8747SOL    HW230030   2.417   2.091   4.500 -2.2270 -0.0804  1.0810
 8748SOL     OW30031   6.354   2.193   2.952  0.0369  0.7577 -0.3122
 8748SOL    HW130032   6.423   2.233   3.004  0.9540 -0.4562 -0.5321
 8748SOL    HW230033   6.401   2.138   2.889 -1.1402 -0.5096 -0.1274
 8749SOL     OW30034   7.369   0.695   7.677 -0.0055  0.9711  0.2819
 8749SOL    HW130035   7.349   0.691   7.584 -1.0414 -2.2095  0.5285
 8749SOL    HW230036   7.459   0.664   7.683  0.0864  1.2487  0.3263
 8750SOL     OW30037   0.238   9.005   9.917  0.2983  0.5486  0.1232
 8750SOL    HW130038   0.218   8.992  10.010 -1.4955 -1.9595 -0.5064
 8750SOL    HW230039   0.247   9.100   9.907 -2.3034  1.1512  2.3443
 8751SOL     OW30040   5.410   0.520   9.058 -0.8511 -0.0659 -0.2602
 8751SOL    HW130041   5.408   0.566   9.142 -2.5793 -0.7512  0.1301
 8751SOL    HW230042   5.390   0.587   8.993  0.4223  0.4536 -0.1306
 8752SOL     OW30043   1.655   7.344  10.337  0.2055 -0.1923 -0.4662
 8752SOL    HW130044   1.656   7.429  10.294  1.6358 -0.0050 -0.1050
 8752SOL    HW230045   1.564   7.331  10.363 -0.0197  1.2581 -0.4803
 8753SOL     OW30046   7.788   9.742   7.271  0.1646  0.1098 -0.3941
 8753SOL    HW130047   7.828   9.827   7.251  0.5254  0.1156  0.3135
 8753SOL    HW230048   7.853   9.678   7.242 -0.8863 -0.0164 -2.6826
 8754SOL     OW30049   5.957   4.182   8.646 -0.4796  0.0137 -0.3953
 8754SOL    HW130050   5.948   4.094   8.609 -1.8598 -0.5695  1.2215
 8754SOL    HW230051   5.904   4.180   8.726  2.0169  1.3339  1.4273
 8755SOL     OW30052   2.904   3.144   7.160 -0.1523 -0.1800  0.1273
 8755SOL    HW130053   2.839   3.193   7.209  0.2070 -0.3237  0.7528
 8755SOL    HW230054   2.912   3.191   7.077  0.5440  1.1213  0.8953
 8756SOL     OW30055   5.797   6.362   0.463 -0.3662 -0.0171 -0.2362
 8756SOL    HW130056   5.810   6.383   0.556  0.5061 -2.1584  0.1818
 8756SOL    HW230057   5.884   6.371   0.424 -0.4961 -0.2753 -0.5887
 8757SOL     OW30058   8.854   3.241   8.995  0.3600 -0.0211 -0.1517
 8757SOL    HW130059   8.882   3.212   9.082 -1.4299  0.7694  0.7299
 8757SOL    HW230060   8.770   3.198   8.981  0.6953 -0.2756 -1.5958
 8758SOL     OW30061   0.932   1.115   9.874  0.7398  0.1667 -0.3902
 8758SOL    HW130062   1.020   1.114   9.837  0.9558  3.9730 -0.3854
 8758SOL    HW230063   0.944   1.093   9.966  1.0030 -3.4117 -1.1527
 8759SOL     OW30064   3.468   2.319   4.848  0.3030 -0.9030  0.0315
 8759SOL    HW130065   3.504   2.302   4.935  0.3371  2.4650  0.8232
 8759SOL    HW230066   3.546   2.332   4.793  0.2911 -0.3828  0.1362
 8760SOL     OW30067   3.504   8.157   1.920  0.0830  0.7214 -0.4170
 8760SOL    HW130068   3.526   8.224   1.855 -0.1933 -0.1098 -1.3835
 8760SOL    HW230069   3.427   8.192   1.965  0.4668  1.4492 -0.3071
 8761SOL     OW30070   1.391   0.215  10.277 -0.5565 -0.0092 -0.2860
 8761SOL    HW130071   1.328   0.181  10.341 -0.9820  1.2371 -0.0123
 8761SOL    HW230072   1.344   0.286  10.234 -0.1089 -0.5286 -1.6822
 8762SOL     OW30073   0.541   3.969   3.821  0.2173  0.6451 -0.3426
 8762SOL    HW130074   0.594   3.892   3.799 -1.9142 -0.8837 -0.4455
 8762SOL    HW230075   0.523   3.960   3.914 -1.7823 -0.2060 -0.7579
 8763SOL     OW30076   4.710   8.198   1.637  0.3281  0.3151  0.0564
 8763SOL    HW130077   4.662   8.123   1.671 -0.9334  1.4039  0.7889
 8763SOL    HW230078   4.670   8.215   1.551  1.9012 -0.9657 -0.9982
 8764SOL     OW30079   2.613   6.286   2.342  0.2139 -0.8414 -0.5152
 8764SOL    HW130080   2.608   6.376   2.310  1.0130 -0.7493 -0.3847
 8764SOL    HW230081   2.706   6.267   2.348  0.0786 -1.2789  0.5749
 8765SOL     OW30082   4.984   1.897   1.749  0.6318  0.0164  1.0180
 8765SOL    HW130083   4.891   1.877   1.741  0.6498 -0.6635  2.2659
 8765SOL    HW230084   4.987   1.984   1.788  0.5364  0.3091  0.3898
 8766SOL     OW30085   0.402   2.563   4.755 -0.6213  0.1593 -0.7758
 8766SOL    HW130086   0.320   2.516   4.745  0.8773 -2.6724 -0.6765
 8766SOL    HW230087   0.413   2.572   4.850 -0.9448  0.8773 -0.7950
 8767SOL     OW30088  10.129   2.595   3.728  0.0277 -0.4255  0.0871
 8767SOL    HW130089  10.207   2.597   3.783  0.4663 -0.3951 -0.5304
 8767SOL    HW230090  10.114   2.501   3.712  0.0419 -0.4232  0.0592
 8768SOL     OW30091   9.082   4.232   1.849 -0.1018 -0.3561 -0.1960
 8768SOL    HW130092   9.141   4.296   1.890  0.8927 -1.4418  0.1077
 8768SOL    HW230093   9.000   4.243   1.896  0.8679 -1.2336  1.8193
 8769SOL     OW30094   4.526   5.401   7.743 -0.3683 -0.1574 -0.0563
 8769SOL    HW130095   4.467   5.425   7.815  0.4642  1.1084  0.2261
 8769SOL    HW230096   4.586   5.338   7.782 -0.8492 -0.6368 -0.0655
 8770SOL     OW30097  10.345   5.889   3.284  0.0404  0.2845  0.4474
 8770SOL    HW130098  10.381   5.847   3.361  2.5404 -0.8307 -1.1844
 8770SOL    HW230099  10.286   5.824   3.245  0.0152  0.2299  0.5787
 8771SOL     OW30100   5.466   2.439  10.231 -0.0740  0.4765  0.1457
 8771SOL    HW130101   5.385   2.485  10.213 -0.9812 -1.1058  0.0084
 8771SOL    HW230102   5.448   2.389  10.311  0.3203 -0.8610 -0.5751
 8772SOL     OW30103   4.862   1.218   2.632 -0.2796  0.2697 -0.2239
 8772SOL    HW130104   4.901   1.132   2.616  3.7914  1.9847 -0.7532
 8772SOL    HW230105   4.879   1.235   2.724 -2.0776  0.1812  0.1731
 8773SOL     OW30106   1.665   8.043   5.716  0.1635 -0.0521 -0.4188
 8773SOL    HW130107   1.602   8.019   5.648  0.6965  1.1572 -1.3696
 8773SOL    HW230108   1.749   8.010   5.685  0.1320 -1.0798  0.5311
 8774SOL     OW30109   9.841   0.692   7.540 -0.0146  0.8476 -0.0855
 8774SOL    HW130110   9.911   0.749   7.572  0.7119 -1.0655  1.9861
 8774SOL    HW230111   9.769   0.752   7.521  1.6014  2.7214 -0.7395
 8775SOL     OW30112   2.862   4.986   9.898 -0.1389 -0.2405  0.2283
 8775SOL    HW130113   2.776   4.989   9.939 -0.3421 -1.0432 -0.1248
 8775SOL    HW230114   2.890   4.895   9.908 -0.1933 -0.4602 -1.3979
 8776SOL     OW30115   3.342   6.675   9.359  0.1333 -0.0392  0.1660
 8776SOL    HW130116   3.377   6.628   9.284  2.6566  3.2817 -1.0188
 8776SOL    HW230117   3.383   6.634   9.435 -0.0790 -1.5391 -0.4981
 8777SOL     OW30118   9.764   2.595   4.612  0.4119  0.2688  0.0585
 8777SOL    HW130119   9.699   2.588   4.681  0.3177  0.1746 -0.0393
 8777SOL    HW230120   9.848   2.578   4.655  0.4126  0.7711  0.2599
 8778SOL     OW30121   5.744   2.673   5.519 -0.1232 -0.7382  0.2758
 8778SOL    HW130122   5.741   2.766   5.498 -0.6084 -1.3403 -2.6760
 8778SOL    HW230123   5.714   2.668   5.610 -1.1742  1.8592  0.1558
 8779SOL     OW30124   5.133   9.510   5.165  0.0756  0.1161 -0.4393
 8779SOL    HW130125   5.098   9.566   5.096 -1.1895  0.1283  0.1815
 8779SOL    HW230126   5.225   9.535   5.172 -0.4536  2.1966 -0.1290
 8780SOL     OW30127   0.234   0.400   7.547 -0.0289 -0.1001 -0.1124
 8780SOL    HW130128   0.222   0.488   7.512  0.8427  0.5240  1.0620
 8780SOL    HW230129   0.167   0.347   7.504 -0.4809  1.1023 -0.9412
 8781SOL     OW30130   3.208   8.468   2.832 -0.7664  0.2866  0.3643
 8781SOL    HW130131   3.219   8.382   2.792  3.4758 -0.2526  2.1626
 8781SOL    HW230132   3.169   8.450   2.918 -0.2207  0.1444  0.5903
 8782SOL     OW30133   9.734   2.246   7.871  0.4167 -0.1039  0.2594
 8782SOL    HW130134   9.659   2.187   7.873 -0.0371  0.4127 -0.8145
 8782SOL    HW230135   9.712   2.311   7.805  1.1120  1.0047  1.0860
 8783SOL     OW30136   4.441   4.575   1.799 -0.2477  0.1752 -0.0386
 8783SOL    HW130137   4.449   4.608   1.709  1.4312 -1.0057 -0.3693
 8783SOL    HW230138   4.385   4.639   1.843 -0.4644  1.2019 -1.7179
 8784SOL     OW30139   7.436   3.180   8.727 -0.4531 -0.8437 -0.2541
 8784SOL    HW130140   7.493   3.257   8.728  0.4528 -1.4831  1.0516
 8784SOL    HW230141   7.424   3.158   8.820 -0.9919 -2.0562 -0.5861
 8785SOL     OW30142   0.005   0.180   9.371 -0.1766 -0.0548  0.0551
 8785SOL    HW130143  -0.042   0.258   9.341  0.9185  0.0157 -1.6621
 8785SOL    HW230144  -0.063   0.114   9.383 -1.0379  0.9283  0.7729
 8786SOL     OW30145   7.193   6.318  10.217 -0.5271 -0.3625 -0.3905
 8786SOL    HW130146   7.208   6.260  10.291 -1.0768  0.7483  0.6379
 8786SOL    HW230147   7.098   6.329  10.215 -0.3601  1.9444  0.6661
 8787SOL     OW30148   2.083   6.519   0.934 -0.4105  0.0045  0.1143
 8787SOL    HW130149   2.029   6.590   0.968  1.4744  1.4198  0.2803
 8787SOL    HW230150   2.057   6.443   0.986 -2.7201  0.4153 -0.3059
 8788SOL     OW30151   4.302   8.007   9.706  0.4748  0.1309  0.2588
 8788SOL    HW130152   4.246   8.068   9.754  2.1614  0.4000  2.0154
 8788SOL    HW230153   4.284   7.922   9.746  0.3916  0.0002 -0.0539
 8789SOL     OW30154  10.279   2.380   1.642  1.0676  0.4323  0.5764
 8789SOL    HW130155  10.319   2.393   1.728  0.2943 -0.7307  1.1464
 8789SOL    HW230156  10.295   2.288   1.621  1.0899  0.6546 -0.4510
 8790SOL     OW30157   2.936   7.657   6.356 -0.1893 -0.0477 -0.3664
 8790SOL    HW130158   2.844   7.644   6.334  0.2155 -1.2032 -1.4291
 8790SOL    HW230159   2.980   7.669   6.272  0.5223  1.4807  0.1704
 8791SOL     OW30160   0.309   0.688   9.520 -0.0086 -0.3060 -0.3763
 8791SOL    HW130161   0.266   0.607   9.548  0.2864 -0.5860 -0.7184
 8791SOL    HW230162   0.254   0.758   9.555 -1.0825 -0.6580 -1.2946
 8792SOL     OW30163   2.481  10.360   1.158 -0.2389  0.0057 -0.0956
 8792SOL    HW130164   2.521  10.437   1.117 -2.6205  0.6681 -1.3731
 8792SOL    HW230165   2.473  10.297   1.086 -3.4537  0.7591 -0.5513
 8793SOL     OW30166   6.789   4.592   6.866  0.6319  0.1850  0.0056
 8793SOL    HW130167   6.870   4.556   6.903  0.7924 -2.6072 -2.6873
 8793SOL    HW230168   6.719   4.542   6.908  0.7573 -2.1161 -2.2920
 8794SOL     OW30169   6.546   2.365   3.282  0.0484  0.0848  0.0418
 8794SOL    HW130170   6.579   2.379   3.194 -0.4347  1.9559  0.1185
 8794SOL    HW230171   6.596   2.291   3.315  1.5969  0.5792 -1.1149
 8795SOL     OW30172   6.699   5.329   4.364 -0.0460  0.2292  0.8274
 8795SOL    HW130173   6.738   5.291   4.442 -0.5071  1.5859  1.7638
 8795SOL    HW230174   6.725   5.270   4.292  1.6387 -0.2292  1.7621
 8796SOL     OW30175   9.283   5.272   9.228  0.1375 -0.3520 -0.0335
 8796SOL    HW130176   9.277   5.333   9.302 -2.3464  0.1240 -0.5318
 8796SOL    HW230177   9.316   5.191   9.267  0.0284  0.2296  1.3561
 8797SOL     OW30178   2.363   9.767   7.397  0.3738 -0.1242  0.0688
 8797SOL    HW130179   2.319   9.694   7.354 -0.1546  0.6216 -0.6906
 8797SOL    HW230180   2.345   9.755   7.490 -0.8343 -0.2477 -0.1654
 8798SOL     OW30181   8.703   4.761   0.765  0.5429 -0.5118 -0.4650
 8798SOL    HW130182   8.776   4.794   0.713  1.1898  0.0098  0.7398
 8798SOL    HW230183   8.735   4.763   0.856 -0.9166 -0.3797  0.0724
 8799SOL     OW30184   4.150   8.088   2.082 -0.0794  0.0825  0.6456
 8799SOL    HW130185   4.078   8.043   2.125 -1.1428  0.2820 -0.8379
 8799SOL    HW230186   4.224   8.028   2.089 -0.2918 -0.0047  2.4264
 8800SOL     OW30187   9.094   7.097   1.264  0.0416 -0.7937 -0.3356
 8800SOL    HW130188   9.162   7.034   1.240  2.6641  1.9899 -0.9001
 8800SOL    HW230189   9.132   7.147   1.336 -0.9278  1.5438 -1.3457
 8801SOL     OW30190   8.493   4.493   0.098 -0.4420 -0.2601  0.8615
 8801SOL    HW130191   8.461   4.553   0.031  0.1597 -1.0493 -0.1543
 8801SOL    HW230192   8.418   4.437   0.117 -0.5924 -0.0831  0.7917
 8802SOL     OW30193   2.153   8.466   6.570  0.3272  0.4630  0.8616
 8802SOL    HW130194   2.221   8.473   6.503 -0.9783  1.1781 -0.4322
 8802SOL    HW230195   2.087   8.409   6.532  1.1445 -2.1641  3.0099
 8803SOL     OW30196   9.933   5.836   2.584  0.0137 -0.2793  0.1912
 8803SOL    HW130197   9.936   5.741   2.570 -0.7405 -0.1401 -1.0630
 8803SOL    HW230198   9.978   5.849   2.668  1.9774 -1.5427 -0.5840
 8804SOL     OW30199   1.881   6.256   6.446 -0.1420 -0.3095  0.2478
 8804SOL    HW130200   1.889   6.161   6.455 -0.2627 -0.2861  0.6246
 8804SOL    HW230201   1.787   6.271   6.437  0.0304 -0.6027 -4.3289
 8805SOL     OW30202   8.488  10.339   5.546 -0.1073  0.5472  0.2942
 8805SOL    HW130203   8.555  10.406   5.529  1.1280 -0.6492  0.2185
 8805SOL    HW230204   8.471  10.301   5.460 -0.4313  0.4207  0.4144
 8806SOL     OW30205   9.041   0.059   8.887 -0.6276 -0.3419  0.3206
 8806SOL    HW130206   9.087   0.069   8.804  0.4979 -0.8355  0.8483
 8806SOL    HW230207   9.111   0.059   8.953 -1.3851 -1.1362  1.1616
 8807SOL     OW30208   2.798   6.135   0.690 -0.5054 -0.1848  0.6656
 8807SOL    HW130209   2.812   6.179   0.606  1.3449 -0.1963  0.9311
 8807SOL    HW230210   2.804   6.206   0.754  1.0558 -0.5695  0.9829
 8808SOL     OW30211  10.034  10.070   4.540 -0.2336 -0.0132  0.7455
 8808SOL    HW130212   9.995  10.041   4.457 -0.0458  3.4644 -0.7437
 8808SOL    HW230213  10.128  10.065   4.525 -0.1290 -1.5591  1.6852
 8809SOL     OW30214   5.836   8.911   6.208 -0.3429  0.0217  0.0422
 8809SOL    HW130215   5.825   8.824   6.169  5.0240 -2.1650  2.4811
 8809SOL    HW230216   5.827   8.896   6.302 -0.4704  2.4383  0.4736
 8810SOL     OW30217  10.309   7.718   6.979 -0.1507 -0.3104  0.5463
 8810SOL    HW130218  10.248   7.779   7.021 -0.2577  1.3065 -1.7461
 8810SOL    HW230219  10.308   7.743   6.887  1.6761 -2.2611 -0.0914
 8811SOL     OW30220   1.643   7.946   7.191  0.1214  0.6567 -0.0742
 8811SOL    HW130221   1.706   7.916   7.126 -0.1969 -2.8459  0.9911
 8811SOL    HW230222   1.558   7.931   7.151 -0.0795  1.6642 -0.0522
 8812SOL     OW30223   9.482   7.558   7.953 -0.5751  0.2411 -0.3438
 8812SOL    HW130224   9.523   7.497   8.015  0.0999  1.0164 -0.0088
 8812SOL    HW230225   9.545   7.630   7.944 -1.8718  1.5113  0.2302
 8813SOL     OW30226   2.460   9.469   9.370  0.2632 -0.3102 -0.0817
 8813SOL    HW130227   2.446   9.546   9.425 -1.2368 -0.5300 -0.1092
 8813SOL    HW230228   2.513   9.410   9.424 -0.5697 -0.2230  0.8468
 8814SOL     OW30229   2.182   6.384   9.445  0.1966  0.0325 -0.2033
 8814SOL    HW130230   2.120   6.407   9.376  0.1388 -1.4690 -0.6731
 8814SOL    HW230231   2.222   6.302   9.417 -0.3907 -1.0545  1.8873
 8815SOL     OW30232   8.342   8.893   0.034 -0.5683 -0.2310  0.2705
 8815SOL    HW130233   8.401   8.967   0.022  1.1674 -1.8686 -2.5258
 8815SOL    HW230234   8.382   8.841   0.104 -0.7865  0.5470  0.9782
 8816SOL     OW30235   8.168   6.385   4.418 -0.3371  0.2478 -0.3194
 8816SOL    HW130236   8.237   6.397   4.352  0.6774  2.0011  0.9360
 8816SOL    HW230237   8.087   6.406   4.373  0.4396  2.4270 -0.8299
 8817SOL     OW30238   8.321   9.224   5.413  0.6150 -0.7302  0.3474
 8817SOL    HW130239   8.406   9.230   5.457  0.0014 -0.9302  1.6133
 8817SOL    HW230240   8.342   9.232   5.320  1.8870  0.4800  0.6962
 8818SOL     OW30241   2.352   3.957   1.217 -0.2160 -0.3353  0.3746
 8818SOL    HW130242   2.385   4.018   1.284  0.4610 -1.2002  0.8450
 8818SOL    HW230243   2.427   3.900   1.198 -0.9323 -1.2185  0.1722
 8819SOL     OW30244   1.917   6.240   0.200 -0.0157 -0.2793 -0.1101
 8819SOL    HW130245   1.884   6.274   0.117  0.3288  0.6022  0.1028
 8819SOL    HW230246   1.972   6.166   0.176 -0.2807 -0.3033 -0.6368
 8820SOL     OW30247   3.426   9.999   9.344 -0.0317 -0.0783 -0.3620
 8820SOL    HW130248   3.478   9.998   9.264  1.5239  1.6486  0.5318
 8820SOL    HW230249   3.477   9.947   9.406  0.3308  1.0941  0.3447
 8821SOL     OW30250   7.095   7.369   0.307 -0.6585  0.3108 -0.2750
 8821SOL    HW130251   7.068   7.302   0.370 -1.6784 -2.2194 -3.1206
 8821SOL    HW230252   7.050   7.449   0.336 -1.0064 -0.6838  2.1649
 8822SOL     OW30253   9.386   2.902   9.968  0.3310 -0.1280  0.9430
 8822SOL    HW130254   9.363   2.857   9.887  2.3515 -0.6359  0.5785
 8822SOL    HW230255   9.400   2.993   9.942 -0.2653 -0.0269  0.9740
 8823SOL     OW30256   9.050   2.699   4.678 -0.6707 -0.4696  0.2091
 8823SOL    HW130257   9.095   2.776   4.712 -0.1010 -0.8738  0.3923
 8823SOL    HW230258   8.983   2.734   4.620 -0.2043  0.1546  0.0319
 8824SOL     OW30259   3.818   1.314   1.904  0.1073 -0.0020 -0.2289
 8824SOL    HW130260   3.739   1.265   1.881  0.1955 -0.6755  0.8269
 8824SOL    HW230261   3.889   1.268   1.858 -0.0337  0.2892 -0.7533
 8825SOL     OW30262   1.147   4.124   4.503  0.0647 -0.5752  0.0060
 8825SOL    HW130263   1.174   4.056   4.565 -0.9078 -1.6956 -0.7467
 8825SOL    HW230264   1.218   4.128   4.439  0.5691 -0.1821  0.5801
 8826SOL     OW30265   9.559   6.851   7.880 -0.1822 -0.6882 -0.4250
 8826SOL    HW130266   9.589   6.922   7.936 -0.4493 -0.7344 -0.2227
 8826SOL    HW230267   9.584   6.877   7.792  0.0558 -0.5200 -0.3074
 8827SOL     OW30268   7.492   7.436   1.767 -0.0955 -0.9260 -0.3812
 8827SOL    HW130269   7.425   7.493   1.729  0.5482 -1.3792 -2.3464
 8827SOL    HW230270   7.445   7.356   1.790 -0.7052 -0.2324  0.9051
 8828SOL     OW30271   2.336   4.939   7.552  0.1042  0.0126  0.1056
 8828SOL    HW130272   2.368   5.027   7.536  1.7283 -0.3025  1.4294
 8828SOL    HW230273   2.247   4.952   7.585  0.2792  1.1394  0.1760
 8829SOL     OW30274   5.617   1.356   9.874 -0.4843  0.6226  0.3917
 8829SOL    HW130275   5.693   1.311   9.913 -0.3169  0.0858 -0.5324
 8829SOL    HW230276   5.655   1.433   9.831 -0.4583  0.3432 -0.0875
 8830SOL     OW30277   5.715   1.050   9.840  0.3236 -0.7083  0.0218
 8830SOL    HW130278   5.634   1.092   9.866  0.2596 -0.8397  0.0382
 8830SOL    HW230279   5.777   1.071   9.910  0.7392  0.6648 -0.7263
 8831SOL     OW30280   2.308   7.253  10.173  0.1337 -0.0851  0.2412
 8831SOL    HW130281   2.400   7.278  10.174  0.4377 -1.1273  1.5360
 8831SOL    HW230282   2.304   7.180  10.111 -0.2920  1.3954 -1.5855
 8832SOL     OW30283   0.752   3.895   4.210  0.1996 -0.0609 -0.2053
 8832SOL    HW130284   0.821   3.847   4.164  0.7555 -0.2317  0.7703
 8832SOL    HW230285   0.796   3.934   4.285 -0.5160  0.9038 -0.2691
 8833SOL     OW30286   0.846   1.600   7.412  0.4334 -0.1187 -0.7665
 8833SOL    HW130287   0.756   1.631   7.409  0.9873  1.7088  0.0077
 8833SOL    HW230288   0.871   1.606   7.504  0.8921 -2.1044 -0.7192
 8834SOL     OW30289   6.673  10.117   6.986 -0.0783 -0.0178 -0.1957
 8834SOL    HW130290   6.713  10.195   6.949 -0.2149  0.0012 -0.3059
 8834SOL    HW230291   6.736  10.047   6.969  0.1268  0.1054  0.0736
 8835SOL     OW30292   6.781   6.853   2.344 -0.0829  0.4517  0.4349
 8835SOL    HW130293   6.696   6.894   2.331 -1.5224 -2.7531 -1.5296
 8835SOL    HW230294   6.784   6.832   2.437  0.1455  3.5785  1.2156
 8836SOL     OW30295   4.606   8.543   3.254  0.2415  0.4581 -0.2611
 8836SOL    HW130296   4.613   8.501   3.340  0.0772  0.9803  0.0099
 8836SOL    HW230297   4.637   8.476   3.192  2.3436  0.7545  0.3761
 8837SOL     OW30298   4.386   5.119   6.909  1.0397  0.1282  0.0818
 8837SOL    HW130299   4.415   5.206   6.938  1.6230 -0.5199  1.5617
 8837SOL    HW230300   4.353   5.077   6.989  1.5315 -1.3073 -0.4332
 8838SOL     OW30301   1.638   3.087   1.604 -0.4072 -0.1064 -0.2742
 8838SOL    HW130302   1.695   3.155   1.568 -0.5588  0.4068  0.4208
 8838SOL    HW230303   1.679   3.065   1.688 -1.1931  0.2256  0.2063
 8839SOL     OW30304   2.407   8.523   1.392 -0.6589  0.2373 -0.3595
 8839SOL    HW130305   2.390   8.542   1.300  0.0274  0.5604 -0.4215
 8839SOL    HW230306   2.348   8.450   1.412 -1.5817  0.8523 -0.7553
 8840SOL     OW30307   4.906   2.098   8.553  0.5321 -0.1640 -0.1634
 8840SOL    HW130308   4.845   2.076   8.623  0.2880 -0.4724 -0.4723
 8840SOL    HW230309   4.914   2.194   8.557 -0.6001 -0.0399 -0.6500
 8841SOL     OW30310  10.102   8.384   7.949  1.0400  0.4817  0.1318
 8841SOL    HW130311  10.083   8.478   7.953 -0.0108  0.2596  3.4082
 8841SOL    HW230312  10.031   8.347   7.896  1.1921  1.4487 -0.7687
 8842SOL     OW30313   6.281   0.794   5.844  0.0405  0.0146  0.0534
 8842SOL    HW130314   6.368   0.809   5.880 -0.3244 -2.0684  2.0826
 8842SOL    HW230315   6.296   0.745   5.763  0.7724  0.4786 -0.0988
 8843SOL     OW30316   4.083   4.800   8.515 -0.3330  0.3499  0.0689
 8843SOL    HW130317   4.096   4.713   8.553  2.7439  0.3360 -0.7249
 8843SOL    HW230318   4.049   4.852   8.587  3.7663 -0.0597  2.6842
 8844SOL     OW30319   3.884   0.897   9.148  0.0797 -0.5108 -0.0267
 8844SOL    HW130320   3.836   0.852   9.078 -1.1776 -1.1709  1.2231
 8844SOL    HW230321   3.816   0.934   9.204  1.0677  2.3915 -0.5846
 8845SOL     OW30322   7.907   0.603   3.806 -0.1249 -0.4612 -0.6340
 8845SOL    HW130323   7.975   0.537   3.815  0.8062  0.4940 -0.4069
 8845SOL    HW230324   7.876   0.618   3.896 -0.2467 -0.4978 -0.6698
 8846SOL     OW30325   9.723  10.162   7.089  0.0279  0.2966 -0.7649
 8846SOL    HW130326   9.732  10.107   7.167 -0.9743 -0.0526 -0.8819
 8846SOL    HW230327   9.665  10.233   7.116  1.4954  1.4554 -0.5478
 8847SOL     OW30328   6.192   3.245   6.934  0.2847 -0.2091 -0.8535
 8847SOL    HW130329   6.099   3.264   6.920  0.3558  1.7441  0.7101
 8847SOL    HW230330   6.196   3.151   6.947 -1.5556 -0.2812 -0.5277
 8848SOL     OW30331   3.603   2.529   9.546  0.0892 -0.2582 -0.4944
 8848SOL    HW130332   3.675   2.577   9.587 -0.1027 -0.6060  0.2869
 8848SOL    HW230333   3.550   2.596   9.503  0.5885  0.0585 -0.6272
 8849SOL     OW30334   8.805   1.513   2.661 -0.0394  0.1799  0.2132
 8849SOL    HW130335   8.790   1.594   2.612  0.1557  0.0780 -0.0168
 8849SOL    HW230336   8.880   1.473   2.617  0.1862  0.1285  0.6447
 8850SOL     OW30337  10.229   7.240   7.093 -0.0093  0.0930 -0.1306
 8850SOL    HW130338  10.158   7.210   7.037 -1.1046  0.6163  0.9308
 8850SOL    HW230339  10.244   7.331   7.067 -0.2408  0.2102  0.1368
 8851SOL     OW30340   2.675   9.382   2.887  0.1071 -0.3418  0.5490
 8851SOL    HW130341   2.669   9.377   2.983  1.8242 -2.2322  0.6401
 8851SOL    HW230342   2.703   9.294   2.861  0.1398  0.2793 -1.6660
 8852SOL     OW30343   6.937   7.317   9.130 -0.1092  0.2971  0.4622
 8852SOL    HW130344   6.998   7.244   9.127 -2.4401 -1.8035  0.6208
 8852SOL    HW230345   6.859   7.285   9.085 -1.1361  2.8225  0.2935
 8853SOL     OW30346   2.573   7.098   5.161 -0.4238  0.7826 -0.3438
 8853SOL    HW130347   2.658   7.056   5.144 -1.3037 -0.4694 -1.9784
 8853SOL    HW230348   2.550   7.070   5.250  0.6132  0.6549 -0.1033
 8854SOL     OW30349   4.894  10.024   0.797 -0.0491  0.1936 -0.5365
 8854SOL    HW130350   4.972  10.079   0.787 -0.0704  0.0937 -1.3606
 8854SOL    HW230351   4.827  10.070   0.747 -0.7939  0.7726  0.9452
 8855SOL     OW30352   9.805   2.943   7.949 -0.1016  0.2095  1.0799
 8855SOL    HW130353   9.721   2.911   7.981 -1.5676  0.5934 -1.9790
 8855SOL    HW230354   9.845   2.867   7.907 -0.7423  0.8299 -0.7655
 8856SOL     OW30355   9.419   3.279   4.427 -0.3821  0.1708  0.5864
 8856SOL    HW130356   9.506   3.241   4.412 -0.0994  0.1422  2.1384
 8856SOL    HW230357   9.370   3.210   4.471 -1.5092 -0.1258 -1.0512
 8857SOL     OW30358   8.197   4.446   2.271 -0.2274 -0.3233  0.3797
 8857SOL    HW130359   8.286   4.410   2.279 -0.6245 -1.0308  1.9444
 8857SOL    HW230360   8.159   4.399   2.196  1.1072  0.9300 -1.1729
 8858SOL     OW30361   7.591   6.079   1.847  0.3219  0.3746 -0.7732
 8858SOL    HW130362   7.530   6.104   1.916  0.5568  1.0901 -0.8128
 8858SOL    HW230363   7.655   6.023   1.891 -0.5254 -0.6519 -0.7987
 8859SOL     OW30364   7.399   5.215  10.343  0.0660  0.2135  0.8142
 8859SOL    HW130365   7.363   5.127  10.341 -1.0870  0.6548  1.2294
 8859SOL    HW230366   7.394   5.241  10.435  0.4438  0.6902  0.7026
 8860SOL     OW30367   5.094   9.872   2.383 -0.4675  0.0987  0.3701
 8860SOL    HW130368   5.040   9.888   2.461 -1.5588 -2.4587  0.2535
 8860SOL    HW230369   5.149   9.797   2.408  2.0071  1.6676 -0.0609
 8861SOL     OW30370   0.156   8.381   5.575  0.0441 -0.3663 -0.0164
 8861SOL    HW130371   0.208   8.307   5.543 -1.2109 -2.0310  1.5684
 8861SOL    HW230372   0.129   8.427   5.496  0.1625 -2.1009 -1.1356
 8862SOL     OW30373   2.476   1.398   9.244  0.5969  0.4521  0.2889
 8862SOL    HW130374   2.527   1.348   9.307  0.3913  0.3069  0.3406
 8862SOL    HW230375   2.430   1.332   9.192 -0.6558  0.6100  1.1681
 8863SOL     OW30376   3.471   9.137   9.023 -0.3835 -0.2179 -0.5399
 8863SOL    HW130377   3.388   9.156   8.978  0.5339 -0.8775 -2.6487
 8863SOL    HW230378   3.528   9.103   8.954  1.0844 -1.4623  1.2041
 8864SOL     OW30379   1.004   2.766   9.998 -0.0515 -0.6190  0.0440
 8864SOL    HW130380   1.031   2.774  10.089 -1.8847  1.6341  0.4614
 8864SOL    HW230381   0.976   2.675   9.989  1.8347 -1.3722  1.1678
 8865SOL     OW30382   9.889   8.892   1.975  0.1557  0.1820 -0.3402
 8865SOL    HW130383   9.941   8.811   1.975  1.3488  0.9171 -0.4197
 8865SOL    HW230384   9.860   8.902   1.884  0.9665  0.4232 -0.5817
 8866SOL     OW30385   7.707   4.135   6.760 -0.2998  0.5096 -0.0293
 8866SOL    HW130386   7.613   4.128   6.745 -0.2329 -1.3359  0.1767
 8866SOL    HW230387   7.722   4.227   6.777 -1.7644  1.2139 -2.1106
 8867SOL     OW30388   6.316   9.018   9.963  0.0065 -0.0324 -0.7173
 8867SOL    HW130389   6.294   9.093   9.908  1.2842  0.5889 -0.4215
 8867SOL    HW230390   6.357   9.056  10.040 -0.1651 -0.9936 -0.1405
 8868SOL     OW30391   8.876   2.987   5.790  0.1292  0.3331 -0.0803
 8868SOL    HW130392   8.836   2.908   5.827 -0.6049  0.6145 -0.2448
 8868SOL    HW230393   8.817   3.012   5.719  1.1842  0.1591 -1.0406
 8869SOL     OW30394   5.840   7.313   1.010  0.3735  0.7298  0.2032
 8869SOL    HW130395   5.874   7.230   1.042 -0.1006  1.0742  1.6879
 8869SOL    HW230396   5.744   7.303   1.013  0.2970  0.7681 -1.1911
 8870SOL     OW30397   7.273   8.740   0.205 -0.0478 -0.3650  0.0672
 8870SOL    HW130398   7.207   8.809   0.217  1.3786  0.9005  0.9892
 8870SOL    HW230399   7.263   8.713   0.114 -1.3677  0.2973 -0.0107
 8871SOL     OW30400   8.175   8.520   8.351 -0.0315 -0.5302 -0.0707
 8871SOL    HW130401   8.207   8.510   8.440  2.1852  0.3716 -0.6837
 8871SOL    HW230402   8.244   8.569   8.306 -2.1672  1.2136 -1.6698
 8872SOL     OW30403   8.309   4.191   7.168 -0.5935  0.0699  0.0262
 8872SOL    HW130404   8.383   4.149   7.212  1.1710  2.7507 -0.1925
 8872SOL    HW230405   8.260   4.233   7.239 -0.3789  0.5305 -0.0975
 8873SOL     OW30406   0.295   2.786   3.665 -0.5971  0.0870 -0.0638
 8873SOL    HW130407   0.213   2.822   3.630 -1.0405 -0.2678  0.5765
 8873SOL    HW230408   0.270   2.701   3.701  0.1260 -0.1645 -0.1533
 8874SOL     OW30409   9.949   5.736   7.720  1.0467  0.1413 -0.4755
 8874SOL    HW130410   9.950   5.771   7.809 -0.5109 -0.1541 -0.3210
 8874SOL    HW230411   9.980   5.810   7.666 -0.7028  1.3033  0.0199
 8875SOL     OW30412   0.810   6.920   0.579 -0.0951 -0.4318 -0.4315
 8875SOL    HW130413   0.823   6.829   0.552 -0.8181 -0.4783 -0.6456
 8875SOL    HW230414   0.778   6.914   0.669  0.7991 -0.3369 -0.0893
 8876SOL     OW30415   7.956   8.132   9.594 -0.2219  0.6956  0.2083
 8876SOL    HW130416   7.868   8.146   9.629 -0.6049 -0.2280 -0.3445
 8876SOL    HW230417   8.010   8.199   9.636 -1.5419  2.4908 -0.8461
 8877SOL     OW30418   2.953   5.619   0.145 -0.0012  0.6004  0.2918
 8877SOL    HW130419   3.029   5.571   0.178 -0.2661  1.3303  2.0606
 8877SOL    HW230420   2.888   5.611   0.215 -1.0437  1.1831 -0.5912
 8878SOL     OW30421   5.997   3.264  10.350  0.0999 -0.2132  0.2272
 8878SOL    HW130422   5.963   3.204  10.416  0.0439 -0.1012  0.3015
 8878SOL    HW230423   6.011   3.210  10.272 -0.5585 -0.1975  0.0954
 8879SOL     OW30424   0.387   2.525   4.334 -0.1622 -0.1934 -0.5514
 8879SOL    HW130425   0.375   2.620   4.338  0.1050 -0.1657  3.3690
 8879SOL    HW230426   0.315   2.494   4.280 -1.5621  2.1042 -0.1386
 8880SOL     OW30427   3.616   2.324   3.885  0.3972 -0.3695 -0.3058
 8880SOL    HW130428   3.671   2.276   3.823  0.1331 -1.1298  0.0401
 8880SOL    HW230429   3.527   2.305   3.857  0.2571 -1.2442  0.6831
 8881SOL     OW30430   7.559   2.792   9.577  0.7551  0.1656 -0.2172
 8881SOL    HW130431   7.471   2.760   9.593  0.6412  0.9788  0.8989
 8881SOL    HW230432   7.608   2.715   9.548 -0.2176 -0.3729 -0.4604
 8882SOL     OW30433   6.279   7.255   8.054 -0.1681  0.5081  0.0472
 8882SOL    HW130434   6.269   7.160   8.043 -1.4705  0.6883 -0.6395
 8882SOL    HW230435   6.373   7.270   8.046  0.1888 -0.8372  1.2531
 8883SOL     OW30436   7.738   9.365   7.489 -0.2813 -0.2248 -0.1118
 8883SOL    HW130437   7.756   9.320   7.406  2.2628  1.0854 -0.3483
 8883SOL    HW230438   7.710   9.453   7.463  1.0870  0.3814  0.3939
 8884SOL     OW30439   4.139   3.597   8.387 -0.0165 -0.4079  0.5219
 8884SOL    HW130440   4.107   3.518   8.430 -0.7159 -0.2997  0.2333
 8884SOL    HW230441   4.073   3.664   8.408  0.8825  0.2748  1.2886
 8885SOL     OW30442   5.901   0.247   9.674 -0.3607  0.3048 -0.2875
 8885SOL    HW130443   5.878   0.163   9.714  0.0098  0.9437  1.3068
 8885SOL    HW230444   5.992   0.236   9.646 -0.6384 -0.1583 -1.0675
 8886SOL     OW30445   5.963   7.465   1.863 -0.2036  0.0982  0.1314
 8886SOL    HW130446   5.961   7.530   1.933  0.5592 -0.4383  0.6674
 8886SOL    HW230447   5.974   7.517   1.783 -0.0898  0.6587  0.5015
 8887SOL     OW30448   3.578   0.532   7.594  0.4527 -0.8626  0.4719
 8887SOL    HW130449   3.646   0.553   7.531 -0.9916 -1.7116 -1.4949
 8887SOL    HW230450   3.559   0.614   7.638  0.8213  0.0163 -0.9548
 8888SOL     OW30451   2.659   6.864   9.878  0.0250 -0.8573  0.6399
 8888SOL    HW130452   2.693   6.931   9.819  0.0767 -1.2546  0.2113
 8888SOL    HW230453   2.573   6.841   9.840 -0.7348  0.1321  1.7002
 8889SOL     OW30454   0.827  10.086   6.776  0.1920  0.0361 -0.1346
 8889SOL    HW130455   0.916  10.088   6.741  1.1398  0.0629  2.1395
 8889SOL    HW230456   0.807   9.992   6.782  0.4819  0.0035  0.3419
 8890SOL     OW30457   3.981   8.371   9.832 -0.6270  0.1789  0.1309
 8890SOL    HW130458   4.020   8.458   9.820  0.2349 -0.2808 -0.4920
 8890SOL    HW230459   4.054   8.315   9.855 -0.6016 -1.0277 -2.5838
 8891SOL     OW30460   6.658   1.339   9.079  0.7680  0.0433  0.0645
 8891SOL    HW130461   6.698   1.387   9.151 -0.6167  0.6232  0.4738
 8891SOL    HW230462   6.576   1.384   9.062 -0.6946 -2.2658  0.5996
 8892SOL     OW30463   0.630   9.395   9.358 -0.7043 -0.3907  0.4086
 8892SOL    HW130464   0.719   9.391   9.323  0.7907  1.9220  3.4882
 8892SOL    HW230465   0.598   9.481   9.331 -1.8809 -1.0150 -0.2669
 8893SOL     OW30466   5.911   3.251   8.119 -0.1532 -0.2242  0.1638
 8893SOL    HW130467   5.876   3.237   8.031  1.4650 -0.9768 -0.3988
 8893SOL    HW230468   5.927   3.346   8.124 -0.4797 -0.1456 -0.2437
 8894SOL     OW30469   6.764   3.387   9.645  0.6104  0.1164  0.4626
 8894SOL    HW130470   6.756   3.466   9.698  0.8112 -0.2716  1.0727
 8894SOL    HW230471   6.765   3.419   9.555  0.4696  0.7909  0.6964
 8895SOL     OW30472   7.075   8.486   5.127 -0.0076 -0.8239 -0.0660
 8895SOL    HW130473   7.000   8.427   5.123  0.2243 -1.2068  1.0063
 8895SOL    HW230474   7.136   8.451   5.062 -0.9303 -0.2258 -1.2982
 8896SOL     OW30475   3.271   8.016   3.325 -0.1847  0.2325 -0.1511
 8896SOL    HW130476   3.180   8.023   3.297 -0.3965 -1.4611  0.0360
 8896SOL    HW230477   3.322   8.039   3.248 -0.7658  0.4559 -0.4714
 8897SOL     OW30478   5.265   2.473   4.511 -0.3704  0.4240 -0.0402
 8897SOL    HW130479   5.200   2.404   4.497 -1.9537  1.6355  1.0061
 8897SOL    HW230480   5.241   2.542   4.450 -0.2796  1.0096  0.5673
 8898SOL     OW30481   0.436  10.085   1.841  0.3072 -0.9877 -0.4134
 8898SOL    HW130482   0.530  10.078   1.821  0.0605 -2.5408 -1.2403
 8898SOL    HW230483   0.401  10.139   1.771  0.4997 -0.8808 -0.4283
 8899SOL     OW30484   9.749   3.615   7.998 -0.0020 -0.1985  0.1835
 8899SOL    HW130485   9.737   3.710   8.003 -0.3896 -0.1233 -1.5382
 8899SOL    HW230486   9.840   3.603   7.974  0.3360 -0.3250  1.4629
 8900SOL     OW30487   6.316   3.176   9.235  0.3015 -0.7158  0.2254
 8900SOL    HW130488   6.309   3.211   9.146  1.2317 -0.1742  0.3497
 8900SOL    HW230489   6.357   3.091   9.224  0.4931 -0.6128  0.1441
 8901SOL     OW30490   5.281   7.267   3.594  0.0732  0.0890  0.0271
 8901SOL    HW130491   5.234   7.264   3.511  0.6975  0.5021 -0.3531
 8901SOL    HW230492   5.346   7.336   3.582  2.0498 -1.6770 -0.1916
 8902SOL     OW30493  10.040   6.372   2.486 -0.1250  0.0765 -0.2611
 8902SOL    HW130494  10.026   6.278   2.490  0.5937 -0.0087  1.0562
 8902SOL    HW230495  10.117   6.387   2.542 -1.7913  1.7151  1.7898
 8903SOL     OW30496   2.255   4.686   5.544 -0.4049  0.3974 -0.1174
 8903SOL    HW130497   2.191   4.627   5.504 -0.4951  0.5608 -0.2179
 8903SOL    HW230498   2.247   4.671   5.638 -0.0878 -0.0994 -0.1658
 8904SOL     OW30499   7.468   4.696   8.910  0.3822  0.0627 -0.4448
 8904SOL    HW130500   7.520   4.747   8.972  0.8527 -1.3208  0.3611
 8904SOL    HW230501   7.381   4.735   8.914  0.1668 -0.4719  1.7710
 8905SOL     OW30502   0.386   0.032   7.025  0.0122  0.0367 -0.3984
 8905SOL    HW130503   0.321   0.100   7.042 -0.4869 -0.3337 -0.7950
 8905SOL    HW230504   0.364  -0.001   6.938  0.2432 -0.6435 -0.2043
 8906SOL     OW30505   5.816   5.301  10.318 -0.1255 -0.4586  0.1437
 8906SOL    HW130506   5.786   5.227  10.370 -0.3669 -1.3466 -1.2011
 8906SOL    HW230507   5.911   5.293  10.318 -0.1746 -1.0947 -0.4389
 8907SOL     OW30508   1.774   2.369   2.895 -0.1442 -0.0066 -0.0832
 8907SOL    HW130509   1.771   2.311   2.971  0.7630 -0.5018 -0.4133
 8907SOL    HW230510   1.866   2.369   2.868 -0.6794 -1.1598 -2.1730
 8908SOL     OW30511   6.492   6.657   4.094  0.8891  0.1450 -0.0723
 8908SOL    HW130512   6.419   6.651   4.156  1.1751 -2.0165  0.1537
 8908SOL    HW230513   6.453   6.634   4.009  1.0561  0.2266 -0.1712
 8909SOL     OW30514  10.263   0.623   1.936  0.5405  0.1880 -0.0668
 8909SOL    HW130515  10.242   0.715   1.921 -1.8999 -0.5948 -2.0634
 8909SOL    HW230516  10.275   0.586   1.849  0.3821 -1.6243  0.6283
 8910SOL     OW30517   0.215   5.812   7.523  0.4723 -0.7989 -0.1667
 8910SOL    HW130518   0.135   5.784   7.567  1.2302 -1.7658  0.6595
 8910SOL    HW230519   0.284   5.795   7.587  1.2875  0.5468 -0.6493
 8911SOL     OW30520   1.946   0.947   5.523  0.5762 -0.4862  0.3999
 8911SOL    HW130521   1.971   1.025   5.473 -1.7611  0.2568  0.2367
 8911SOL    HW230522   1.927   0.881   5.457 -0.8697 -0.0343  0.3234
 8912SOL     OW30523   6.284   6.154   3.261  0.1095 -0.3153 -0.0126
 8912SOL    HW130524   6.355   6.175   3.200 -0.7545  0.8365 -0.6712
 8912SOL    HW230525   6.255   6.239   3.293 -1.3049 -0.7335 -0.1467
 8913SOL     OW30526   5.700   7.783   2.372 -0.5337  0.2326  0.0085
 8913SOL    HW130527   5.606   7.793   2.390 -0.1344 -0.0560  2.5428
 8913SOL    HW230528   5.703   7.736   2.289 -2.6013  1.3683 -0.7858
 8914SOL     OW30529   2.244   2.473   3.100 -0.2452 -0.1405 -0.7038
 8914SOL    HW130530   2.166   2.501   3.148 -1.0987 -2.0576 -0.8897
 8914SOL    HW230531   2.314   2.474   3.166 -1.1641 -1.6469  0.3413
 8915SOL     OW30532   5.865   0.485   1.320 -0.1043 -0.4088  0.5133
 8915SOL    HW130533   5.886   0.537   1.243  1.6264  0.2648  1.3763
 8915SOL    HW230534   5.850   0.396   1.287 -0.0105 -0.0084 -0.6330
 8916SOL     OW30535   7.656   7.354   9.048  0.1685  0.3511  0.0062
 8916SOL    HW130536   7.587   7.368   9.113 -0.8349  1.0403 -1.1726
 8916SOL    HW230537   7.721   7.421   9.067  0.0326  0.3473  0.4950
 8917SOL     OW30538   6.230   0.968   1.343  0.5250  0.7470  0.2855
 8917SOL    HW130539   6.292   0.900   1.315 -0.5715  0.1612 -0.8396
 8917SOL    HW230540   6.220   1.024   1.266  0.3635  1.3777  0.7619
 8918SOL     OW30541   0.009   4.212   7.425  0.3340  0.5064  0.2738
 8918SOL    HW130542   0.102   4.211   7.448  0.5912 -1.7620 -0.6644
 8918SOL    HW230543  -0.029   4.141   7.476 -0.6415  0.5700 -0.3442
 8919SOL     OW30544   9.804  10.216   6.271  0.7850 -0.1022 -0.0195
 8919SOL    HW130545   9.884  10.264   6.293 -0.3944  1.6536  0.7095
 8919SOL    HW230546   9.742  10.285   6.244 -0.1864 -1.4954 -1.5242
 8920SOL     OW30547   1.377  10.274   1.704 -0.0377 -0.4197  0.3921
 8920SOL    HW130548   1.344  10.211   1.641  1.1689 -1.3276  0.6139
 8920SOL    HW230549   1.452  10.229   1.745  2.3615  1.9683 -1.0636
 8921SOL     OW30550   4.426   5.305   6.571  0.6241 -0.2431  0.5153
 8921SOL    HW130551   4.497   5.260   6.617  0.8051  1.5229  2.0539
 8921SOL    HW230552   4.350   5.295   6.629  1.2771  3.5419  2.2759
 8922SOL     OW30553   9.652   3.861   8.110 -0.0710 -0.7581  0.2417
 8922SOL    HW130554   9.728   3.854   8.168  0.8474 -0.1423 -0.8616
 8922SOL    HW230555   9.631   3.954   8.110  1.0962 -0.4359 -1.8117
 8923SOL     OW30556   5.058   8.662   4.080 -0.1198  0.4137  0.0880
 8923SOL    HW130557   5.125   8.595   4.069 -0.2665  0.4664 -1.4311
 8923SOL    HW230558   5.073   8.723   4.007 -1.1787  0.9718  0.3132
 8924SOL     OW30559   5.702   4.309   7.476 -0.1248  0.3411 -0.1594
 8924SOL    HW130560   5.678   4.216   7.485 -2.8841  0.9136 -0.6636
 8924SOL    HW230561   5.740   4.331   7.561  0.7695 -1.2833 -0.0931
 8925SOL     OW30562   8.309   7.432   4.994 -0.4286 -0.2729 -0.6818
 8925SOL    HW130563   8.214   7.428   5.006 -0.4134 -1.4147 -0.8202
 8925SOL    HW230564   8.344   7.389   5.072  0.0019  0.6010 -0.3851
 8926SOL     OW30565   5.728   4.133   6.806 -0.2359  0.1423 -0.3970
 8926SOL    HW130566   5.721   4.149   6.712  1.4683 -0.5825 -0.6992
 8926SOL    HW230567   5.706   4.041   6.817  0.5922 -0.0543 -0.2660
 8927SOL     OW30568   2.661   4.946   5.218  0.9894  0.6572  0.3410
 8927SOL    HW130569   2.716   4.944   5.296  1.4924  0.6163 -0.0174
 8927SOL    HW230570   2.618   4.861   5.216  1.0772  0.6103  0.4972
 8928SOL     OW30571   9.631   4.639   3.095 -0.4928 -0.4819 -0.4520
 8928SOL    HW130572   9.708   4.584   3.109  0.7382  1.2702 -0.0004
 8928SOL    HW230573   9.652   4.691   3.018 -1.1981  0.0625 -0.2899
 8929SOL     OW30574   4.910   7.716   9.672 -0.1394  0.5960  0.0539
 8929SOL    HW130575   4.938   7.747   9.758 -0.2021 -0.1575  0.3549
 8929SOL    HW230576   4.974   7.649   9.648  0.0804  1.0456 -0.6508
 8930SOL     OW30577   0.160   2.885   4.725  0.1946 -0.3795  0.2614
 8930SOL    HW130578   0.153   2.974   4.691  1.6487 -0.2510  0.2210
 8930SOL    HW230579   0.132   2.829   4.652 -2.2460  0.0650  0.8033
 8931SOL     OW30580   1.343   9.333   6.315 -0.0673  0.0352  0.5771
 8931SOL    HW130581   1.433   9.364   6.330  0.6042 -0.3770 -2.0318
 8931SOL    HW230582   1.302   9.404   6.265 -1.0044 -0.0899  1.1391
 8932SOL     OW30583   2.077   3.878   9.641 -0.0636  0.8719  0.1196
 8932SOL    HW130584   1.998   3.910   9.685 -0.5461 -0.8006  0.5340
 8932SOL    HW230585   2.045   3.821   9.572  0.7613 -0.6505  0.9396
 8933SOL     OW30586   9.241   2.532   1.389  0.3140 -0.0924 -0.0886
 8933SOL    HW130587   9.209   2.465   1.328  2.2093 -0.0881 -1.1824
 8933SOL    HW230588   9.241   2.613   1.338 -3.4496  1.2092  1.6884
 8934SOL     OW30589   2.570   5.692   8.217 -0.5136 -0.1495 -0.6162
 8934SOL    HW130590   2.556   5.787   8.213 -0.8251 -0.1164  0.7813
 8934SOL    HW230591   2.484   5.655   8.196 -1.0440 -0.0562  1.2337
 8935SOL     OW30592   2.701   8.628   1.109  0.1335 -0.3185 -0.7089
 8935SOL    HW130593   2.622   8.674   1.080  1.9065  1.8865 -2.4102
 8935SOL    HW230594   2.750   8.612   1.029  1.9483 -0.6073  0.4054
 8936SOL     OW30595  10.306   7.914   9.453  0.2933  0.5306  0.5235
 8936SOL    HW130596  10.335   7.962   9.531  0.2190 -1.3723  1.8143
 8936SOL    HW230597  10.211   7.921   9.454  0.3137  0.8402  0.3692
 8937SOL     OW30598   7.042   4.399   7.589 -0.1920 -0.1307  0.3665
 8937SOL    HW130599   7.111   4.337   7.613  1.1383  1.2219  0.1702
 8937SOL    HW230600   7.007   4.366   7.506  1.8295  0.3945 -0.7394
 8938SOL     OW30601  10.309   5.083   3.826  0.6780  0.1886  0.0213
 8938SOL    HW130602  10.235   5.082   3.886  0.7537 -0.1154  0.1101
 8938SOL    HW230603  10.370   5.018   3.861 -0.0163 -1.2599 -1.3403
 8939SOL     OW30604   7.324   1.307   3.659  0.5186  0.0363 -0.3598
 8939SOL    HW130605   7.410   1.264   3.657  0.3322 -0.3627  0.0838
 8939SOL    HW230606   7.263   1.238   3.685  0.2147  0.5636  0.3614
 8940SOL     OW30607   3.872   1.061   6.635  0.5821 -0.2035  0.1196
 8940SOL    HW130608   3.892   1.067   6.541  1.1361  0.0955  0.2552
 8940SOL    HW230609   3.824   1.142   6.655  1.1808  0.1215  0.2650
 8941SOL     OW30610   8.002   7.763   1.111 -0.2559 -0.1555  0.4894
 8941SOL    HW130611   7.928   7.731   1.162  0.8049 -0.9481  1.5832
 8941SOL    HW230612   7.985   7.733   1.022 -1.0024 -0.7579  0.8249
 8942SOL     OW30613   2.413   6.292   9.191  0.2351 -0.3198 -0.3041
 8942SOL    HW130614   2.350   6.236   9.237  1.5815 -0.9816  0.8140
 8942SOL    HW230615   2.374   6.306   9.105 -1.3818 -0.7860  0.3072
 8943SOL     OW30616   8.085   9.257   6.918  0.1592 -0.1456  0.2421
 8943SOL    HW130617   8.181   9.258   6.928  0.0874  0.3785  0.9890
 8943SOL    HW230618   8.065   9.168   6.889  1.0848  0.4250 -2.4203
 8944SOL     OW30619   5.775   4.999   6.481 -0.1213  0.1414  0.2843
 8944SOL    HW130620   5.757   5.093   6.493  0.1896  0.0615  1.5981
 8944SOL    HW230621   5.858   4.985   6.528 -1.0305 -1.1069  1.5996
 8945SOL     OW30622   3.489   7.177   4.962  0.7664 -0.3214  0.0547
 8945SOL    HW130623   3.544   7.166   5.039  1.4987 -0.7506 -0.5210
 8945SOL    HW230624   3.539   7.236   4.905  0.6086 -0.6661 -0.4452
 8946SOL     OW30625   1.029   2.750   6.932 -0.1630 -0.0243 -0.6899
 8946SOL    HW130626   0.973   2.766   7.008 -0.2222  0.6781 -0.8803
 8946SOL    HW230627   1.078   2.671   6.955 -2.8740 -2.0813 -1.4631
 8947SOL     OW30628   9.078   1.036   1.718  0.0049  0.1148 -0.0347
 8947SOL    HW130629   9.086   0.973   1.646  1.6375 -1.3687  1.3361
 8947SOL    HW230630   9.165   1.075   1.726 -0.4332  1.0296  0.4892
 8948SOL     OW30631   7.898   6.258   2.159  0.1420 -0.4733  0.3516
 8948SOL    HW130632   7.805   6.239   2.173  0.2336 -0.8924  0.4239
 8948SOL    HW230633   7.931   6.277   2.247  0.4146 -1.7028  0.5374
 8949SOL     OW30634   3.397   8.298   3.986  0.0386  0.3937 -0.3304
 8949SOL    HW130635   3.348   8.290   3.904  0.1294 -0.7082 -0.2913
 8949SOL    HW230636   3.468   8.233   3.978  0.9294  1.2917  0.0094
 8950SOL     OW30637   1.583   8.528   6.408  0.3259 -0.5593 -0.2561
 8950SOL    HW130638   1.551   8.588   6.475  0.3678 -1.0586  0.2212
 8950SOL    HW230639   1.666   8.496   6.441  0.7013 -0.2555 -0.8925
 8951SOL     OW30640   7.021   1.703   9.580 -0.1637 -0.6545 -0.1202
 8951SOL    HW130641   6.992   1.696   9.489  0.6908  1.4336 -0.6248
 8951SOL    HW230642   7.116   1.700   9.576 -0.0242  1.2638  0.4292
 8952SOL     OW30643   3.759   3.792   0.568  0.2293 -0.0502  0.0032
 8952SOL    HW130644   3.665   3.774   0.567 -0.1275  1.6169 -0.7827
 8952SOL    HW230645   3.795   3.727   0.628 -1.5002 -0.3525  0.7908
 8953SOL     OW30646   8.146   3.399  10.208 -0.9421  0.3087  0.3464
 8953SOL    HW130647   8.081   3.461  10.241 -0.2692  1.5892 -0.6382
 8953SOL    HW230648   8.111   3.370  10.123  1.1650  3.6082 -1.8960
 8954SOL     OW30649   5.703   2.969   8.700  0.6708 -0.2986 -0.6507
 8954SOL    HW130650   5.699   2.882   8.661  4.3900 -1.1375  0.4315
 8954SOL    HW230651   5.700   3.029   8.626 -0.2174 -1.3948 -1.5503
 8955SOL     OW30652   3.307   1.662  10.126  0.0969 -0.2267  0.0102
 8955SOL    HW130653   3.312   1.754  10.154 -0.4745  0.1370 -1.0110
 8955SOL    HW230654   3.255   1.619  10.194 -0.5046  0.4344 -0.0182
 8956SOL     OW30655   0.806   0.610   7.433 -0.2432  0.9070 -0.8730
 8956SOL    HW130656   0.896   0.582   7.449 -0.8534 -0.9087 -0.4424
 8956SOL    HW230657   0.810   0.706   7.437  1.7782  0.9040 -1.5525
 8957SOL     OW30658   1.231   2.291   3.404 -0.1285 -0.1933 -0.3040
 8957SOL    HW130659   1.151   2.293   3.457 -1.3819 -0.2698 -2.1055
 8957SOL    HW230660   1.299   2.325   3.462 -1.5746  0.4206  1.1143
 8958SOL     OW30661   3.706   8.852   5.845  0.2495 -0.6361 -0.1673
 8958SOL    HW130662   3.686   8.765   5.878  1.1873 -0.9352 -0.3372
 8958SOL    HW230663   3.639   8.909   5.883 -0.0403 -1.3372  0.3930
 8959SOL     OW30664   3.571   7.519   4.095 -0.8029  0.3870 -0.1447
 8959SOL    HW130665   3.623   7.439   4.084 -0.0473  0.7897  0.4123
 8959SOL    HW230666   3.636   7.587   4.111 -1.5421  0.7876  1.2567
 8960SOL     OW30667   2.581   6.000   0.443  0.0659 -0.2787  0.3322
 8960SOL    HW130668   2.554   6.022   0.532  1.0085  1.6891  0.1702
 8960SOL    HW230669   2.546   6.071   0.389  2.5885  0.5302 -0.3456
 8961SOL     OW30670   8.372   5.588   7.353  0.3703 -0.4903  0.6031
 8961SOL    HW130671   8.379   5.545   7.438  2.1372  1.0692  1.3158
 8961SOL    HW230672   8.448   5.646   7.349 -0.3691  0.4362 -1.5116
 8962SOL     OW30673   9.872   4.189   3.746  0.6879 -0.1316  0.0302
 8962SOL    HW130674   9.828   4.156   3.824 -1.7163 -1.1225 -1.6367
 8962SOL    HW230675   9.933   4.119   3.721  2.4374  0.7186  1.6296
 8963SOL     OW30676   0.999   6.496   9.189 -0.0663  0.4965 -0.0273
 8963SOL    HW130677   1.013   6.577   9.238 -3.3215  0.4305  1.2410
 8963SOL    HW230678   0.975   6.431   9.255 -1.9979 -0.2809 -1.3942
 8964SOL     OW30679   4.672   8.756   4.571  0.0580  0.2038 -0.7045
 8964SOL    HW130680   4.765   8.764   4.554  0.6678 -3.3566  0.1072
 8964SOL    HW230681   4.661   8.666   4.602 -3.4706  0.8699  0.4593
 8965SOL     OW30682   1.848   0.407   6.685  0.0595  0.1913 -0.4666
 8965SOL    HW130683   1.810   0.390   6.598  1.0123 -0.1596 -0.8308
 8965SOL    HW230684   1.841   0.324   6.731  0.4543  0.0948 -0.5723
 8966SOL     OW30685   4.482   3.778   2.422 -0.4460 -0.5787 -0.1873
 8966SOL    HW130686   4.498   3.838   2.494  0.4971 -0.7044 -0.2773
 8966SOL    HW230687   4.465   3.694   2.465 -2.7987 -0.0859 -0.0174
 8967SOL     OW30688   5.017   3.674   0.939  0.0703 -0.1775 -0.0946
 8967SOL    HW130689   5.030   3.653   0.846  4.7505 -1.7625  0.6351
 8967SOL    HW230690   4.998   3.589   0.980  1.4217 -0.1066  0.7417
 8968SOL     OW30691   2.734   4.730   0.987  0.4382  0.0645  0.1764
 8968SOL    HW130692   2.720   4.764   1.076 -0.7874  3.4980 -1.1661
 8968SOL    HW230693   2.828   4.716   0.981  0.6694  0.8071  1.6653
 8969SOL     OW30694   3.999   6.620  10.309 -0.2353  0.1567  0.4979
 8969SOL    HW130695   3.946   6.541  10.307 -0.8740  0.5847 -0.6759
 8969SOL    HW230696   3.953   6.679  10.369  0.2483 -0.3537  1.3808
 8970SOL     OW30697   2.303   2.331   8.332 -0.1594 -0.6237  0.0119
 8970SOL    HW130698   2.312   2.378   8.249  3.4505 -0.7116  0.2066
 8970SOL    HW230699   2.283   2.241   8.307  1.7799 -0.8427 -0.8781
 8971SOL     OW30700   1.902   3.840   7.045 -0.1298  0.2388 -0.2173
 8971SOL    HW130701   1.899   3.779   6.971 -0.1688 -2.0894  1.5623
 8971SOL    HW230702   1.989   3.880   7.040  0.3733 -0.8686 -0.8192
 8972SOL     OW30703   5.161   4.230   6.825  0.1306 -0.4648  0.1639
 8972SOL    HW130704   5.238   4.191   6.784  0.2469  0.2720 -0.3303
 8972SOL    HW230705   5.091   4.166   6.811  0.5449 -0.9489  0.2535
 8973SOL     OW30706   5.317   7.735   6.328 -0.0068  0.1890 -0.0271
 8973SOL    HW130707   5.333   7.779   6.411  0.3846 -1.7616  0.9860
 8973SOL    HW230708   5.389   7.762   6.272  0.2936  0.7202  0.6020
 8974SOL     OW30709   9.238   8.407   5.842  0.4682  0.2182  0.3056
 8974SOL    HW130710   9.153   8.373   5.871 -0.3603  0.4954 -1.6963
 8974SOL    HW230711   9.240   8.497   5.874 -0.5187  0.5863 -0.6061
 8975SOL     OW30712   1.860   2.547   7.428  0.0506  0.3436  0.5932
 8975SOL    HW130713   1.936   2.573   7.377 -0.5692  1.2607  0.0919
 8975SOL    HW230714   1.876   2.456   7.453  0.5163 -0.0256 -0.9768
 8976SOL     OW30715   7.972   6.226   2.988 -0.3697 -0.3961 -0.3575
 8976SOL    HW130716   8.021   6.286   3.044 -0.5055  0.1604 -0.8283
 8976SOL    HW230717   7.992   6.139   3.024 -0.2199 -0.0751  0.3678
 8977SOL     OW30718   7.854   8.378   7.174 -0.4254 -0.0255 -0.0986
 8977SOL    HW130719   7.839   8.463   7.134 -0.5225  0.0821  0.1644
 8977SOL    HW230720   7.926   8.340   7.124 -0.2931  0.2684 -0.1325
 8978SOL     OW30721   1.431   4.135   4.562  0.3778  0.2926  0.0830
 8978SOL    HW130722   1.525   4.123   4.549  0.4697 -0.9511  1.5425
 8978SOL    HW230723   1.418   4.116   4.655 -1.5288 -1.0645 -0.4154
 8979SOL     OW30724   2.445   5.515   4.035 -0.3155  0.5506 -0.2216
 8979SOL    HW130725   2.422   5.522   4.128 -0.5729  1.3103 -0.3390
 8979SOL    HW230726   2.482   5.427   4.027  0.4689  0.7634  0.7761
 8980SOL     OW30727   6.869   6.343   9.582 -0.2311  0.4262  0.5859
 8980SOL    HW130728   6.874   6.271   9.645  0.1511  0.2889  0.4042
 8980SOL    HW230729   6.848   6.420   9.635  0.9991  0.4832  1.0137
 8981SOL     OW30730   3.992   6.580   6.667 -0.5890  0.3986 -0.0985
 8981SOL    HW130731   3.911   6.631   6.665 -1.8040 -1.4621 -1.2374
 8981SOL    HW230732   4.044   6.620   6.737 -1.4320  3.1618 -0.9546
 8982SOL     OW30733   3.535   9.903   8.612 -0.2025  0.2091  0.0825
 8982SOL    HW130734   3.475   9.848   8.663 -0.4452 -0.2177 -0.6496
 8982SOL    HW230735   3.579   9.842   8.554 -0.1135  0.7243 -0.3966
 8983SOL     OW30736   5.347   7.467   6.111  0.5984  0.5296  0.2114
 8983SOL    HW130737   5.423   7.476   6.168 -0.0975 -2.2860  1.7703
 8983SOL    HW230738   5.272   7.477   6.169 -0.1425 -2.3945 -0.1196
 8984SOL     OW30739   6.867   4.813   8.116  0.7153 -0.0843 -0.1583
 8984SOL    HW130740   6.838   4.754   8.047 -0.0817 -0.0675  0.1572
 8984SOL    HW230741   6.832   4.775   8.197  0.5593  0.5886  0.0946
 8985SOL     OW30742   4.708   2.429   7.714 -0.3832  0.6022  0.5807
 8985SOL    HW130743   4.761   2.499   7.753 -0.5996  0.7445  0.6242
 8985SOL    HW230744   4.634   2.475   7.673 -0.3613  0.4223  0.3378
 8986SOL     OW30745   6.833   9.600   7.904 -0.1034  0.2725 -0.0715
 8986SOL    HW130746   6.909   9.567   7.952 -2.3547 -2.5511  1.9146
 8986SOL    HW230747   6.834   9.694   7.920  1.9906  0.0791  1.3914
 8987SOL     OW30748   9.285   8.939   8.292 -0.3731 -0.1062 -0.7656
 8987SOL    HW130749   9.365   8.937   8.239 -0.6482  0.4538 -1.2068
 8987SOL    HW230750   9.280   9.029   8.324  0.2005 -0.6198  0.8598
 8988SOL     OW30751   2.194   9.290   1.533  0.3297 -0.1505  0.0710
 8988SOL    HW130752   2.197   9.283   1.628  1.8666  2.0879  0.2493
 8988SOL    HW230753   2.231   9.207   1.502  2.0069  0.0229  1.4843
 8989SOL     OW30754   9.201   9.420   0.934  0.1272  0.0792  0.2410
 8989SOL    HW130755   9.267   9.360   0.901 -0.7522 -0.8889  0.1892
 8989SOL    HW230756   9.138   9.430   0.863  0.2414  1.0587  0.2549
 8990SOL     OW30757   0.366  10.040  10.170  0.2419  0.1979 -0.0364
 8990SOL    HW130758   0.462  10.039  10.173  0.2980 -0.0449 -1.4583
 8990SOL    HW230759   0.340  10.076  10.255  1.6282  1.6747 -0.1885
 8991SOL     OW30760   5.065   2.719   8.848 -0.0050 -0.3639 -0.0029
 8991SOL    HW130761   5.072   2.756   8.760 -0.9754  0.7781  0.3743
 8991SOL    HW230762   4.974   2.733   8.873  0.0855 -1.2967  0.9304
 8992SOL     OW30763   9.749   7.523   9.124 -0.0830  0.2748  0.2129
 8992SOL    HW130764   9.802   7.502   9.047  0.8076 -2.9549  1.5173
 8992SOL    HW230765   9.812   7.533   9.195 -1.0128 -0.2286  1.1487
 8993SOL     OW30766   4.538   1.655   6.491  0.4374  0.1576  0.2767
 8993SOL    HW130767   4.595   1.638   6.416 -0.4370 -2.3879  0.0731
 8993SOL    HW230768   4.597   1.660   6.566  1.1123  0.0079 -0.2384
 8994SOL     OW30769   0.742   8.085   1.610  0.2839  0.1287 -0.0477
 8994SOL    HW130770   0.667   8.027   1.596  1.2576 -0.5802 -2.8108
 8994SOL    HW230771   0.711   8.148   1.676 -2.2728 -0.8977 -0.1477
 8995SOL     OW30772  10.174   0.450   3.768  0.1244 -0.3916  0.1003
 8995SOL    HW130773  10.253   0.503   3.763 -0.8224  1.0485 -0.3356
 8995SOL    HW230774  10.120   0.494   3.834 -1.2692  0.0250 -1.2699
 8996SOL     OW30775   5.083   5.962   6.635  0.4950 -1.0956 -0.0300
 8996SOL    HW130776   5.011   5.984   6.577 -1.0061 -2.5295  1.1703
 8996SOL    HW230777   5.154   5.934   6.577  1.5053  3.5539 -1.4607
 8997SOL     OW30778   5.582   0.881   4.692  0.0596  0.2254 -0.2924
 8997SOL    HW130779   5.584   0.972   4.724  0.8518 -0.5821  2.1700
 8997SOL    HW230780   5.671   0.849   4.704 -0.2676 -0.9742 -0.8900
 8998SOL     OW30781   1.978   2.912   7.990 -0.0527 -0.2153  0.2805
 8998SOL    HW130782   1.944   2.983   8.045  1.1176  0.0859  0.6385
 8998SOL    HW230783   1.994   2.840   8.052 -0.8108 -0.6480 -0.0136
 8999SOL     OW30784   8.411   9.848   0.844 -0.7469  0.7568  0.2298
 8999SOL    HW130785   8.486   9.885   0.892  1.3178 -2.1567 -0.4805
 8999SOL    HW230786   8.346   9.830   0.912  0.9575 -0.5762  1.6369
 9000SOL     OW30787   7.713   5.586   9.079  0.5738  0.0281 -0.0944
 9000SOL    HW130788   7.662   5.517   9.037 -0.1325  0.3483  0.2103
 9000SOL    HW230789   7.782   5.607   9.017 -0.6479  0.7391 -1.2774
 9001SOL     OW30790   2.118   3.024   0.895 -0.1022  0.1109 -0.3557
 9001SOL    HW130791   2.173   2.975   0.956  1.4832 -0.3788 -2.0847
 9001SOL    HW230792   2.168   3.103   0.876 -1.4666  1.1898  0.4186
 9002SOL     OW30793   2.796   1.307   8.276  0.0097 -0.3835 -0.1019
 9002SOL    HW130794   2.785   1.218   8.241  1.0788 -0.1612 -1.0649
 9002SOL    HW230795   2.828   1.293   8.365 -3.8299 -0.9760  1.3830
 9003SOL     OW30796   9.618   3.263   3.877 -0.1540  0.0190 -0.6709
 9003SOL    HW130797   9.637   3.356   3.892 -1.6298  0.1180  0.8386
 9003SOL    HW230798   9.527   3.261   3.849  0.3023 -0.8842 -2.1616
 9004SOL     OW30799   6.894   2.377   6.978  0.6012 -0.1953 -0.3566
 9004SOL    HW130800   6.823   2.350   6.920 -0.4643 -1.6199  1.5126
 9004SOL    HW230801   6.861   2.457   7.020  0.3399 -0.5168  0.0591
 9005SOL     OW30802   8.931   0.071   6.704 -0.1051  0.4263 -0.8298
 9005SOL    HW130803   8.905   0.019   6.628  1.2633  1.0337 -1.7646
 9005SOL    HW230804   8.873   0.146   6.703 -1.2017 -0.3847 -0.2600
 9006SOL     OW30805   8.372   2.281   4.885 -0.3249 -0.6235 -0.5962
 9006SOL    HW130806   8.466   2.266   4.898 -0.2855 -0.3096 -0.4976
 9006SOL    HW230807   8.368   2.346   4.815 -0.4192  0.3437  0.2721
 9007SOL     OW30808   8.165   7.975   9.632 -0.6033  0.9639 -0.0451
 9007SOL    HW130809   8.084   8.022   9.611 -1.5821 -1.4681 -2.1770
 9007SOL    HW230810   8.224   7.995   9.559 -1.4613 -1.8194 -1.6750
 9008SOL     OW30811   9.536   8.789   9.835 -0.2126 -0.7003  0.1389
 9008SOL    HW130812   9.611   8.830   9.791 -1.2923  0.8499 -0.3320
 9008SOL    HW230813   9.566   8.774   9.925  0.5481  0.2020  0.0451
 9009SOL     OW30814   8.618   0.428  10.006 -0.0242 -0.0858  0.2120
 9009SOL    HW130815   8.560   0.371  10.057  1.2559 -0.5154  1.2555
 9009SOL    HW230816   8.699   0.429  10.056  2.0663 -2.1590 -2.7508
 9010SOL     OW30817   2.659   1.648   8.383 -0.2793 -0.3806  0.8623
 9010SOL    HW130818   2.723   1.588   8.422  0.2868 -0.8010 -0.6316
 9010SOL    HW230819   2.581   1.594   8.370  0.0748 -0.7006 -0.0459
 9011SOL     OW30820   1.804   1.724   8.228 -0.0578 -0.0019 -0.0467
 9011SOL    HW130821   1.867   1.661   8.194 -0.1355 -1.0164  1.5767
 9011SOL    HW230822   1.856   1.799   8.255  0.2881 -0.2427 -0.0422
 9012SOL     OW30823   6.226   5.710   7.750 -0.6616  0.1137  0.8263
 9012SOL    HW130824   6.235   5.692   7.657 -1.0740 -2.0892  1.1498
 9012SOL    HW230825   6.132   5.721   7.763 -0.5892  0.5851  0.9539
 9013SOL     OW30826  10.062   0.274   0.840 -0.8204 -0.2760  0.4488
 9013SOL    HW130827  10.137   0.317   0.799 -1.1469  0.5708  0.7185
 9013SOL    HW230828  10.067   0.183   0.810 -0.3379  0.0316 -0.4462
 9014SOL     OW30829   0.490   8.999   3.699  0.0453  0.1626  0.2935
 9014SOL    HW130830   0.516   9.089   3.718 -0.0951  0.1754  0.4292
 9014SOL    HW230831   0.528   8.980   3.613  0.9482 -0.0031  0.7218
 9015SOL     OW30832   7.778  10.282   8.010 -0.2355  0.3000 -0.3053
 9015SOL    HW130833   7.737  10.369   8.007  1.6885  1.2321 -1.2062
 9015SOL    HW230834   7.705  10.222   8.020 -1.7422  1.9329 -0.9264
 9016SOL     OW30835   4.091   7.561   2.689 -0.4991  0.1230  0.5754
 9016SOL    HW130836   4.119   7.637   2.638  0.2375  0.0699  0.8979
 9016SOL    HW230837   4.168   7.505   2.695 -0.9596 -0.5291  0.5705
 9017SOL     OW30838   6.769   2.033  10.283 -0.0775  0.2592 -0.0673
 9017SOL    HW130839   6.787   2.068  10.196 -1.3751 -0.7368 -0.7572
 9017SOL    HW230840   6.850   1.986  10.307 -0.5523 -1.5729 -1.8194
 9018SOL     OW30841   9.900   8.319   8.754  0.1207  0.0203 -0.3220
 9018SOL    HW130842   9.806   8.310   8.743  0.3582 -1.7480 -1.2799
 9018SOL    HW230843   9.936   8.237   8.719  2.0101  0.6892 -0.0449
 9019SOL     OW30844   9.178   1.972   2.731 -0.2844  0.3090 -0.2535
 9019SOL    HW130845   9.123   2.039   2.689 -0.7508 -0.3600 -0.7337
 9019SOL    HW230846   9.152   1.890   2.689  1.0869 -0.0314 -0.4804
 9020SOL     OW30847   5.558   0.119   3.129  0.2638  0.2859  0.3521
 9020SOL    HW130848   5.646   0.122   3.091  1.3562 -1.4589  2.4981
 9020SOL    HW230849   5.516   0.045   3.085  0.4177  0.1699  0.3993
 9021SOL     OW30850   1.797   5.570   7.026  0.0587  0.2346 -0.4195
 9021SOL    HW130851   1.719   5.531   6.986  0.5998 -0.1330 -1.1442
 9021SOL    HW230852   1.866   5.557   6.961  0.3652  2.0496 -0.5139
 9022SOL     OW30853   7.380   6.962   6.938 -0.0774 -0.3136  0.3915
 9022SOL    HW130854   7.362   6.887   6.995 -0.4769  0.0474  0.7536
 9022SOL    HW230855   7.309   6.961   6.873  0.2380 -0.5803  0.0475
 9023SOL     OW30856   8.598   5.224   9.797  0.2130 -0.4263 -0.0022
 9023SOL    HW130857   8.556   5.146   9.761 -1.1164  0.0272  0.4993
 9023SOL    HW230858   8.589   5.290   9.727 -0.6409 -0.1037  0.3976
 9024SOL     OW30859   3.899   3.239   3.351  0.3590  0.4061 -0.1875
 9024SOL    HW130860   3.968   3.187   3.391 -0.4220 -0.3600  0.1854
 9024SOL    HW230861   3.818   3.196   3.377 -0.2012 -0.4819 -2.9709
 9025SOL     OW30862   4.530   6.513   9.209  0.0816  0.2838  0.2721
 9025SOL    HW130863   4.560   6.523   9.118 -1.4996 -0.6870 -0.3948
 9025SOL    HW230864   4.548   6.599   9.249  0.9745  0.6711 -0.8780
 9026SOL     OW30865   7.990   7.666   3.824  0.6223 -0.2414  0.0147
 9026SOL    HW130866   8.082   7.657   3.802  0.8748  0.0410  0.9471
 9026SOL    HW230867   7.983   7.634   3.914 -0.1722 -0.1671 -0.0128
 9027SOL     OW30868   7.033   6.732   2.708 -0.5117  0.2142 -0.1568
 9027SOL    HW130869   6.937   6.725   2.711 -0.6790  1.8439 -0.8921
 9027SOL    HW230870   7.053   6.804   2.768  0.4617 -1.3667  1.5232
 9028SOL     OW30871   9.522   9.194   6.982 -0.0088  0.1199 -0.2811
 9028SOL    HW130872   9.445   9.179   6.928 -0.8899 -3.1767  1.6085
 9028SOL    HW230873   9.486   9.222   7.067  0.9695 -0.1085  0.2185
 9029SOL     OW30874   6.713   9.390   2.090  0.0779  0.3950 -0.1027
 9029SOL    HW130875   6.662   9.423   2.164 -0.7741 -2.0701  0.5289
 9029SOL    HW230876   6.802   9.418   2.108 -0.4131  1.4065  0.8975
 9030SOL     OW30877   9.662  10.216   9.011  0.1767  0.6346  0.1539
 9030SOL    HW130878   9.732  10.151   9.000 -0.3450  0.3231 -1.5465
 9030SOL    HW230879   9.610  10.183   9.085  0.0061 -0.8170 -0.5816
 9031SOL     OW30880   0.615   6.232   8.509 -0.5254  0.0403 -0.3108
 9031SOL    HW130881   0.652   6.145   8.498 -1.1495 -0.2057 -0.5374
 9031SOL    HW230882   0.664   6.271   8.581 -1.5817 -1.2529  1.1799
 9032SOL     OW30883   5.021   6.299   5.507  0.2242 -0.0046 -0.0623
 9032SOL    HW130884   5.036   6.367   5.572  0.4675  0.3551 -0.4871
 9032SOL    HW230885   5.057   6.220   5.546  1.5167  0.4577 -0.2621
 9033SOL     OW30886   1.689   8.247   4.537  0.3814  0.3600 -0.3192
 9033SOL    HW130887   1.766   8.192   4.550 -0.4197 -0.5171  0.9245
 9033SOL    HW230888   1.615   8.192   4.565 -0.4875  1.9432  0.6356
 9034SOL     OW30889   6.240   3.934   3.556  0.3566  0.1226  0.6451
 9034SOL    HW130890   6.232   3.912   3.649  1.6164 -0.2535  0.6809
 9034SOL    HW230891   6.330   3.966   3.546  0.4409 -0.4172 -0.5536
 9035SOL     OW30892   0.525   9.974   2.779  0.1872 -0.6882  0.0615
 9035SOL    HW130893   0.610  10.013   2.759 -0.0104 -0.8299 -1.1317
 9035SOL    HW230894   0.477  10.042   2.826  0.4040 -0.0420 -0.6428
 9036SOL     OW30895   3.045   1.080   2.407  0.1064  0.4076  0.4130
 9036SOL    HW130896   2.955   1.102   2.429  0.1468  0.9733  0.0327
 9036SOL    HW230897   3.087   1.063   2.492 -0.6654 -1.1472  0.5273
 9037SOL     OW30898   4.281   7.356   2.748 -0.2595 -0.1411 -0.8361
 9037SOL    HW130899   4.190   7.328   2.737 -1.1528  1.4408  1.6243
 9037SOL    HW230900   4.317   7.295   2.812  0.6266 -1.0470 -2.1407
 9038SOL     OW30901   5.847   1.198   3.584 -0.6262 -1.0436  0.0971
 9038SOL    HW130902   5.801   1.263   3.531 -0.1838 -0.2615  0.6650
 9038SOL    HW230903   5.868   1.243   3.666  0.9612 -1.4336 -0.0552
 9039SOL     OW30904   1.399   7.132   7.717  0.1041 -0.2177 -0.3026
 9039SOL    HW130905   1.377   7.086   7.798  0.0961  0.1143 -0.1147
 9039SOL    HW230906   1.436   7.215   7.746  0.2318 -0.1550 -0.6392
 9040SOL     OW30907   1.232   2.165   5.666 -0.5570  0.0374 -0.1474
 9040SOL    HW130908   1.205   2.079   5.699  3.3784 -1.1080  0.6334
 9040SOL    HW230909   1.216   2.160   5.572 -0.7975 -1.4144 -0.0567
 9041SOL     OW30910   2.270   0.619   4.463 -0.5764  0.2708  0.3844
 9041SOL    HW130911   2.223   0.554   4.412  0.8253  0.9728 -1.9807
 9041SOL    HW230912   2.208   0.692   4.473 -1.1198 -0.1750  0.2823
 9042SOL     OW30913   0.440   2.392   3.254 -0.1473 -1.0078 -0.0914
 9042SOL    HW130914   0.533   2.403   3.235 -0.2769  1.5476  0.3792
 9042SOL    HW230915   0.424   2.447   3.330 -1.9410 -1.8803  0.2306
 9043SOL     OW30916   7.150   8.292   4.097 -0.3325 -0.2943 -0.1129
 9043SOL    HW130917   7.215   8.340   4.046 -1.2644  1.6376  0.4404
 9043SOL    HW230918   7.072   8.346   4.094 -1.1702 -1.3582  1.2747
 9044SOL     OW30919   6.298   9.028   2.980 -0.2295  0.2715 -0.3889
 9044SOL    HW130920   6.221   9.083   2.964  0.7681  1.2728 -2.0130
 9044SOL    HW230921   6.367   9.066   2.926  1.4462 -0.5791  1.0260
 9045SOL     OW30922   2.447   4.009   5.517  0.3125 -0.3562  0.3242
 9045SOL    HW130923   2.492   3.925   5.528 -0.0689 -0.6550 -0.3631
 9045SOL    HW230924   2.372   3.989   5.461  0.7374  0.6105 -0.6100
 9046SOL     OW30925  10.111   9.215   3.411  0.4441  0.3954  0.2537
 9046SOL    HW130926  10.075   9.148   3.353  0.6165  0.4487  0.0842
 9046SOL    HW230927  10.040   9.234   3.473  1.1047 -1.6025  1.7565
 9047SOL     OW30928   8.634   9.108   4.459 -0.2527 -0.4011 -0.4320
 9047SOL    HW130929   8.578   9.031   4.445 -1.1837  0.2097 -0.1697
 9047SOL    HW230930   8.576   9.171   4.502  0.9900 -0.1983  0.9937
 9048SOL     OW30931   8.289   7.049   9.328 -0.0170  0.7007 -0.6111
 9048SOL    HW130932   8.201   7.012   9.326  0.5761 -0.7871 -0.4006
 9048SOL    HW230933   8.285   7.118   9.394 -0.3811 -1.1092  1.3437
 9049SOL     OW30934   5.738   1.260   1.894 -0.2874 -0.4119 -0.6944
 9049SOL    HW130935   5.781   1.184   1.934 -1.0756 -0.7020 -0.3713
 9049SOL    HW230936   5.671   1.286   1.958 -0.6024  0.0167 -1.1879
 9050SOL     OW30937   1.228   0.755   4.090 -0.2596 -0.5977  0.5743
 9050SOL    HW130938   1.183   0.759   4.175  0.6448  0.3479  1.0362
 9050SOL    HW230939   1.215   0.665   4.061  0.9079 -1.4851  2.5716
 9051SOL     OW30940   6.199   3.196   2.308 -0.1267 -0.6219  0.6968
 9051SOL    HW130941   6.216   3.116   2.358 -0.7023 -0.3981  1.2680
 9051SOL    HW230942   6.105   3.209   2.314 -0.0618  0.0126  0.4848
 9052SOL     OW30943   5.816   2.348   4.925 -0.0145  0.0729  0.2102
 9052SOL    HW130944   5.853   2.406   4.992  0.0369 -1.5616  1.6720
 9052SOL    HW230945   5.887   2.337   4.861  0.0234  1.4686 -0.0123
 9053SOL     OW30946   4.721  10.219   0.025 -0.4366 -0.2408  0.3528
 9053SOL    HW130947   4.717  10.126   0.006  0.1633 -0.3223  0.6258
 9053SOL    HW230948   4.729  10.224   0.121 -0.8725  0.1017  0.3780
 9054SOL     OW30949   3.909   9.162   9.111 -0.7276  0.4525 -0.7032
 9054SOL    HW130950   3.908   9.128   9.201 -1.1163 -1.3832 -1.3570
 9054SOL    HW230951   3.988   9.124   9.072 -1.6926 -0.5442 -1.7567
 9055SOL     OW30952   3.550   2.455   1.230  0.4314 -0.2196 -0.0617
 9055SOL    HW130953   3.559   2.550   1.224  0.5906 -0.3522 -2.6567
 9055SOL    HW230954   3.455   2.441   1.241  0.3069  0.2087 -0.5534
 9056SOL     OW30955   6.241   8.341   2.077  0.0470  0.5695 -0.0396
 9056SOL    HW130956   6.278   8.428   2.090  0.7768  0.3890 -0.8892
 9056SOL    HW230957   6.208   8.341   1.987 -0.5947  0.1958  0.1850
 9057SOL     OW30958   1.605   9.590   6.146  0.3724 -0.3090  0.6087
 9057SOL    HW130959   1.513   9.600   6.171 -0.2522 -0.0825 -1.5719
 9057SOL    HW230960   1.603   9.534   6.068  2.2192 -1.3860  1.2567
 9058SOL     OW30961   3.868   9.031   3.139  0.3651 -0.2564  0.0914
 9058SOL    HW130962   3.945   9.063   3.091  0.9665  1.5449  2.1090
 9058SOL    HW230963   3.905   8.991   3.218 -0.7314  0.0738  0.7848
 9059SOL     OW30964   7.264   9.439   3.101  0.0147  0.0459  0.1847
 9059SOL    HW130965   7.347   9.413   3.141 -0.0211 -2.3868 -1.1131
 9059SOL    HW230966   7.273   9.533   3.085  1.7853  0.1807  1.6827
 9060SOL     OW30967   8.181   4.787   0.615 -0.4342  0.2472  0.0206
 9060SOL    HW130968   8.210   4.823   0.699  1.3731  1.2686 -0.9835
 9060SOL    HW230969   8.230   4.705   0.606 -0.3643  0.3131 -0.1962
 9061SOL     OW30970   6.552   5.752   5.077 -0.1840  0.2211 -0.2449
 9061SOL    HW130971   6.503   5.717   5.151 -1.9117  1.0055 -0.9458
 9061SOL    HW230972   6.608   5.820   5.114  0.6766 -0.9490  0.6354
 9062SOL     OW30973   0.969   2.007   2.189 -0.3195 -0.4125 -0.0072
 9062SOL    HW130974   1.036   2.019   2.123  0.5549 -0.3225  0.8717
 9062SOL    HW230975   0.910   1.941   2.152  2.1177 -3.1116  0.5596
 9063SOL     OW30976   4.617   6.745   8.768  0.2069 -0.6238 -0.2192
 9063SOL    HW130977   4.535   6.794   8.767 -0.1551 -1.0664  2.0106
 9063SOL    HW230978   4.673   6.794   8.828  1.8808  0.0470 -2.2207
 9064SOL     OW30979   9.201   2.052   0.777 -0.1763  0.5721 -0.0355
 9064SOL    HW130980   9.233   2.060   0.867 -0.4550 -0.6297  0.1940
 9064SOL    HW230981   9.181   1.959   0.767 -1.7413  0.9599 -0.8036
 9065SOL     OW30982   1.890   1.265   0.281  0.3985  0.2021  0.0279
 9065SOL    HW130983   1.961   1.322   0.308 -0.3659  0.0676  2.5646
 9065SOL    HW230984   1.919   1.177   0.307 -0.5353  0.1167  0.8427
 9066SOL     OW30985   7.382   3.215   9.526 -0.0144  0.4588  0.5019
 9066SOL    HW130986   7.467   3.209   9.568  0.3088  1.5534  0.0486
 9066SOL    HW230987   7.325   3.157   9.577  0.7408  0.5355  1.4577
 9067SOL     OW30988   5.142   5.177   5.875  0.1446  0.0676  0.2497
 9067SOL    HW130989   5.056   5.137   5.866  0.5078 -0.5416 -0.7060
 9067SOL    HW230990   5.201   5.103   5.893  0.8000  0.1439 -1.3464
 9068SOL     OW30991   3.487   5.249   0.987  0.1093 -0.0996 -0.6053
 9068SOL    HW130992   3.463   5.213   0.902  0.0124  2.1266 -1.6044
 9068SOL    HW230993   3.405   5.288   1.020  0.5919  0.8365 -0.4709
 9069SOL     OW30994   7.878   5.793   6.279  0.4842  0.1647  0.2955
 9069SOL    HW130995   7.791   5.754   6.283  1.4316 -2.1131 -0.1898
 9069SOL    HW230996   7.937   5.724   6.308  2.0573  2.1551  2.2159
 9070SOL     OW30997   0.246   4.179   2.409  0.2982  0.0103 -0.1295
 9070SOL    HW130998   0.319   4.216   2.460 -0.4118  1.4681 -0.1229
 9070SOL    HW230999   0.232   4.241   2.338 -0.7544 -0.3985 -0.3008
 9071SOL     OW31000   5.373   8.755   9.358  0.1355  0.6727  0.1803
 9071SOL    HW131001   5.410   8.693   9.420 -0.3137  0.6765  0.4543
 9071SOL    HW231002   5.280   8.759   9.380 -0.1905  0.0687 -1.0040
 9072SOL     OW31003   2.393   6.614   3.614 -0.0354  0.5922 -0.2543
 9072SOL    HW131004   2.408   6.704   3.588  0.8363  0.2387 -1.0282
 9072SOL    HW231005   2.371   6.568   3.533  2.1076 -0.4108 -0.3221
 9073SOL     OW31006   3.347   3.611   8.315  0.5925  0.2418  0.2735
 9073SOL    HW131007   3.338   3.531   8.263 -0.2525 -1.0628  2.3077
 9073SOL    HW231008   3.391   3.583   8.394  1.5615  2.1107  0.4471
 9074SOL     OW31009   8.161   6.052   5.219  0.2817 -0.3783  0.1756
 9074SOL    HW131010   8.133   6.003   5.296 -0.2017  0.3477  0.4767
 9074SOL    HW231011   8.245   6.014   5.195  0.7422 -0.1956  1.4460
 9075SOL     OW31012   0.891   7.740   4.802  0.1086 -0.0337 -0.1431
 9075SOL    HW131013   0.956   7.730   4.872 -0.4927 -2.0480  0.1936
 9075SOL    HW231014   0.941   7.730   4.721  0.8950  2.7910 -0.1082
 9076SOL     OW31015   9.974   7.442   9.793  0.4136 -0.3120 -0.3660
 9076SOL    HW131016   9.944   7.428   9.703 -1.9719  2.1487 -0.0938
 9076SOL    HW231017   9.896   7.425   9.846  1.0479  0.8274  0.9664
 9077SOL     OW31018   5.515   8.604   1.906  0.5363 -0.3205 -0.0701
 9077SOL    HW131019   5.560   8.685   1.931 -0.7947  0.0481  1.2778
 9077SOL    HW231020   5.425   8.617   1.935 -0.2271 -1.4456 -1.7556
 9078SOL     OW31021   5.963   9.768   3.840  0.1260 -0.0194 -0.0866
 9078SOL    HW131022   6.024   9.818   3.785  0.8389 -0.7771 -0.0030
 9078SOL    HW231023   5.945   9.827   3.913  1.4383 -0.0908  0.3269
 9079SOL     OW31024   2.882   3.452   6.599  0.3879 -0.7943  0.0521
 9079SOL    HW131025   2.791   3.479   6.586  0.3766 -1.2830 -1.0248
 9079SOL    HW231026   2.921   3.523   6.650 -0.2572  0.0926 -0.6420
 9080SOL     OW31027   2.882   0.713   6.602  0.0640  0.0083  0.0487
 9080SOL    HW131028   2.802   0.690   6.648  1.2481 -1.2603  1.5648
 9080SOL    HW231029   2.935   0.758   6.667  0.7167  0.6013 -0.8626
 9081SOL     OW31030   2.519   2.978   1.196 -0.0279 -0.2968 -0.9182
 9081SOL    HW131031   2.531   2.988   1.101  0.5581 -1.1581 -0.9429
 9081SOL    HW231032   2.602   3.008   1.234 -0.4951  0.6671 -0.6236
 9082SOL     OW31033  10.311   2.802   9.329 -0.0659  0.0905 -0.4847
 9082SOL    HW131034  10.302   2.720   9.377  2.6633 -1.3072 -2.1552
 9082SOL    HW231035  10.287   2.780   9.239 -0.7844  1.5330 -0.6678
 9083SOL     OW31036  10.020   3.764   5.807  0.7896  0.0833  0.0507
 9083SOL    HW131037  10.019   3.705   5.732  0.8461 -0.6422  0.6153
 9083SOL    HW231038   9.992   3.710   5.881 -0.0977  0.9918  0.4124
 9084SOL     OW31039   2.216   7.180   1.025 -0.5727 -0.1140 -0.1748
 9084SOL    HW131040   2.257   7.101   0.990 -1.5339  0.1899 -2.1689
 9084SOL    HW231041   2.129   7.152   1.053 -0.8271  0.1495 -0.6643
 9085SOL     OW31042   3.765   3.301   8.701  0.1919  0.3256  0.1583
 9085SOL    HW131043   3.730   3.294   8.612  0.3962 -1.8738  0.2000
 9085SOL    HW231044   3.696   3.266   8.757  0.4398  0.8069  0.7720
 9086SOL     OW31045   9.475   6.040   9.249 -0.0355  0.2060  0.0455
 9086SOL    HW131046   9.403   6.009   9.303 -0.7881  1.5264 -0.1782
 9086SOL    HW231047   9.508   5.961   9.206 -0.0618 -0.7226  1.6259
 9087SOL     OW31048   0.526  10.295   9.763 -0.3657 -0.4309  0.1526
 9087SOL    HW131049   0.548  10.387   9.750 -1.2983 -0.4016 -1.6244
 9087SOL    HW231050   0.607  10.254   9.795  0.7155  0.6098 -1.1451
 9088SOL     OW31051   4.236   5.787   7.852 -0.2442  0.6019 -0.3063
 9088SOL    HW131052   4.226   5.709   7.906 -0.4294  1.2601  0.6370
 9088SOL    HW231053   4.327   5.783   7.821  0.4521  1.0966  1.5260
 9089SOL     OW31054   1.348   7.205   5.671  0.1719  0.1945  0.4553
 9089SOL    HW131055   1.413   7.275   5.672 -0.8365  1.1406  0.9180
 9089SOL    HW231056   1.289   7.227   5.599  0.6144 -0.9171 -0.2764
 9090SOL     OW31057   5.643   4.711   1.514 -0.0779  0.3001 -0.0665
 9090SOL    HW131058   5.720   4.666   1.548  0.1293  0.8707  0.2481
 9090SOL    HW231059   5.583   4.641   1.488 -0.8727 -0.2593  2.8625
 9091SOL     OW31060   6.791   0.321   1.990 -0.4515  0.2163  0.2326
 9091SOL    HW131061   6.722   0.265   1.954  0.8758 -1.6634  0.4584
 9091SOL    HW231062   6.826   0.367   1.913 -2.9739  2.5728  0.3089
 9092SOL     OW31063   8.693   2.910   6.852 -0.2674 -0.3498  0.3506
 9092SOL    HW131064   8.695   2.991   6.904  1.3319  0.6178 -1.0753
 9092SOL    HW231065   8.719   2.938   6.764  1.1565 -2.5179 -0.0117
 9093SOL     OW31066   0.372   5.482   2.610 -0.3668  0.2322 -0.8304
 9093SOL    HW131067   0.382   5.577   2.603 -1.8841  0.8478  2.9207
 9093SOL    HW231068   0.441   5.456   2.672 -1.1083 -0.7874 -0.4067
 9094SOL     OW31069   7.033   4.933  10.195 -0.6585  0.0216  0.1566
 9094SOL    HW131070   7.063   4.867  10.133  0.3935  0.0852  0.5746
 9094SOL    HW231071   7.010   5.008  10.141  1.8089  0.6705 -0.0983
 9095SOL     OW31072   7.498   5.272   0.601 -0.1626 -0.0372  0.0134
 9095SOL    HW131073   7.511   5.180   0.625 -2.2915 -0.2306  0.6349
 9095SOL    HW231074   7.586   5.310   0.602  0.7702 -2.0591 -0.2999
 9096SOL     OW31075   7.928   0.895   9.999  0.0913 -0.5956 -0.1959
 9096SOL    HW131076   7.890   0.828  10.057  0.7129 -1.5314 -0.8445
 9096SOL    HW231077   7.935   0.973  10.055 -0.7693 -1.0135  0.5391
 9097SOL     OW31078   4.283   8.881   7.881  0.2079 -0.1901  0.2237
 9097SOL    HW131079   4.297   8.960   7.830 -0.2205  0.2739  0.8174
 9097SOL    HW231080   4.340   8.816   7.840  2.0817  0.9274  0.9252
 9098SOL     OW31081   9.333   6.201  10.219  0.4707 -0.3351  0.0972
 9098SOL    HW131082   9.314   6.196  10.313  0.5471  0.6550  0.1690
 9098SOL    HW231083   9.260   6.154  10.178  0.1167 -0.2506  0.6189
 9099SOL     OW31084   8.136   2.733   6.168 -0.5116  0.3157 -0.0956
 9099SOL    HW131085   8.110   2.734   6.260 -1.8356  1.1289 -0.4534
 9099SOL    HW231086   8.179   2.817   6.154 -0.1652  0.1248 -0.1871
 9100SOL     OW31087   9.430   1.235   9.258  0.4815  0.4327  1.1681
 9100SOL    HW131088   9.369   1.166   9.286  2.9984 -1.8817  1.4107
 9100SOL    HW231089   9.430   1.229   9.163  0.7795 -0.0084  1.1928
 9101SOL     OW31090   4.911   4.030   0.554 -0.7084  0.7483  0.3258
 9101SOL    HW131091   4.847   4.064   0.492 -0.1233  1.4338  0.0798
 9101SOL    HW231092   4.859   3.993   0.625 -1.3730  0.9620 -0.0435
 9102SOL     OW31093   8.258   1.504   5.944 -0.0263 -0.2548 -0.4511
 9102SOL    HW131094   8.342   1.525   5.985 -0.3091  0.0138  0.0044
 9102SOL    HW231095   8.221   1.435   6.000 -0.1355 -0.3250 -0.6117
 9103SOL     OW31096   8.438   3.643  10.197  0.3275  0.4322 -0.3642
 9103SOL    HW131097   8.420   3.559  10.239  0.2874  1.0214  0.8517
 9103SOL    HW231098   8.440   3.623  10.104 -1.8820 -0.5422 -0.2809
 9104SOL     OW31099   2.046   4.808   7.425 -0.1504  0.3439 -0.2882
 9104SOL    HW131100   2.007   4.889   7.458 -1.0001  0.1529 -0.7843
 9104SOL    HW231101   2.072   4.760   7.504 -2.3066 -0.1873  0.1728
 9105SOL     OW31102   4.549   9.192   9.383  0.5581  0.2321  0.2028
 9105SOL    HW131103   4.491   9.131   9.338  1.6400  0.4390 -1.5970
 9105SOL    HW231104   4.528   9.277   9.346  0.2842  0.7053  1.3962
 9106SOL     OW31105   0.828   7.072   9.650 -0.1071  0.2542  0.4179
 9106SOL    HW131106   0.858   7.134   9.584  0.0015 -0.0242  0.2064
 9106SOL    HW231107   0.733   7.078   9.647 -0.2064 -1.1229 -1.1048
 9107SOL     OW31108   3.610  10.163   7.771 -0.4993 -0.1592  0.0134
 9107SOL    HW131109   3.626  10.247   7.814  0.8382  0.2948 -1.2734
 9107SOL    HW231110   3.568  10.187   7.688 -1.6311 -0.8975  0.3622
 9108SOL     OW31111  10.156   9.374   7.560 -0.2263  0.3705 -0.9204
 9108SOL    HW131112  10.065   9.347   7.550 -0.2101  0.6875 -2.1162
 9108SOL    HW231113  10.201   9.296   7.592 -1.2642  0.7937  1.7691
 9109SOL     OW31114   4.634   6.283   7.511 -0.5061 -0.5276  0.1827
 9109SOL    HW131115   4.656   6.254   7.599 -1.1636  1.2161  0.9828
 9109SOL    HW231116   4.713   6.270   7.460 -0.0686 -1.4301  1.0642
 9110SOL     OW31117   0.566   0.837   1.439  0.2427  0.5516  0.0283
 9110SOL    HW131118   0.496   0.828   1.374 -0.4419 -0.2000  0.8504
 9110SOL    HW231119   0.534   0.903   1.500 -1.1592 -1.8620  2.1017
 9111SOL     OW31120   9.443   2.784   3.493  0.0141  0.3151 -0.3421
 9111SOL    HW131121   9.406   2.850   3.551 -0.4709 -0.5158  0.3186
 9111SOL    HW231122   9.431   2.701   3.539 -1.1707 -0.4893 -1.9709
 9112SOL     OW31123   9.361   3.573   8.345  0.6858  0.5025 -0.0177
 9112SOL    HW131124   9.427   3.568   8.414  0.3214 -1.4375  0.2556
 9112SOL    HW231125   9.321   3.486   8.345 -2.2873  1.7574  0.2549
 9113SOL     OW31126   1.876   3.139   5.088 -0.0072  0.5264  0.3638
 9113SOL    HW131127   1.949   3.119   5.029  0.6070  0.9811  0.9467
 9113SOL    HW231128   1.835   3.217   5.051 -0.0343  0.4248  0.1802
 9114SOL     OW31129   7.697   2.907   5.786 -0.5681 -0.6006 -0.1550
 9114SOL    HW131130   7.718   2.942   5.872 -2.0937  1.0542 -0.3823
 9114SOL    HW231131   7.635   2.971   5.749  1.5135 -0.1527 -3.2806
 9115SOL     OW31132  10.054   6.883   9.568 -0.7155 -0.4255  0.4790
 9115SOL    HW131133  10.102   6.942   9.511 -0.5217  0.7194  1.7832
 9115SOL    HW231134   9.971   6.927   9.585 -0.9697 -0.9765  0.6961
 9116SOL     OW31135   4.479   0.702   0.207 -0.9217  0.2146  0.0584
 9116SOL    HW131136   4.510   0.698   0.297 -3.5147  1.2869  1.0648
 9116SOL    HW231137   4.538   0.765   0.165  1.3331 -1.4691  0.4594
 9117SOL     OW31138   9.706   4.257   5.782  0.3258  0.3122 -0.6939
 9117SOL    HW131139   9.798   4.277   5.764  1.0479 -1.6910  0.4164
 9117SOL    HW231140   9.679   4.325   5.844  0.6470  1.6404 -1.9515
 9118SOL     OW31141   6.312   1.706   3.788 -0.3555 -0.6073  0.1970
 9118SOL    HW131142   6.297   1.687   3.695  1.4257  3.1105 -1.0488
 9118SOL    HW231143   6.404   1.684   3.802 -0.4017 -0.3953  0.8708
 9119SOL     OW31144   1.714   0.976   8.620 -0.0154 -0.7382 -0.3362
 9119SOL    HW131145   1.734   0.883   8.624 -1.3174 -1.1483 -2.2506
 9119SOL    HW231146   1.672   0.995   8.705  1.4213 -1.5458  0.6009
 9120SOL     OW31147   1.529   9.844   1.842  0.3271  0.1325  0.0585
 9120SOL    HW131148   1.555   9.884   1.924  2.2847 -0.4622 -0.2141
 9120SOL    HW231149   1.610   9.807   1.807 -0.8224 -1.3425 -1.1829
 9121SOL     OW31150   0.763   9.481   5.297 -0.5276  0.1618 -0.0256
 9121SOL    HW131151   0.840   9.530   5.269  0.0256 -0.4723  0.3431
 9121SOL    HW231152   0.760   9.494   5.392  0.5428 -1.7272  0.3284
 9122SOL     OW31153   1.052   6.516  10.063  0.4716  0.1363 -0.4165
 9122SOL    HW131154   1.141   6.482  10.070 -0.2246 -1.8020 -0.5015
 9122SOL    HW231155   0.996   6.439  10.062 -1.1297  1.2117 -2.0462
 9123SOL     OW31156   2.566   1.912   7.579 -0.4633  0.4069  0.0691
 9123SOL    HW131157   2.501   1.930   7.511  0.2022 -3.1705 -1.7370
 9123SOL    HW231158   2.533   1.834   7.623  2.0954 -0.9637 -0.2942
 9124SOL     OW31159   6.513   3.990  10.316 -0.5116  0.0295 -0.0085
 9124SOL    HW131160   6.545   4.049  10.249 -1.2811  1.0027  0.4470
 9124SOL    HW231161   6.468   3.920  10.268  1.2088 -0.7337 -0.5904
 9125SOL     OW31162   7.677   1.566   6.543  0.2475 -0.4976  0.2969
 9125SOL    HW131163   7.711   1.560   6.454  0.1982 -1.8737  0.3545
 9125SOL    HW231164   7.583   1.554   6.533  0.2416 -0.6453  0.5302
 9126SOL     OW31165   5.778   2.121   2.956 -0.4206 -0.3472  0.4672
 9126SOL    HW131166   5.854   2.062   2.952 -0.4571 -0.4014  0.5736
 9126SOL    HW231167   5.704   2.063   2.974 -0.5833 -0.3725 -0.2775
 9127SOL     OW31168   4.765   2.783  10.349  0.0460  0.6539 -0.4213
 9127SOL    HW131169   4.740   2.873  10.371  0.2464  0.1348  2.3251
 9127SOL    HW231170   4.717   2.764  10.269 -2.5679  2.1585  0.6388
 9128SOL     OW31171   9.596   8.135   4.104  0.4519 -0.4893  0.1174
 9128SOL    HW131172   9.541   8.106   4.032  0.2846 -1.2792  0.5524
 9128SOL    HW231173   9.676   8.082   4.096  0.8837  0.1943 -0.1343
 9129SOL     OW31174   3.385   3.489   0.233 -0.6383  0.0835 -0.3804
 9129SOL    HW131175   3.394   3.429   0.306  1.0044 -1.7354 -1.9496
 9129SOL    HW231176   3.466   3.541   0.233 -0.9366  0.5636 -0.5054
 9130SOL     OW31177   6.707   1.346   7.531 -0.0183  0.8325 -0.2612
 9130SOL    HW131178   6.792   1.345   7.488 -0.3907  1.6767 -1.0712
 9130SOL    HW231179   6.697   1.436   7.563 -0.8455  0.9156 -0.7138
 9131SOL     OW31180  10.257   0.447   9.333  0.2048 -0.4749 -0.2292
 9131SOL    HW131181  10.239   0.438   9.427 -0.6878  0.1081 -0.3327
 9131SOL    HW231182  10.288   0.537   9.323  1.6463 -0.9591 -0.3061
 9132SOL     OW31183   2.550   8.707   4.431 -0.1210 -0.2957  0.0222
 9132SOL    HW131184   2.557   8.628   4.379 -1.2645  0.1771 -0.8953
 9132SOL    HW231185   2.514   8.678   4.515  2.2262 -1.1375  0.8349
 9133SOL     OW31186   6.565   4.797   4.709  0.1470 -0.3272  0.1088
 9133SOL    HW131187   6.529   4.879   4.744 -0.2875 -0.7460  0.6625
 9133SOL    HW231188   6.595   4.750   4.787  0.9130 -0.4543 -0.2568
 9134SOL     OW31189   8.385   3.898   0.888  0.4564  0.0025 -0.6708
 9134SOL    HW131190   8.292   3.905   0.867  0.4782  2.0069 -0.2886
 9134SOL    HW231191   8.428   3.955   0.825  0.9473  2.6417  1.8266
 9135SOL     OW31192   5.144   0.296   4.116 -0.1115  0.2861  0.3478
 9135SOL    HW131193   5.150   0.293   4.020  2.2048 -0.8757  0.4479
 9135SOL    HW231194   5.091   0.374   4.134  0.4144  1.2530 -1.8496
 9136SOL     OW31195   2.201   8.342   1.486  0.0577  0.0850 -0.2332
 9136SOL    HW131196   2.175   8.252   1.504 -0.7806  0.3554 -0.0238
 9136SOL    HW231197   2.176   8.390   1.565 -0.3241  0.6468 -0.6873
 9137SOL     OW31198   4.664   1.466   6.921  0.1112  0.3391 -0.3150
 9137SOL    HW131199   4.676   1.536   6.985  1.4674  0.0318 -0.1884
 9137SOL    HW231200   4.595   1.411   6.956 -0.2674  1.0631  0.0812
 9138SOL     OW31201   4.143   0.557   5.712  0.5355 -0.0069  0.1095
 9138SOL    HW131202   4.193   0.491   5.760  2.9576  0.9229 -1.0246
 9138SOL    HW231203   4.166   0.640   5.754  0.0176  0.4576 -0.5133
 9139SOL     OW31204   9.991   8.092   3.686 -0.2214 -0.1475  0.0016
 9139SOL    HW131205  10.082   8.121   3.680  0.2640 -1.6775 -0.4849
 9139SOL    HW231206   9.944   8.144   3.621  0.3603  0.3991  0.0125
 9140SOL     OW31207   8.436   0.392   0.960  0.4554 -0.2128 -0.4509
 9140SOL    HW131208   8.397   0.366   0.877  0.8495  1.5201 -1.2345
 9140SOL    HW231209   8.461   0.310   1.001  0.2908 -1.1234 -2.0612
 9141SOL     OW31210   0.767   9.751   2.442  0.5373  0.2165 -0.1736
 9141SOL    HW131211   0.697   9.816   2.454 -0.3491 -1.0472  2.1433
 9141SOL    HW231212   0.794   9.729   2.531  1.8336 -1.5136 -0.9562
 9142SOL     OW31213   1.090   0.303   6.930  0.0977  0.4380 -0.3204
 9142SOL    HW131214   1.054   0.216   6.914 -2.1191  1.5515 -2.0258
 9142SOL    HW231215   1.154   0.316   6.860  2.2997 -0.6789  1.3827
 9143SOL     OW31216   4.129   3.094   1.529  0.4665 -0.1255  0.3005
 9143SOL    HW131217   4.139   3.034   1.455  1.8034  1.1706 -0.6046
 9143SOL    HW231218   4.088   3.172   1.491 -0.2551 -0.0280  1.2493
 9144SOL     OW31219   4.678   3.759   5.242 -0.0762 -0.3587 -0.4479
 9144SOL    HW131220   4.619   3.803   5.182 -0.7467  0.0601  0.4991
 9144SOL    HW231221   4.656   3.666   5.234 -0.0072 -0.3317 -0.9964
 9145SOL     OW31222   8.459   1.831   8.371  0.2339  0.2326  0.2943
 9145SOL    HW131223   8.487   1.745   8.400  0.2647  0.4908  1.0443
 9145SOL    HW231224   8.533   1.866   8.323 -0.3228 -0.7758 -1.3792
 9146SOL     OW31225   2.594   7.947   4.424 -0.1137  0.0489  0.0997
 9146SOL    HW131226   2.506   7.917   4.447 -0.9239  1.4618 -0.9171
 9146SOL    HW231227   2.622   7.889   4.354 -1.1412  0.8235 -0.9993
 9147SOL     OW31228   8.150  10.113   5.657  0.5444 -0.1473  0.1517
 9147SOL    HW131229   8.224  10.058   5.683  0.1283 -0.4634  0.6785
 9147SOL    HW231230   8.159  10.121   5.562  1.2147 -0.2396  0.1989
 9148SOL     OW31231   3.292   0.340   2.900 -0.1494 -0.7407  0.7551
 9148SOL    HW131232   3.202   0.337   2.868 -0.3548 -0.0243  1.2555
 9148SOL    HW231233   3.299   0.424   2.946  0.5220 -1.1549  1.4369
 9149SOL     OW31234   7.889   4.866   7.665  0.2765 -0.3097  0.0056
 9149SOL    HW131235   7.899   4.954   7.701  0.1131  0.0106 -0.7108
 9149SOL    HW231236   7.975   4.844   7.630  0.1450 -0.1538 -0.4243
 9150SOL     OW31237   2.427   1.753   2.212  0.4529 -0.3712  0.1403
 9150SOL    HW131238   2.372   1.746   2.134  0.0908  1.7696  0.1392
 9150SOL    HW231239   2.504   1.802   2.183 -0.2733  1.5943  1.3486
 9151SOL     OW31240   2.526   4.833   4.589 -0.5971 -0.6108  0.1451
 9151SOL    HW131241   2.579   4.808   4.513  0.8845  1.3982  0.4282
 9151SOL    HW231242   2.455   4.885   4.553  0.3194  0.6628  0.1197
 9152SOL     OW31243   5.725   2.279   6.084 -0.2011  0.6339 -0.0059
 9152SOL    HW131244   5.732   2.194   6.041  0.9332  0.4641  0.4850
 9152SOL    HW231245   5.636   2.280   6.120 -0.1586 -0.4359  0.1730
 9153SOL     OW31246   8.456   9.800   9.280  0.0349  0.0251 -0.3295
 9153SOL    HW131247   8.415   9.873   9.233 -1.6184 -0.8390 -0.3319
 9153SOL    HW231248   8.384   9.763   9.332  1.0665 -1.0234  0.3922
 9154SOL     OW31249   5.669   7.764   9.196  0.7049  0.0605 -0.2033
 9154SOL    HW131250   5.596   7.703   9.207 -0.0442  0.9186 -0.2753
 9154SOL    HW231251   5.727   7.745   9.269 -0.6738  0.8209  1.1636
 9155SOL     OW31252   7.195   7.118   7.159 -0.7143 -0.1231 -0.8671
 9155SOL    HW131253   7.290   7.135   7.160 -0.6624 -0.3985 -0.1105
 9155SOL    HW231254   7.165   7.153   7.075  0.0256  0.1568 -1.0248
 9156SOL     OW31255   0.874   2.151   9.203  0.4230  0.0069  0.1958
 9156SOL    HW131256   0.821   2.213   9.152 -0.4185 -0.5748  0.3294
 9156SOL    HW231257   0.845   2.065   9.173  1.2395 -0.3265  0.3490
 9157SOL     OW31258   3.687   7.109   3.476 -0.2426 -0.0427 -0.1275
 9157SOL    HW131259   3.612   7.056   3.449 -1.1366  1.5518 -0.9006
 9157SOL    HW231260   3.749   7.101   3.404 -0.0627 -0.6004  0.0839
 9158SOL     OW31261   7.492   4.733   9.647  0.4969 -0.2412  0.0214
 9158SOL    HW131262   7.469   4.826   9.643  0.5465 -0.2795 -2.2817
 9158SOL    HW231263   7.587   4.732   9.651  0.4716 -0.2026  0.7883
 9159SOL     OW31264   1.003   9.234   6.750  0.1985 -0.5455 -0.1918
 9159SOL    HW131265   0.966   9.219   6.837 -1.5275 -0.8939 -0.9478
 9159SOL    HW231266   0.979   9.324   6.729  2.3727  0.2621  0.4642
 9160SOL     OW31267   1.278   2.101   1.567  0.3146  0.2729 -0.4886
 9160SOL    HW131268   1.361   2.098   1.614 -0.3116 -1.0510  0.5855
 9160SOL    HW231269   1.213   2.120   1.634 -0.4371 -0.3323 -1.0264
 9161SOL     OW31270   6.184   1.796   0.990  0.5097  0.1882 -0.7296
 9161SOL    HW131271   6.136   1.763   1.066  2.6162 -1.8820 -0.2000
 9161SOL    HW231272   6.182   1.723   0.928  3.4403 -0.2933 -0.4107
 9162SOL     OW31273   9.378   9.242   8.409  0.2452 -0.0245  0.0899
 9162SOL    HW131274   9.467   9.208   8.397  0.5736  0.6681  0.5488
 9162SOL    HW231275   9.361   9.232   8.502 -1.2103 -2.6818 -0.3373
 9163SOL     OW31276   2.482   1.201   1.017  0.1356  0.7389  0.0217
 9163SOL    HW131277   2.434   1.120   1.000 -0.8887  1.2636  0.3602
 9163SOL    HW231278   2.515   1.227   0.932  1.1367 -0.4249  0.0167
 9164SOL     OW31279   4.552   5.607   6.694 -0.1591 -0.3781  0.3214
 9164SOL    HW131280   4.513   5.573   6.614  0.9350 -0.3789 -0.2409
 9164SOL    HW231281   4.503   5.687   6.713 -0.6563 -0.5667 -0.1489
 9165SOL     OW31282   0.646   5.617   3.706  0.2235  0.1013  0.2623
 9165SOL    HW131283   0.739   5.631   3.723  0.2373  1.7315 -0.8973
 9165SOL    HW231284   0.608   5.601   3.792  1.3707  0.7766  0.9293
 9166SOL     OW31285   6.694   5.765   2.837  0.0189 -0.5569 -0.4615
 9166SOL    HW131286   6.635   5.709   2.786  0.9536  0.0118 -2.2317
 9166SOL    HW231287   6.771   5.711   2.852  0.0765 -0.4413 -0.3441
 9167SOL     OW31288   9.197   3.851   6.609 -0.1739 -0.2172 -0.1128
 9167SOL    HW131289   9.256   3.912   6.565 -1.0757 -0.6017 -1.9636
 9167SOL    HW231290   9.253   3.805   6.672  0.3387  3.1475  2.1476
 9168SOL     OW31291   7.865   2.569   0.986  0.1244  0.2763  0.5836
 9168SOL    HW131292   7.884   2.663   0.976  0.3688  0.0289 -1.5881
 9168SOL    HW231293   7.778   2.567   1.027  0.4305  1.4258  1.3519
 9169SOL     OW31294   8.984   3.000   8.294  0.4416 -0.1651 -0.1289
 9169SOL    HW131295   8.934   3.042   8.224  0.7747 -0.4698 -0.5592
 9169SOL    HW231296   9.073   3.034   8.283  0.7907 -1.1990 -0.6846
 9170SOL     OW31297   8.799   8.570   3.074 -0.3407 -0.3233  0.2154
 9170SOL    HW131298   8.751   8.653   3.078  1.0695  0.8657 -3.3615
 9170SOL    HW231299   8.891   8.595   3.081  0.0340 -1.8735  1.2540
 9171SOL     OW31300   8.118   1.577   6.746  0.0876  0.0527  0.0869
 9171SOL    HW131301   8.190   1.631   6.712 -0.9327  1.8070  0.5955
 9171SOL    HW231302   8.130   1.492   6.704  3.1217 -0.0972  0.9956
 9172SOL     OW31303   0.750   9.724   9.059  0.3332 -0.1240  0.5106
 9172SOL    HW131304   0.846   9.722   9.056  0.3151 -0.0822 -0.3388
 9172SOL    HW231305   0.723   9.664   8.990 -0.2593 -0.5004  1.0658
 9173SOL     OW31306   7.283   8.346   8.608 -0.0773 -0.3645  0.0114
 9173SOL    HW131307   7.309   8.385   8.525 -1.3364 -1.0597 -0.7191
 9173SOL    HW231308   7.353   8.284   8.628  1.1501  1.0840  0.4079
 9174SOL     OW31309   7.932   8.509   8.229 -0.0805  0.1529  0.3900
 9174SOL    HW131310   8.009   8.523   8.285 -0.9146  0.0823  1.5922
 9174SOL    HW231311   7.888   8.594   8.228  0.7227  0.5968 -1.4597
 9175SOL     OW31312   7.862   1.915   4.035 -0.0745  0.2160  0.5903
 9175SOL    HW131313   7.831   1.873   4.115 -1.7750  0.0724 -0.1163
 9175SOL    HW231314   7.957   1.904   4.038 -0.1715 -0.4372  2.2118
 9176SOL     OW31315   3.418   9.875   3.586 -0.4933  0.1623 -0.3639
 9176SOL    HW131316   3.347   9.861   3.648 -0.1176 -1.2767 -0.2077
 9176SOL    HW231317   3.481   9.805   3.606  1.9780  2.5646  0.8649
 9177SOL     OW31318   5.835   0.779   7.994  0.2328 -0.4633 -0.3750
 9177SOL    HW131319   5.930   0.768   7.989  0.3316 -0.1217  0.4229
 9177SOL    HW231320   5.824   0.865   8.034 -0.3722 -1.3265  1.4348
 9178SOL     OW31321   1.885   2.219   1.469  0.7928 -0.0118 -0.1155
 9178SOL    HW131322   1.823   2.277   1.513 -0.2283 -0.8320 -0.4138
 9178SOL    HW231323   1.922   2.166   1.540  0.5960 -0.0117 -0.0101
 9179SOL     OW31324   8.080   1.306   2.760  0.5406 -0.3696  0.5309
 9179SOL    HW131325   8.056   1.238   2.823 -1.2171 -1.8528 -1.6308
 9179SOL    HW231326   8.016   1.298   2.690  3.7943 -0.4703 -2.7161
 9180SOL     OW31327   1.716   7.134   5.423 -0.1760  0.3456 -0.0030
 9180SOL    HW131328   1.759   7.213   5.454 -1.3182  0.8008  0.4640
 9180SOL    HW231329   1.632   7.164   5.388 -0.0255 -0.4890 -1.1478
 9181SOL     OW31330   7.343   6.572   5.365  0.5744 -0.1666 -0.3655
 9181SOL    HW131331   7.340   6.622   5.283 -0.5885 -2.3779 -1.7497
 9181SOL    HW231332   7.343   6.640   5.434 -2.8937  1.8363 -2.0641
 9182SOL     OW31333   6.962   1.015   5.763  0.5125 -0.2827 -0.4568
 9182SOL    HW131334   6.927   1.103   5.746 -0.6379 -0.7112 -0.3595
 9182SOL    HW231335   7.047   1.015   5.718  0.9313  1.1559  0.2514
 9183SOL     OW31336   9.792   9.691   7.994 -0.2337  0.5442 -0.6741
 9183SOL    HW131337   9.719   9.648   8.040  0.1987 -0.1628 -0.6314
 9183SOL    HW231338   9.839   9.737   8.063  1.2782 -1.7246 -0.0836
 9184SOL     OW31339   5.932   1.703   0.268 -0.5917  0.6115  0.0389
 9184SOL    HW131340   6.004   1.722   0.207  1.4348 -0.8900  1.7923
 9184SOL    HW231341   5.953   1.617   0.303 -1.3281  1.5955  3.2435
 9185SOL     OW31342   6.091  10.345   0.334 -0.0621 -0.0474 -0.6084
 9185SOL    HW131343   6.004  10.351   0.294 -1.4286  2.5942  2.3629
 9185SOL    HW231344   6.128  10.432   0.325  1.3230 -0.5148  0.2210
 9186SOL     OW31345   7.252   4.613   7.965  0.1466  0.1227  0.0767
 9186SOL    HW131346   7.197   4.644   8.037  0.5920  0.0671  0.4447
 9186SOL    HW231347   7.195   4.616   7.888 -0.2611  0.4113  0.3871
 9187SOL     OW31348   1.572   7.830   3.726  0.0264  0.3352 -0.2108
 9187SOL    HW131349   1.495   7.834   3.782  0.3107  0.7156  0.1667
 9187SOL    HW231350   1.586   7.737   3.709 -0.1411  0.2270  0.2434
 9188SOL     OW31351   3.364   4.764   8.633 -0.4394 -0.1154 -0.2320
 9188SOL    HW131352   3.326   4.832   8.689  0.7099  0.5664 -0.2527
 9188SOL    HW231353   3.343   4.682   8.677 -2.3691  0.1735 -0.5047
 9189SOL     OW31354   5.244   2.490   5.157 -0.5076  0.4791  0.2009
 9189SOL    HW131355   5.329   2.470   5.196 -0.0875  1.1590 -0.3258
 9189SOL    HW231356   5.236   2.430   5.083 -0.3796  0.5750  0.1098
 9190SOL     OW31357   8.284   6.786   8.651 -0.3004  0.3676  0.4909
 9190SOL    HW131358   8.241   6.862   8.612  0.6389  0.9323  0.5314
 9190SOL    HW231359   8.213   6.739   8.695 -0.6692  2.1195  1.9068
 9191SOL     OW31360   6.523  10.350   1.581  0.1131  0.4499 -0.4811
 9191SOL    HW131361   6.473  10.431   1.589 -2.0705 -0.6640 -1.7906
 9191SOL    HW231362   6.553  10.350   1.490  3.9878  1.7964  0.6138
 9192SOL     OW31363   8.361   9.330   5.167 -0.4066 -0.5382 -0.2814
 9192SOL    HW131364   8.303   9.281   5.109  0.0097 -1.1931 -0.1575
 9192SOL    HW231365   8.317   9.414   5.180 -1.2791 -0.9851 -0.2732
 9193SOL     OW31366   1.515   0.042   8.644 -0.2444  0.3722 -0.1321
 9193SOL    HW131367   1.550  -0.034   8.598  0.2166  1.2593 -1.3203
 9193SOL    HW231368   1.471   0.006   8.721 -1.6386 -1.2592 -1.5957
 9194SOL     OW31369   6.461   7.345   1.934 -1.0537  0.2890  0.3830
 9194SOL    HW131370   6.515   7.266   1.942  0.1374  0.8313 -1.4490
 9194SOL    HW231371   6.372   7.313   1.922 -0.4249 -0.8933 -1.6330
 9195SOL     OW31372   9.295   9.620   6.657 -0.0960  0.2349  0.1230
 9195SOL    HW131373   9.284   9.714   6.638 -0.5698  0.4284  1.2608
 9195SOL    HW231374   9.389   9.609   6.671  0.0394  0.4160 -0.6013
 9196SOL     OW31375   9.243   3.542   5.952 -0.5009 -0.8749  0.2010
 9196SOL    HW131376   9.196   3.593   6.018 -0.4425 -0.8919  0.2559
 9196SOL    HW231377   9.277   3.608   5.891 -1.3569 -0.9159 -0.3405
 9197SOL     OW31378   9.680   7.985   1.062 -0.4980  0.2934 -0.8387
 9197SOL    HW131379   9.592   8.023   1.060 -0.1059  1.2017 -1.2489
 9197SOL    HW231380   9.724   8.022   0.986 -0.2218 -1.3306 -1.5158
 9198SOL     OW31381   7.860   3.855   2.972  0.2192 -0.2022 -0.3543
 9198SOL    HW131382   7.899   3.913   3.037  0.6578  0.8169 -1.4835
 9198SOL    HW231383   7.934   3.820   2.923  0.0943 -3.0041  1.2678
 9199SOL     OW31384   9.144   8.298   8.138 -0.2379 -0.0567  0.3537
 9199SOL    HW131385   9.055   8.265   8.142 -0.5752  0.9155  1.6375
 9199SOL    HW231386   9.136   8.386   8.100 -0.0833  0.6974  1.9512
 9200SOL     OW31387   6.009   5.836   3.892  0.0162 -0.3031 -0.0455
 9200SOL    HW131388   6.092   5.862   3.932 -0.7043  0.4790  0.9894
 9200SOL    HW231389   6.008   5.740   3.897  0.8065 -0.3113  0.0111
 9201SOL     OW31390   2.745   1.842   6.829 -0.0693  0.8689 -0.2486
 9201SOL    HW131391   2.821   1.791   6.799 -0.2793 -0.0310  0.6729
 9201SOL    HW231392   2.762   1.858   6.921 -0.3157  1.9519 -0.3849
 9202SOL     OW31393   2.325   7.973   1.861 -0.2429 -0.3156 -0.2509
 9202SOL    HW131394   2.266   7.909   1.820 -0.3401 -0.7063  0.4825
 9202SOL    HW231395   2.409   7.928   1.867 -0.1306 -0.1224 -0.3703
 9203SOL     OW31396   7.327   5.810   6.736  0.5514 -0.2438 -0.2088
 9203SOL    HW131397   7.375   5.760   6.801  0.2278  0.8361  0.9132
 9203SOL    HW231398   7.265   5.748   6.698  0.2616 -0.7506  1.0382
 9204SOL     OW31399   6.328   2.940   5.351 -0.0762 -0.2851  0.8442
 9204SOL    HW131400   6.248   2.956   5.301 -0.0192  0.1846  0.9000
 9204SOL    HW231401   6.399   2.967   5.292 -0.0513  1.4546  1.6001
 9205SOL     OW31402   0.725   6.295   4.326  0.2470  0.1102  0.2318
 9205SOL    HW131403   0.815   6.309   4.356 -0.1651 -2.3100  3.1025
 9205SOL    HW231404   0.695   6.382   4.298  2.4778  1.6241  2.1703
 9206SOL     OW31405   3.218   1.303   1.568 -0.1436  0.3600 -0.0679
 9206SOL    HW131406   3.212   1.317   1.474 -1.3980 -1.8870 -0.3707
 9206SOL    HW231407   3.256   1.385   1.602  1.7494  0.6704 -2.6549
 9207SOL     OW31408   3.231   0.339   7.662 -0.5115 -0.0745 -0.5221
 9207SOL    HW131409   3.179   0.261   7.680  2.4948 -1.5055  3.3432
 9207SOL    HW231410   3.300   0.309   7.604  0.1661 -0.1304  0.2945
 9208SOL     OW31411   2.392   1.658   1.906 -0.0202  0.2773  0.7203
 9208SOL    HW131412   2.403   1.753   1.914  1.5144  0.3218 -1.1249
 9208SOL    HW231413   2.481   1.624   1.912 -0.2495 -0.7754 -1.2362
 9209SOL     OW31414   4.405   6.227   7.811  0.0709  0.4384  0.5580
 9209SOL    HW131415   4.342   6.162   7.779  0.4065  0.2946  0.1883
 9209SOL    HW231416   4.491   6.186   7.798  0.2806  0.9244  0.4028
 9210SOL     OW31417   2.016   9.977   0.700  0.3081  0.3645  0.1036
 9210SOL    HW131418   2.026  10.072   0.714 -0.3208  0.4632 -0.1147
 9210SOL    HW231419   2.023   9.940   0.788 -0.3200  0.6937  0.2946
 9211SOL     OW31420   8.286   9.361   0.158 -0.1814  0.1416  0.0857
 9211SOL    HW131421   8.238   9.438   0.129 -1.9924 -0.5918  0.9129
 9211SOL    HW231422   8.372   9.393   0.182 -1.8498  2.6498  3.5977
 9212SOL     OW31423   0.492   2.001   7.583  0.1499 -0.0833  0.5402
 9212SOL    HW131424   0.580   1.990   7.619 -0.5842  1.1516  2.9376
 9212SOL    HW231425   0.486   2.095   7.564 -0.7513 -0.1036  0.6886
 9213SOL     OW31426   3.554   9.605   9.608  0.1132  0.3412 -0.5923
 9213SOL    HW131427   3.514   9.524   9.578  0.5921 -0.3456  0.5380
 9213SOL    HW231428   3.547   9.601   9.703  1.5547  0.8631 -0.4394
 9214SOL     OW31429   9.949   7.491   0.615  0.5744  0.0302 -0.0500
 9214SOL    HW131430   9.882   7.427   0.639 -1.3580  1.5092 -1.2146
 9214SOL    HW231431  10.010   7.490   0.689 -0.0565 -2.2098  0.5392
 9215SOL     OW31432   6.818   1.398   2.169  0.1663  0.4944  0.4537
 9215SOL    HW131433   6.868   1.361   2.242  0.8234  1.9740  0.7907
 9215SOL    HW231434   6.768   1.469   2.209 -1.1944 -0.1015 -0.1383
 9216SOL     OW31435   6.716   8.814   1.972  0.3415 -0.2411 -0.2051
 9216SOL    HW131436   6.778   8.886   1.981  0.5227 -0.3601 -0.5057
 9216SOL    HW231437   6.672   8.810   2.057  2.8943 -2.1480  1.1439
 9217SOL     OW31438   1.699   1.017   4.842 -0.8917  0.1620 -0.0242
 9217SOL    HW131439   1.648   0.937   4.830 -1.4388  0.4202  0.5070
 9217SOL    HW231440   1.660   1.080   4.782 -0.8088  0.1831 -0.0557
 9218SOL     OW31441   0.830   2.639   2.111 -0.2787  0.0684 -0.0880
 9218SOL    HW131442   0.894   2.675   2.050 -0.4041  0.5291  0.0478
 9218SOL    HW231443   0.765   2.596   2.056  1.2693 -2.3494 -0.1671
 9219SOL     OW31444   5.381   4.681   9.476 -0.8905  0.1736 -0.4117
 9219SOL    HW131445   5.343   4.606   9.521  0.8452 -0.7767 -0.4708
 9219SOL    HW231446   5.447   4.715   9.537 -0.1174  0.2815 -1.2809
 9220SOL     OW31447   4.798   7.618   0.320 -0.5557  0.0375  0.0440
 9220SOL    HW131448   4.733   7.681   0.291 -2.3208 -1.6813  0.0536
 9220SOL    HW231449   4.778   7.538   0.270  1.7387 -0.4789 -0.1487
 9221SOL     OW31450   6.577   8.380   0.892  0.3310 -0.2050 -0.1851
 9221SOL    HW131451   6.645   8.386   0.960  1.1463  0.8408 -1.0741
 9221SOL    HW231452   6.580   8.288   0.864 -0.2433 -0.7532  1.3773
 9222SOL     OW31453   8.415   6.523   1.607 -0.5760  0.0395 -0.5306
 9222SOL    HW131454   8.334   6.476   1.587 -2.5274  1.1742  3.5430
 9222SOL    HW231455   8.390   6.616   1.601  0.6343  0.4199  0.0632
 9223SOL     OW31456   0.124   1.410   7.067  0.0563 -0.2891 -0.1419
 9223SOL    HW131457   0.181   1.475   7.026  1.1523 -1.2534 -0.1885
 9223SOL    HW231458   0.175   1.329   7.067 -1.3734 -1.2259 -0.3111
 9224SOL     OW31459   5.115   3.244   6.161  0.0379  0.1624  0.8440
 9224SOL    HW131460   5.110   3.149   6.155 -0.2184 -0.0664  3.6284
 9224SOL    HW231461   5.201   3.261   6.201  0.6816  1.2287 -0.8659
 9225SOL     OW31462   7.567   4.981   2.119 -0.2399 -0.3760  0.6049
 9225SOL    HW131463   7.573   5.015   2.208  2.8539 -0.3657  0.5025
 9225SOL    HW231464   7.614   5.044   2.065 -3.3862  0.4470 -1.4175
 9226SOL     OW31465   8.142   8.247   9.972  0.6249  0.3959 -0.2533
 9226SOL    HW131466   8.071   8.280   9.916 -0.7811 -0.0424  1.1990
 9226SOL    HW231467   8.146   8.309  10.045  0.0478 -0.9097  0.9236
 9227SOL     OW31468   3.980   1.463   9.492  0.5600 -0.1607 -0.1864
 9227SOL    HW131469   3.997   1.481   9.585  0.6792 -1.5905  0.0790
 9227SOL    HW231470   3.969   1.368   9.487 -0.4386 -0.0106 -1.4776
 9228SOL     OW31471   1.173   3.616   0.512  0.0883 -0.6498  0.2657
 9228SOL    HW131472   1.174   3.529   0.471  1.0594 -1.1090  1.2142
 9228SOL    HW231473   1.193   3.677   0.441 -0.7908 -1.1775 -0.4459
 9229SOL     OW31474   2.000   9.898   2.347  0.4572 -0.2773 -0.5277
 9229SOL    HW131475   2.072   9.910   2.285 -0.0079 -0.8956 -1.2015
 9229SOL    HW231476   1.941   9.972   2.330  0.1990 -0.5908 -1.0133
 9230SOL     OW31477   9.251   9.521   2.663  0.2050  0.0586  0.7847
 9230SOL    HW131478   9.208   9.547   2.582 -0.1550 -2.3893  0.0957
 9230SOL    HW231479   9.187   9.464   2.706  1.6137 -1.3003  1.1690
 9231SOL     OW31480   6.405   0.532   9.170 -0.2788 -0.4803  0.0268
 9231SOL    HW131481   6.332   0.492   9.216  0.4402 -0.6288  1.0880
 9231SOL    HW231482   6.466   0.460   9.154 -0.5660 -0.4554 -1.3012
 9232SOL     OW31483   4.248   1.729   7.651  0.3906  0.4181  0.6078
 9232SOL    HW131484   4.277   1.667   7.717 -0.2994  0.6383  1.1357
 9232SOL    HW231485   4.184   1.784   7.697 -0.7622  0.0125 -0.4698
 9233SOL     OW31486   0.539   1.139   2.082 -0.0572 -0.2907  0.0737
 9233SOL    HW131487   0.444   1.134   2.088 -0.1740  1.0571 -0.2060
 9233SOL    HW231488   0.559   1.118   1.991 -0.0941 -0.5314  0.1218
 9234SOL     OW31489   9.676   9.250   1.842 -0.1312  0.2340  0.6377
 9234SOL    HW131490   9.597   9.209   1.807 -0.2516  0.9058  0.0902
 9234SOL    HW231491   9.746   9.189   1.820 -0.1586  0.7693 -1.0951
 9235SOL     OW31492   4.356   3.500   5.847  0.3936  0.3617  0.3035
 9235SOL    HW131493   4.400   3.435   5.903 -0.0309 -1.0801 -0.9665
 9235SOL    HW231494   4.263   3.477   5.852  0.3273  0.3457 -0.8137
 9236SOL     OW31495   6.632   1.980   3.103  0.3587 -0.3943  0.4780
 9236SOL    HW131496   6.578   1.923   3.049 -0.1467  0.4023  0.1280
 9236SOL    HW231497   6.666   1.922   3.172  0.9769 -1.4098 -0.6430
 9237SOL     OW31498   9.913   5.828   3.381 -0.2371  0.0137 -0.3364
 9237SOL    HW131499   9.960   5.749   3.356  0.8319  0.6540 -0.4012
 9237SOL    HW231500   9.840   5.797   3.435  1.2859 -0.8749  1.2961
 9238SOL     OW31501   6.941  10.143   2.696  0.1099 -0.1821  0.3493
 9238SOL    HW131502   6.886  10.200   2.643 -1.2680  0.1066  1.9984
 9238SOL    HW231503   6.956  10.192   2.777 -1.1096 -2.0944  1.8128
 9239SOL     OW31504   0.470   5.479   5.305 -0.2019 -0.0052  0.4413
 9239SOL    HW131505   0.543   5.518   5.256 -0.5327  0.0567 -0.0042
 9239SOL    HW231506   0.511   5.442   5.383  0.5836 -1.5801 -0.6630
 9240SOL     OW31507   2.064   4.012   1.227 -0.0692 -0.3296 -1.4215
 9240SOL    HW131508   2.095   3.922   1.218 -0.0528 -0.2630 -2.0940
 9240SOL    HW231509   2.142   4.062   1.251 -0.4123 -0.7600  0.7842
 9241SOL     OW31510   3.803   3.782   5.364  0.1124 -0.0619 -0.3414
 9241SOL    HW131511   3.804   3.799   5.270  0.1224 -1.0499 -0.5352
 9241SOL    HW231512   3.763   3.695   5.373  0.6697 -0.2564  0.5076
 9242SOL     OW31513   8.430   1.052   7.898  0.5797  0.6445 -0.0351
 9242SOL    HW131514   8.513   1.004   7.900 -1.1824 -2.7487 -0.3119
 9242SOL    HW231515   8.410   1.062   7.805  0.9548  2.1087  0.0166
 9243SOL     OW31516   0.012   8.759   8.139  0.7249 -0.3518 -0.3325
 9243SOL    HW131517   0.031   8.722   8.225 -0.7951 -0.8258 -0.1862
 9243SOL    HW231518   0.033   8.689   8.077 -0.3180 -0.8065 -0.1840
 9244SOL     OW31519   0.478   8.635   7.087  0.2125  0.5169  0.1042
 9244SOL    HW131520   0.521   8.611   7.169 -1.1842 -1.5981  0.3171
 9244SOL    HW231521   0.483   8.555   7.034 -2.4199  0.4945 -0.2454
 9245SOL     OW31522   3.035   7.157   5.162 -0.0399 -0.1968 -0.4521
 9245SOL    HW131523   2.967   7.224   5.171 -1.3915 -1.4856 -0.5922
 9245SOL    HW231524   3.048   7.150   5.067  1.4886  1.1591 -0.3765
 9246SOL     OW31525   7.527   0.618   5.606 -0.2449  0.8308  0.8085
 9246SOL    HW131526   7.456   0.646   5.549  0.4265  1.2631  0.1619
 9246SOL    HW231527   7.537   0.688   5.670 -0.5251  0.6815  1.0152
 9247SOL     OW31528   1.630   0.741   7.786 -0.1753 -0.1052  0.6039
 9247SOL    HW131529   1.706   0.746   7.728 -0.0530 -0.3387  0.7435
 9247SOL    HW231530   1.558   0.778   7.735 -0.2657 -1.1347 -0.0329
 9248SOL     OW31531   0.570   0.463   5.238  0.3567  0.0753  0.6671
 9248SOL    HW131532   0.647   0.485   5.185  0.8581 -0.3531  1.2072
 9248SOL    HW231533   0.549   0.545   5.284 -1.0870  0.9452 -1.3826
 9249SOL     OW31534   2.159   5.636   5.058  0.2661  0.3091  0.2868
 9249SOL    HW131535   2.096   5.574   5.023  1.1064  0.7773 -2.2694
 9249SOL    HW231536   2.110   5.718   5.065  0.1361  0.2555  0.0178
 9250SOL     OW31537   7.048  10.126   9.362 -0.3673  0.5080 -0.3448
 9250SOL    HW131538   7.099  10.054   9.398 -1.0082  0.3867  0.3520
 9250SOL    HW231539   7.109  10.173   9.306  0.1000 -0.4836 -0.6859
 9251SOL     OW31540   5.573   1.764   7.885 -0.4881  0.0539  0.2093
 9251SOL    HW131541   5.580   1.668   7.878  0.1060  0.1246 -0.2578
 9251SOL    HW231542   5.559   1.793   7.795 -1.6773  0.3447  0.4685
 9252SOL     OW31543   9.677   5.413   3.517 -0.7932  0.4017  0.0902
 9252SOL    HW131544   9.599   5.370   3.551 -0.4295 -0.9629 -0.7037
 9252SOL    HW231545   9.662   5.418   3.423 -0.1681  0.6424 -0.0021
 9253SOL     OW31546   2.982   8.001   5.755 -0.4734 -0.2108  0.3343
 9253SOL    HW131547   2.925   7.978   5.829 -1.2501 -0.3064 -0.2857
 9253SOL    HW231548   2.936   8.073   5.712 -0.1309 -0.3032 -0.1831
 9254SOL     OW31549   4.173   3.510   8.082 -0.0138  0.4284 -0.0440
 9254SOL    HW131550   4.117   3.538   8.009 -0.7939 -0.2743  0.2821
 9254SOL    HW231551   4.137   3.555   8.158 -0.5908 -0.5785  0.2914
 9255SOL     OW31552   5.433   5.991   5.035  0.0793 -0.2087 -0.4347
 9255SOL    HW131553   5.397   5.904   5.015 -1.7019  0.6007 -0.9249
 9255SOL    HW231554   5.395   6.014   5.120 -0.8397  0.7797 -1.0875
 9256SOL     OW31555   7.636   1.465   4.111  0.3941  0.3563 -0.2787
 9256SOL    HW131556   7.542   1.450   4.099  0.1093  1.0158  0.9564
 9256SOL    HW231557   7.647   1.559   4.095  0.7884  0.3414 -0.0956
 9257SOL     OW31558   9.380   2.710   5.725  0.8479  0.4934 -0.3245
 9257SOL    HW131559   9.407   2.798   5.699 -1.2915  1.2054 -0.3595
 9257SOL    HW231560   9.352   2.668   5.644  0.9429  0.1324 -0.1714
 9258SOL     OW31561  10.243  10.126   7.647  0.4987  0.5769  0.0731
 9258SOL    HW131562  10.303  10.091   7.581 -0.6128 -0.1207 -0.5815
 9258SOL    HW231563  10.262  10.076   7.726  0.2309 -0.2086 -0.3501
 9259SOL     OW31564   9.032   8.128   4.647 -0.1474  0.1705 -0.0294
 9259SOL    HW131565   9.001   8.037   4.656 -1.5831  0.6946  0.6927
 9259SOL    HW231566   9.125   8.124   4.668 -0.0709 -1.2037 -0.4749
 9260SOL     OW31567   1.356   6.222   1.711  0.1768  0.3175  0.1527
 9260SOL    HW131568   1.293   6.261   1.771 -1.0448 -0.4464 -0.5920
 9260SOL    HW231569   1.360   6.130   1.738 -0.4867 -0.0649 -0.9950
 9261SOL     OW31570   8.716   2.225   8.831 -0.0272 -0.0231  0.3209
 9261SOL    HW131571   8.671   2.223   8.915  0.9669 -0.2734  0.8643
 9261SOL    HW231572   8.809   2.217   8.853  0.3703  1.4460 -0.7079
 9262SOL     OW31573   8.787   2.754   8.188  0.1097  0.1274 -0.1991
 9262SOL    HW131574   8.865   2.728   8.140  0.4616  0.0626  0.3925
 9262SOL    HW231575   8.820   2.805   8.262 -0.2562 -1.1746  0.9316
 9263SOL     OW31576   1.851   2.370   3.405 -0.3072  0.0187 -0.3354
 9263SOL    HW131577   1.785   2.411   3.351 -0.2840 -2.8854 -2.8188
 9263SOL    HW231578   1.803   2.332   3.478 -1.4918 -1.8598 -1.9891
 9264SOL     OW31579   0.041  10.180   8.183 -0.1435 -0.3555  0.0851
 9264SOL    HW131580   0.110  10.164   8.247  1.1941 -1.2722 -1.4958
 9264SOL    HW231581  -0.029  10.118   8.206 -1.0432  1.3987  2.4287
 9265SOL     OW31582   7.906   0.834   8.520  0.3738 -0.0086  0.5471
 9265SOL    HW131583   7.953   0.780   8.584  0.3020 -0.3298  0.3255
 9265SOL    HW231584   7.976   0.876   8.469  0.4220 -0.3163  0.3615
 9266SOL     OW31585   8.178   5.464   4.874  0.2684 -0.1860 -0.0994
 9266SOL    HW131586   8.166   5.541   4.930 -0.9578 -0.4287 -0.0070
 9266SOL    HW231587   8.187   5.499   4.786 -0.4731  0.0602 -0.0815
 9267SOL     OW31588   5.769   6.128   9.063 -0.4768  0.1165  0.1167
 9267SOL    HW131589   5.820   6.209   9.060  0.7004 -0.5979  0.3149
 9267SOL    HW231590   5.735   6.118   8.974  1.5282 -0.4762 -0.6463
 9268SOL     OW31591   6.418   6.125   2.266 -0.1651  0.2991 -0.3719
 9268SOL    HW131592   6.400   6.217   2.286  0.2091  0.3412 -0.2275
 9268SOL    HW231593   6.514   6.119   2.263 -0.1910 -0.0078 -0.7501
 9269SOL     OW31594   6.759   0.426   4.647 -0.1886  0.0981 -0.2069
 9269SOL    HW131595   6.841   0.378   4.658 -0.5053  0.0885  3.1454
 9269SOL    HW231596   6.786   0.518   4.648 -0.1714  0.1089  1.2973
 9270SOL     OW31597   2.907   7.858   0.715 -0.4438 -0.3068  0.2738
 9270SOL    HW131598   2.967   7.785   0.696 -0.1742 -0.0180  0.0139
 9270SOL    HW231599   2.829   7.838   0.663 -0.1925 -0.1728 -0.1572
 9271SOL     OW31600   6.049   6.142   9.966 -0.4068  0.1427 -0.4391
 9271SOL    HW131601   6.130   6.118   9.920 -0.8458 -2.0897 -0.1780
 9271SOL    HW231602   5.980   6.130   9.900 -0.9475 -2.2695  0.4559
 9272SOL     OW31603   4.864   2.520   5.078  0.1561 -0.1440  0.1108
 9272SOL    HW131604   4.768   2.522   5.073  0.1675  1.1973 -0.0655
 9272SOL    HW231605   4.883   2.472   5.159 -0.6487 -0.8121 -0.0854
 9273SOL     OW31606   5.596   3.285   2.385  0.1465  0.3002  0.2727
 9273SOL    HW131607   5.643   3.260   2.306 -0.3180 -0.3319  0.1895
 9273SOL    HW231608   5.517   3.329   2.354 -0.0637  0.0018  0.3838
 9274SOL     OW31609   7.652   2.673  10.221 -0.3989 -0.1162  0.0125
 9274SOL    HW131610   7.704   2.641  10.147 -0.1980 -1.1865  0.5881
 9274SOL    HW231611   7.584   2.728  10.182  0.5106  0.4224 -0.8431
 9275SOL     OW31612   0.160   0.577   4.168 -0.5369  0.1708 -0.0276
 9275SOL    HW131613   0.239   0.625   4.191 -0.0109 -0.9463  0.5864
 9275SOL    HW231614   0.105   0.581   4.247  0.0311 -1.2146  0.4774
 9276SOL     OW31615   0.879   1.518   9.922 -0.3233 -0.3443 -0.5267
 9276SOL    HW131616   0.943   1.586   9.944  0.1647 -0.9969  0.1006
 9276SOL    HW231617   0.796   1.565   9.914 -0.2018  0.1842  1.0026
 9277SOL     OW31618   1.358   6.553   6.845  0.1441 -0.4223 -0.3670
 9277SOL    HW131619   1.293   6.483   6.837 -0.9708  0.2301  2.0361
 9277SOL    HW231620   1.314   6.622   6.895  1.6926  1.4002 -1.3504
 9278SOL     OW31621   9.008   3.346   5.769  0.2200  0.5556 -0.3928
 9278SOL    HW131622   9.060   3.277   5.810  1.2993  1.5015 -0.1249
 9278SOL    HW231623   9.023   3.334   5.675 -0.0358  0.0958 -0.3781
 9279SOL     OW31624   4.809   9.173   5.554  0.4066  0.1998  0.4228
 9279SOL    HW131625   4.771   9.119   5.623  0.0818 -1.1105 -0.7174
 9279SOL    HW231626   4.808   9.116   5.477  1.4802  1.3398 -0.4710
 9280SOL     OW31627   6.849   5.536   8.879  0.4753 -0.1503 -0.6960
 9280SOL    HW131628   6.773   5.515   8.825  1.0979 -0.4384 -1.4916
 9280SOL    HW231629   6.923   5.497   8.832  1.1124  0.0972  0.0730
 9281SOL     OW31630   8.764   3.492   5.746  0.1291 -0.3407  0.9397
 9281SOL    HW131631   8.780   3.401   5.725 -0.4369 -0.4700  1.0546
 9281SOL    HW231632   8.820   3.509   5.822  0.4759 -0.5034  0.7179
 9282SOL     OW31633   4.907   4.061   1.529 -0.1892  0.1354  0.0713
 9282SOL    HW131634   4.843   4.077   1.598 -0.5688  1.5424 -0.5566
 9282SOL    HW231635   4.980   4.018   1.573 -0.7637  0.2661  1.1871
 9283SOL     OW31636   9.884   0.626  10.257 -0.4865  0.0443  0.3829
 9283SOL    HW131637   9.798   0.627  10.299 -0.3406 -1.4503  0.7884
 9283SOL    HW231638   9.946   0.631  10.329 -0.2412 -0.9320  0.2587
 9284SOL     OW31639   9.374   2.874   0.021 -0.1459  0.0473  0.3200
 9284SOL    HW131640   9.283   2.852   0.041 -0.2381  1.4213  1.6210
 9284SOL    HW231641   9.399   2.936   0.089  0.6890  2.3316 -1.9097
 9285SOL     OW31642   6.130   8.231   8.832 -0.3935 -0.0079 -0.4100
 9285SOL    HW131643   6.115   8.139   8.853 -0.4495  0.3135  1.0868
 9285SOL    HW231644   6.082   8.246   8.751 -1.5024 -0.9641  0.0477
 9286SOL     OW31645   1.781   7.290   5.115  0.4014 -0.0631 -0.2942
 9286SOL    HW131646   1.726   7.213   5.127 -0.1284  0.2554 -0.6215
 9286SOL    HW231647   1.782   7.303   5.020 -0.7063  1.1729 -0.1641
 9287SOL     OW31648   8.628   9.304   9.601  0.0169 -0.0363  0.1129
 9287SOL    HW131649   8.642   9.318   9.694 -1.2615  0.9108  0.1804
 9287SOL    HW231650   8.561   9.367   9.576 -0.5123 -1.0496 -1.2004
 9288SOL     OW31651   1.996   8.147   5.112  0.1854 -0.2414  0.0774
 9288SOL    HW131652   1.937   8.201   5.165  2.3138  1.1354  1.2346
 9288SOL    HW231653   2.020   8.203   5.038  3.6098  1.2775  2.0686
 9289SOL     OW31654   4.822   5.053  10.282 -0.6211 -0.3655  0.6558
 9289SOL    HW131655   4.810   5.043  10.377  0.2280  1.4766  1.0129
 9289SOL    HW231656   4.900   5.001  10.262 -0.4020 -0.2211  1.1119
 9290SOL     OW31657   3.139   8.377   3.068  0.3728 -0.0026  0.4007
 9290SOL    HW131658   3.079   8.305   3.049 -0.3294  0.2806  1.4343
 9290SOL    HW231659   3.153   8.372   3.163  1.4664  0.3427  0.2677
 9291SOL     OW31660   4.154   0.443   2.785  0.1980  0.0352 -0.4995
 9291SOL    HW131661   4.060   0.426   2.782  0.0444 -0.3557  2.6300
 9291SOL    HW231662   4.168   0.513   2.721 -2.3104  0.4852 -0.6683
 9292SOL     OW31663   8.750   5.144   7.552 -0.4376  0.0880  0.1145
 9292SOL    HW131664   8.797   5.182   7.626 -0.8886  0.4990  0.1983
 9292SOL    HW231665   8.748   5.215   7.487 -1.1744  0.1807  0.2222
 9293SOL     OW31666   8.404   9.251   3.459  0.2429  0.0665 -0.1848
 9293SOL    HW131667   8.329   9.308   3.441  1.4363  0.9957 -2.7537
 9293SOL    HW231668   8.372   9.163   3.442 -0.2440  0.4764 -1.5512
 9294SOL     OW31669   2.428   2.343   1.313  0.2078 -0.7022 -0.1785
 9294SOL    HW131670   2.388   2.256   1.309 -0.5126 -0.4641  1.0410
 9294SOL    HW231671   2.471   2.345   1.399  0.7314 -0.0597 -0.4504
 9295SOL     OW31672   0.307   9.489   8.458 -0.8884 -0.7744  0.1845
 9295SOL    HW131673   0.357   9.408   8.473 -0.3568  0.0694  3.6328
 9295SOL    HW231674   0.216   9.465   8.476 -0.8593 -0.7873  0.3100
 9296SOL     OW31675   2.110   1.031   0.011  0.1638 -0.4167  0.7037
 9296SOL    HW131676   2.143   1.115   0.043  1.0665 -0.4125 -0.1610
 9296SOL    HW231677   2.155   1.019  -0.073 -2.3493 -0.2566 -0.7528
 9297SOL     OW31678   7.279   2.814   6.351  0.1187 -0.2165 -0.0152
 9297SOL    HW131679   7.333   2.878   6.304  0.7385 -0.6627  0.0701
 9297SOL    HW231680   7.285   2.840   6.443 -0.7100  0.3769 -0.1188
 9298SOL     OW31681   9.082   2.450   9.082  0.5690  0.1951  0.2140
 9298SOL    HW131682   9.139   2.479   9.010  0.1589  0.5764  0.0357
 9298SOL    HW231683   8.994   2.450   9.044  0.6834 -2.9012 -0.3050
 9299SOL     OW31684   6.789   6.810   0.610  0.2749 -0.1783 -0.1966
 9299SOL    HW131685   6.706   6.812   0.562  1.9662  2.2797 -3.4351
 9299SOL    HW231686   6.768   6.847   0.696 -2.1132 -0.5032 -0.5700
 9300SOL     OW31687   9.717   5.025   2.952  0.0830  0.4749 -0.2320
 9300SOL    HW131688   9.799   5.021   2.902  0.6843  0.1316  0.7470
 9300SOL    HW231689   9.730   5.099   3.012 -0.0900  0.0754  0.3062
 9301SOL     OW31690   2.183   6.818   5.937  0.0476  0.1694 -0.7849
 9301SOL    HW131691   2.148   6.734   5.967 -0.1984 -0.2571 -2.2146
 9301SOL    HW231692   2.105   6.873   5.924 -0.0050 -0.2169 -2.2758
 9302SOL     OW31693   0.579   0.577  10.133 -0.2791 -0.1822  0.0513
 9302SOL    HW131694   0.499   0.606  10.088  0.9365  2.2192 -0.7583
 9302SOL    HW231695   0.548   0.516  10.200 -2.7110  0.1149 -0.6984
 9303SOL     OW31696   6.351   2.070   7.244 -0.1117 -0.3089  0.2579
 9303SOL    HW131697   6.377   1.993   7.296  1.6770  0.5411  0.6676
 9303SOL    HW231698   6.255   2.063   7.240  0.0132 -2.8098 -0.1272
 9304SOL     OW31699   2.346   8.974   1.127  0.3688 -0.8026  0.7394
 9304SOL    HW131700   2.373   9.023   1.049 -2.2294 -1.0933 -0.4620
 9304SOL    HW231701   2.344   8.883   1.099 -0.2226 -0.9529  1.2348
 9305SOL     OW31702   9.665   2.475   3.487 -0.8015  0.1498 -0.3810
 9305SOL    HW131703   9.634   2.553   3.440  0.4624  0.9389  0.0477
 9305SOL    HW231704   9.694   2.415   3.418 -2.7127 -0.4059 -0.7704
 9306SOL     OW31705   2.042   7.723   9.401 -0.1702 -0.4850  0.3551
 9306SOL    HW131706   2.122   7.775   9.413 -1.2519  0.7203  3.1138
 9306SOL    HW231707   2.047   7.656   9.469 -1.5810 -0.2539  0.7124
 9307SOL     OW31708   8.098   4.743   3.337  0.4964  0.2733 -0.1889
 9307SOL    HW131709   8.117   4.834   3.317 -0.9169  0.4491 -0.8849
 9307SOL    HW231710   8.133   4.694   3.263 -1.7928  0.6182 -1.5984
 9308SOL     OW31711  10.339   3.984   4.447 -0.1844 -0.6330  0.1031
 9308SOL    HW131712  10.424   3.942   4.435  0.0972 -0.2255  0.6208
 9308SOL    HW231713  10.330   4.042   4.371  0.6159  0.3305  0.7164
 9309SOL     OW31714  10.079   5.904   0.387 -0.8201  0.4819 -0.3440
 9309SOL    HW131715   9.995   5.876   0.424 -1.5156  0.5110 -1.8052
 9309SOL    HW231716  10.088   5.853   0.307  1.2752 -0.5556  0.4962
 9310SOL     OW31717   4.540   2.604   7.535 -0.2891  0.0366  0.6593
 9310SOL    HW131718   4.502   2.668   7.596  1.5598  1.4642  0.4125
 9310SOL    HW231719   4.476   2.533   7.532 -1.4208  0.8853  2.6223
 9311SOL     OW31720   5.915   3.383   4.386  0.2777  0.0712 -0.2868
 9311SOL    HW131721   5.823   3.400   4.369  0.3561  0.2264 -0.5730
 9311SOL    HW231722   5.931   3.295   4.353  0.3875  0.3031 -0.8629
 9312SOL     OW31723   0.877   7.272   4.583 -0.3014  0.2693 -0.3762
 9312SOL    HW131724   0.904   7.210   4.650  0.3642  1.2329  0.2638
 9312SOL    HW231725   0.926   7.246   4.505 -0.2716 -0.2038 -0.2007
 9313SOL     OW31726   8.006   1.265   9.382  0.5227  0.1534  0.0900
 9313SOL    HW131727   7.984   1.178   9.349 -1.1883  0.9681 -1.1261
 9313SOL    HW231728   7.956   1.273   9.463  0.3145  0.1665 -0.0391
 9314SOL     OW31729   8.800   9.256   9.848  0.3617  0.4671 -0.2221
 9314SOL    HW131730   8.871   9.192   9.840 -0.6606 -0.8595  0.8286
 9314SOL    HW231731   8.747   9.223   9.921 -2.7559 -0.0200 -2.5319
 9315SOL     OW31732   2.538   8.117   8.008 -0.3983 -0.3021  0.5104
 9315SOL    HW131733   2.524   8.171   7.931 -0.5495 -1.1002 -0.0336
 9315SOL    HW231734   2.451   8.109   8.047 -0.4560 -0.5229  0.3379
 9316SOL     OW31735   9.572   5.733   5.576 -0.0561  0.2550  0.1414
 9316SOL    HW131736   9.655   5.737   5.529  0.9320  1.1403  1.8541
 9316SOL    HW231737   9.519   5.803   5.538  0.4947  0.5639 -0.0769
 9317SOL     OW31738   3.960   4.358   9.909  0.6340 -0.6906 -0.4937
 9317SOL    HW131739   3.904   4.313   9.846  0.9928  0.5047 -1.7151
 9317SOL    HW231740   4.039   4.380   9.860  0.6597  0.8479  0.1720
 9318SOL     OW31741   1.052   7.439   5.289  0.2645  0.0478 -0.7243
 9318SOL    HW131742   0.958   7.435   5.269  0.3749 -1.3295 -1.0464
 9318SOL    HW231743   1.093   7.455   5.204  0.2922  1.4265 -0.4716
 9319SOL     OW31744   8.073   0.785   0.496  0.7656  0.2172  0.6266
 9319SOL    HW131745   8.075   0.821   0.584  1.2024  0.1803  0.6387
 9319SOL    HW231746   8.077   0.861   0.438  0.4985  0.2405  0.6418
 9320SOL     OW31747   2.861   3.108   9.573  0.0338  0.4203  0.2857
 9320SOL    HW131748   2.934   3.170   9.581 -0.0633  0.5852 -0.0935
 9320SOL    HW231749   2.868   3.053   9.651  0.2586  0.7635  0.5144
 9321SOL     OW31750   1.274   6.786   2.177  0.1028  0.3950  0.1745
 9321SOL    HW131751   1.236   6.788   2.089 -2.4805 -1.4850  1.1058
 9321SOL    HW231752   1.263   6.875   2.210  0.0392  0.8331 -0.9780
 9322SOL     OW31753   2.442   4.767   5.378 -0.2528  0.6273 -0.0997
 9322SOL    HW131754   2.362   4.733   5.418 -0.3724  1.4992  0.4249
 9322SOL    HW231755   2.420   4.778   5.286 -0.7764  0.9467  0.0571
 9323SOL     OW31756   9.768   1.252   2.826  0.0457  0.5902 -0.4663
 9323SOL    HW131757   9.854   1.231   2.861  0.2465  0.4928 -1.0111
 9323SOL    HW231758   9.714   1.269   2.903  0.6115  0.8838 -0.1273
 9324SOL     OW31759   3.558   8.176   7.883  0.3323  0.0593 -0.4131
 9324SOL    HW131760   3.493   8.164   7.952 -0.0889 -0.1095 -0.8325
 9324SOL    HW231761   3.600   8.090   7.874 -1.9928 -0.9521 -2.7241
 9325SOL     OW31762   8.975   2.235   1.803  0.2958  0.7097 -0.1833
 9325SOL    HW131763   9.017   2.238   1.889  1.2516  0.0503 -0.6119
 9325SOL    HW231764   8.913   2.162   1.810 -0.4185  1.3385  0.2723
 9326SOL     OW31765   6.044   3.670   1.472 -0.4186  0.6263  0.1956
 9326SOL    HW131766   6.104   3.596   1.482 -1.4600 -0.5779 -1.8119
 9326SOL    HW231767   5.982   3.660   1.545 -1.7747 -1.7771 -1.1449
 9327SOL     OW31768   7.408   8.723   4.673  0.2948 -0.6953 -0.0456
 9327SOL    HW131769   7.475   8.791   4.680 -0.4991 -0.0169  1.3864
 9327SOL    HW231770   7.360   8.744   4.593  0.9856 -0.4547 -0.4050
 9328SOL     OW31771   5.571   0.278   0.310  0.2648 -0.4187 -0.2987
 9328SOL    HW131772   5.645   0.323   0.271  0.3089  0.3404  0.6302
 9328SOL    HW231773   5.506   0.273   0.239  0.8485 -0.2897 -0.8521
 9329SOL     OW31774   7.817   2.082   7.319  0.2389  0.9130  0.0825
 9329SOL    HW131775   7.758   2.077   7.243 -0.5090 -1.3344  0.7335
 9329SOL    HW231776   7.893   2.029   7.294 -0.2384 -0.2602  1.0723
 9330SOL     OW31777   4.531   4.066   0.733 -0.7626 -0.6236 -0.1927
 9330SOL    HW131778   4.473   4.105   0.668 -1.0898  0.5587  0.7740
 9330SOL    HW231779   4.474   4.011   0.786 -0.7004 -0.6794 -0.1822
 9331SOL     OW31780   2.153   0.030   8.904  0.5317  0.8257  0.0704
 9331SOL    HW131781   2.110   0.099   8.853  0.3880 -0.2962 -1.3932
 9331SOL    HW231782   2.154  -0.046   8.845  2.1618  0.0544  1.0357
 9332SOL     OW31783   1.078   2.195   9.372 -0.1774  0.0980 -0.0706
 9332SOL    HW131784   1.014   2.188   9.300 -0.5098 -0.9710  0.3068
 9332SOL    HW231785   1.137   2.265   9.344 -1.9633  1.6788 -0.0682
 9333SOL     OW31786   5.928   6.944   6.910  0.2489  0.1785  0.2158
 9333SOL    HW131787   5.948   6.862   6.863 -0.3664  0.3625 -0.3741
 9333SOL    HW231788   5.834   6.957   6.898 -0.0815 -0.1411  2.1217
 9334SOL     OW31789  10.316   2.723   1.271  0.6188 -0.0620  0.2418
 9334SOL    HW131790  10.362   2.670   1.337  0.8667 -0.8066 -0.5118
 9334SOL    HW231791  10.338   2.682   1.188  2.2371  2.2488 -0.5602
 9335SOL     OW31792   4.599   2.358   9.634  0.6134  0.3572 -0.8773
 9335SOL    HW131793   4.575   2.314   9.552 -0.8983 -0.5210 -0.0138
 9335SOL    HW231794   4.655   2.296   9.679 -1.6506 -0.8934  0.4147
 9336SOL     OW31795   3.996   4.384   9.041 -0.4892  0.0653  0.6783
 9336SOL    HW131796   4.018   4.294   9.015 -2.3627 -0.3842  0.5509
 9336SOL    HW231797   4.057   4.403   9.113  0.7495 -0.8396 -0.0822
 9337SOL     OW31798   6.621  10.155   3.184 -0.3107 -0.4873 -0.0451
 9337SOL    HW131799   6.574  10.156   3.267 -1.1661 -0.1444 -0.5122
 9337SOL    HW231800   6.673  10.075   3.186 -0.7393 -0.7556  0.5906
 9338SOL     OW31801   5.990   7.470   3.126 -0.3140 -0.1943 -0.1467
 9338SOL    HW131802   6.023   7.400   3.182  1.0777  0.2484 -0.3607
 9338SOL    HW231803   5.907   7.495   3.165  0.4272 -0.1572  1.4932
 9339SOL     OW31804   3.727   8.014   6.015 -0.0164  0.1868  0.3523
 9339SOL    HW131805   3.669   8.022   6.090 -0.4915  1.6286 -0.1208
 9339SOL    HW231806   3.687   7.945   5.961  0.7499 -1.3969  1.7388
 9340SOL     OW31807   6.983   9.232   1.238 -0.1728 -0.2513 -0.1999
 9340SOL    HW131808   7.000   9.249   1.145  1.1591 -3.3332 -0.6181
 9340SOL    HW231809   6.891   9.204   1.240 -0.8590  1.7756 -0.1863
 9341SOL     OW31810   2.075   8.696   6.346  0.3104  0.0013 -0.3032
 9341SOL    HW131811   2.022   8.738   6.277  0.4241  0.2134 -0.2612
 9341SOL    HW231812   2.164   8.727   6.330  0.2169  0.6538  0.3974
 9342SOL     OW31813   3.403   3.371   8.535 -0.2857  0.3452  0.1020
 9342SOL    HW131814   3.490   3.353   8.499 -0.2484  0.4439  0.1429
 9342SOL    HW231815   3.343   3.330   8.473 -0.2863  1.6385 -0.7922
 9343SOL     OW31816   0.810   3.522   9.328  0.6384 -0.3535  0.0521
 9343SOL    HW131817   0.780   3.465   9.399 -0.9107 -2.3970 -2.0724
 9343SOL    HW231818   0.731   3.565   9.297  0.8315 -1.2949 -1.8758
 9344SOL     OW31819   0.872   6.587   4.174 -0.6291  0.1065 -0.1028
 9344SOL    HW131820   0.918   6.509   4.143 -0.0755  1.0155 -1.7583
 9344SOL    HW231821   0.936   6.634   4.227 -0.3797  0.2526 -0.5248
 9345SOL     OW31822   0.753   1.002   6.673  0.1143  0.3941 -0.2795
 9345SOL    HW131823   0.788   0.931   6.728 -0.4457  0.6430  0.4077
 9345SOL    HW231824   0.667   0.971   6.645  0.4886  0.1694 -1.2293
 9346SOL     OW31825  10.274   6.688   6.547 -0.7400  0.2941  0.0400
 9346SOL    HW131826  10.305   6.716   6.461 -1.7853 -1.4687 -0.9799
 9346SOL    HW231827  10.336   6.620   6.573  0.1754  1.5210  1.2094
 9347SOL     OW31828   3.682   3.647   6.785 -0.3423  0.0368  0.4605
 9347SOL    HW131829   3.735   3.722   6.814 -2.1543  0.9763  1.4672
 9347SOL    HW231830   3.703   3.639   6.691  1.9957 -0.0303  0.9174
 9348SOL     OW31831   9.877   6.638   8.892  0.2447  0.0809  0.1180
 9348SOL    HW131832   9.888   6.552   8.852 -0.1802  0.8512 -1.7498
 9348SOL    HW231833   9.835   6.620   8.976  1.0335 -1.5852  0.2084
 9349SOL     OW31834   7.174   4.216   4.349  0.4012 -0.2898 -0.9009
 9349SOL    HW131835   7.162   4.310   4.366  0.2937  0.4730 -4.4199
 9349SOL    HW231836   7.231   4.186   4.419  1.9742  2.8536 -0.6494
 9350SOL     OW31837   4.599   0.358   1.228  0.3941  0.4391 -0.2509
 9350SOL    HW131838   4.595   0.265   1.206  0.5827  0.3377  0.1205
 9350SOL    HW231839   4.609   0.359   1.324 -1.2718  0.8787 -0.0638
 9351SOL     OW31840   0.871   7.559   6.481 -0.1344  0.2773  0.5104
 9351SOL    HW131841   0.897   7.583   6.392  0.1730  2.4582  1.1306
 9351SOL    HW231842   0.776   7.565   6.481 -0.3004 -1.6472 -0.1344
 9352SOL     OW31843   7.712   5.143   6.835  0.1886  0.3038  0.3012
 9352SOL    HW131844   7.791   5.090   6.837 -0.3304 -0.6133 -1.2801
 9352SOL    HW231845   7.646   5.090   6.879 -0.3970 -0.5498 -1.5134
 9353SOL     OW31846   3.391   5.142   4.901 -0.6118 -0.4254  0.0751
 9353SOL    HW131847   3.382   5.064   4.956 -0.2841 -0.6344 -0.1590
 9353SOL    HW231848   3.301   5.166   4.878 -0.8759  0.5971  1.9540
 9354SOL     OW31849   5.930   2.959   8.858  0.0298 -0.4784 -0.4432
 9354SOL    HW131850   5.881   2.953   8.776 -0.0494  1.0364 -0.5375
 9354SOL    HW231851   5.968   2.872   8.869 -1.8780 -1.4351 -0.8625
 9355SOL     OW31852   7.334   7.075   0.615 -0.0169  0.7204 -0.0926
 9355SOL    HW131853   7.366   7.024   0.690  3.0159 -0.0059 -1.6932
 9355SOL    HW231854   7.354   7.166   0.638  0.7829  0.5112  0.0782
 9356SOL     OW31855   8.270   9.184   3.931 -0.4015  0.3273  0.1056
 9356SOL    HW131856   8.361   9.208   3.918 -0.4549  1.7736  1.8183
 9356SOL    HW231857   8.243   9.142   3.850  2.0207 -0.9550 -0.0965
 9357SOL     OW31858  10.043   6.409   7.360  0.2172  0.5251 -0.3672
 9357SOL    HW131859  10.002   6.365   7.284  0.2722 -1.5223  0.7091
 9357SOL    HW231860   9.982   6.393   7.432  0.1385  2.5006  0.0522
 9358SOL     OW31861   1.658   2.409   0.929 -0.3932  0.2686 -0.2419
 9358SOL    HW131862   1.616   2.470   0.989  1.9738 -0.3035  2.2162
 9358SOL    HW231863   1.612   2.326   0.944 -1.0887  0.5685 -0.6937
 9359SOL     OW31864   1.327   8.835   2.836  0.3677  0.0086 -0.0978
 9359SOL    HW131865   1.351   8.905   2.897  0.5440 -0.2683  0.1538
 9359SOL    HW231866   1.319   8.757   2.891 -1.2839  0.1206 -0.1241
 9360SOL     OW31867   8.287   6.754   6.951 -0.3212  0.0825 -0.0007
 9360SOL    HW131868   8.330   6.830   6.913  0.8612 -0.3137  0.4924
 9360SOL    HW231869   8.259   6.702   6.875  2.4434 -0.9423 -0.4612
 9361SOL     OW31870   6.661   4.746   1.236  0.2892 -0.1628  0.1157
 9361SOL    HW131871   6.609   4.685   1.288  1.0619 -1.3646 -0.4950
 9361SOL    HW231872   6.712   4.691   1.177  3.1265  0.8499  1.4422
 9362SOL     OW31873   1.365   2.869   1.890  0.5064  0.3330  0.1851
 9362SOL    HW131874   1.455   2.898   1.882  0.3301  1.0278  0.5900
 9362SOL    HW231875   1.320   2.943   1.932 -0.0097 -0.4276  1.0062
 9363SOL     OW31876   9.369   2.088   7.673  0.2402  0.2764  0.7914
 9363SOL    HW131877   9.375   2.161   7.612  1.2028 -1.4306 -1.2641
 9363SOL    HW231878   9.290   2.042   7.647  1.1456 -0.9807  0.1771
 9364SOL     OW31879   5.864   1.065   5.064 -0.1678 -0.3612  0.3779
 9364SOL    HW131880   5.913   1.100   5.137  0.1443  0.2013 -0.0951
 9364SOL    HW231881   5.869   0.970   5.075  1.9904 -0.3712 -0.2566
 9365SOL     OW31882   3.177   8.606   4.648  0.3170 -0.0618 -0.3410
 9365SOL    HW131883   3.256   8.555   4.667  0.6579 -0.9546 -3.6583
 9365SOL    HW231884   3.207   8.680   4.595 -0.9201  0.3206 -0.5537
 9366SOL     OW31885   0.895   1.022   5.690  0.0156 -0.5412 -0.0410
 9366SOL    HW131886   0.950   1.012   5.612  0.2912 -1.3080  0.2413
 9366SOL    HW231887   0.957   1.018   5.763 -0.4273 -1.6773  0.2950
 9367SOL     OW31888   6.892   4.551   3.595 -0.7449  0.5834  0.6429
 9367SOL    HW131889   6.869   4.614   3.527 -1.8153 -1.0373 -0.5464
 9367SOL    HW231890   6.809   4.531   3.638 -0.3870  0.1012  1.1146
 9368SOL     OW31891   7.110   3.757   3.993  0.0255 -0.0745 -0.0245
 9368SOL    HW131892   7.107   3.681   3.936 -3.7560 -0.2627  0.1408
 9368SOL    HW231893   7.063   3.730   4.072 -0.1956  1.9885  0.6129
 9369SOL     OW31894   8.605   4.304   6.580 -0.3079 -0.1426 -0.6126
 9369SOL    HW131895   8.659   4.275   6.506 -0.5846 -1.6666 -0.2536
 9369SOL    HW231896   8.579   4.223   6.624 -1.6069  0.6365  0.1263
 9370SOL     OW31897   0.413   6.742   6.922  0.1278  0.5154  0.1529
 9370SOL    HW131898   0.384   6.807   6.986 -1.0507  0.3309 -0.1759
 9370SOL    HW231899   0.429   6.793   6.842  0.7154  0.6107  0.3225
 9371SOL     OW31900   5.532   9.792   1.487  0.1933  0.2346  0.7097
 9371SOL    HW131901   5.513   9.831   1.401  1.0570 -1.0065 -0.0684
 9371SOL    HW231902   5.623   9.763   1.481 -0.1040 -0.9758  1.6162
 9372SOL     OW31903   2.332   6.325   6.851  0.4784 -0.0721  0.5942
 9372SOL    HW131904   2.277   6.279   6.788 -2.6646  0.8054  2.4748
 9372SOL    HW231905   2.305   6.291   6.936  1.0599  2.1784  1.7703
 9373SOL     OW31906   0.499   4.525   4.973 -0.4408 -0.4183 -0.0881
 9373SOL    HW131907   0.403   4.520   4.970 -0.4735 -0.5180  0.9265
 9373SOL    HW231908   0.529   4.452   4.919 -0.9349 -0.6028 -0.1150
 9374SOL     OW31909   3.027   4.141   3.216  0.0076  0.4040  0.0720
 9374SOL    HW131910   3.103   4.170   3.166 -0.6215  0.7650 -0.6790
 9374SOL    HW231911   3.065   4.089   3.288  0.9392  0.2811 -0.4891
 9375SOL     OW31912   3.013   0.580   2.290 -0.6031  0.0149 -0.0085
 9375SOL    HW131913   2.949   0.649   2.305 -0.1881  0.2519  0.7425
 9375SOL    HW231914   3.097   0.626   2.286 -0.3351 -0.4255  0.3933
 9376SOL     OW31915   8.095   6.072   8.737  0.6138  0.0441 -0.2893
 9376SOL    HW131916   8.162   6.105   8.677  1.1432  1.6547  1.1009
 9376SOL    HW231917   8.021   6.049   8.681  0.3575  3.2814 -1.4370
 9377SOL     OW31918   7.870  10.071   8.841  0.3582 -0.1006  0.1696
 9377SOL    HW131919   7.937  10.011   8.872  0.1952  0.0732  0.8667
 9377SOL    HW231920   7.839  10.032   8.759  0.8827 -0.4917  0.1552
 9378SOL     OW31921   1.516   0.285   1.278  0.0146  0.1191  0.0632
 9378SOL    HW131922   1.426   0.275   1.246  0.2476  0.2911 -0.6548
 9378SOL    HW231923   1.520   0.376   1.309  0.3435  0.5640 -1.2278
 9379SOL     OW31924   6.856   9.469   8.363  0.3103  0.0236  0.0130
 9379SOL    HW131925   6.930   9.430   8.316  0.6465  0.4895  0.1480
 9379SOL    HW231926   6.789   9.483   8.296  0.3007 -0.4960 -0.0903
 9380SOL     OW31927   9.505   4.992   5.698 -0.5264 -0.5565 -0.7534
 9380SOL    HW131928   9.418   4.951   5.702 -1.3688  1.2298  2.6928
 9380SOL    HW231929   9.487   5.085   5.692  1.0802 -0.0316  1.4748
 9381SOL     OW31930   3.345   5.478   8.620 -0.0727 -0.2191  0.6083
 9381SOL    HW131931   3.418   5.473   8.558 -2.2713 -0.4414 -2.1784
 9381SOL    HW231932   3.315   5.569   8.612 -0.6938 -0.3920  0.9865
 9382SOL     OW31933   9.327   6.823   3.021 -0.0447  0.4224  0.1023
 9382SOL    HW131934   9.395   6.831   2.953 -0.3459 -0.6438 -0.3424
 9382SOL    HW231935   9.245   6.840   2.975 -0.3963 -1.7753 -0.1734
 9383SOL     OW31936   1.274   1.931   7.822 -0.8430 -0.3469 -0.6544
 9383SOL    HW131937   1.363   1.895   7.824 -0.7027  0.0339  0.5084
 9383SOL    HW231938   1.219   1.856   7.796 -0.3123 -0.8731 -0.2968
 9384SOL     OW31939   7.119   5.176   5.445  0.1922  0.0380 -0.1858
 9384SOL    HW131940   7.205   5.217   5.455  0.4394 -0.6014  0.3103
 9384SOL    HW231941   7.079   5.182   5.532  0.0255 -0.3132 -0.2366
 9385SOL     OW31942   6.425   5.388   5.779  0.2379  0.4079  0.7863
 9385SOL    HW131943   6.488   5.451   5.744 -0.0042 -0.0693 -0.5751
 9385SOL    HW231944   6.341   5.419   5.746  0.0449 -0.2594  0.6555
 9386SOL     OW31945   1.275   8.490   9.447  0.7284  0.3907  0.2069
 9386SOL    HW131946   1.206   8.486   9.381  0.8689  1.4882 -0.0093
 9386SOL    HW231947   1.338   8.424   9.419  0.5653  0.5255 -0.5055
 9387SOL     OW31948   2.893   5.997   0.999 -0.1248 -0.2417 -0.5503
 9387SOL    HW131949   2.947   5.917   0.997  0.1764 -0.0310 -1.2293
 9387SOL    HW231950   2.902   6.030   1.088  1.8077  0.3971 -0.9260
 9388SOL     OW31951   3.665   2.118   4.099  0.2247  0.1114  0.6528
 9388SOL    HW131952   3.718   2.047   4.063 -0.0273  0.2329  0.0181
 9388SOL    HW231953   3.671   2.188   4.034  0.0020  0.4566  0.9962
 9389SOL     OW31954   7.651   6.295   7.863 -0.4496 -0.7359  0.1312
 9389SOL    HW131955   7.697   6.342   7.933 -0.0382  0.3478 -0.8153
 9389SOL    HW231956   7.561   6.327   7.867 -0.4960 -0.8934  0.3442
 9390SOL     OW31957   0.681   7.708   0.450  0.2444  0.0328 -0.8668
 9390SOL    HW131958   0.766   7.749   0.466  0.7891 -0.4485 -2.3856
 9390SOL    HW231959   0.666   7.653   0.527  0.3932  1.5420  0.3086
 9391SOL     OW31960   7.710   3.921   9.538 -0.1077 -0.0257  0.4226
 9391SOL    HW131961   7.676   3.930   9.627 -1.0992 -0.1198  0.0595
 9391SOL    HW231962   7.645   3.963   9.482  0.9669  0.8916 -0.1858
 9392SOL     OW31963   8.479   5.735   4.056  0.6072 -0.1437  0.1423
 9392SOL    HW131964   8.432   5.689   3.986 -0.4407 -0.1486  0.8254
 9392SOL    HW231965   8.569   5.740   4.025 -0.3226  2.4583 -2.5858
 9393SOL     OW31966   2.109   9.977   0.971  0.6748  0.5784 -0.0691
 9393SOL    HW131967   2.159  10.056   0.991  1.9660 -0.1123 -0.4620
 9393SOL    HW231968   2.089   9.939   1.056 -0.0217  1.3536  0.1281
 9394SOL     OW31969   6.004   8.356   4.031 -0.5594  0.7955  0.0495
 9394SOL    HW131970   5.968   8.272   4.003 -2.3727  0.6139  2.5227
 9394SOL    HW231971   5.943   8.421   3.995 -0.7938  0.8330  0.5126
 9395SOL     OW31972   7.760   5.144   8.931  0.0911  0.5701  0.0250
 9395SOL    HW131973   7.811   5.064   8.936  0.7602  0.9617 -0.3802
 9395SOL    HW231974   7.669   5.116   8.942  0.1128 -0.5030 -2.1488
 9396SOL     OW31975   5.503   2.131   9.952 -0.2889 -0.3571 -0.1930
 9396SOL    HW131976   5.519   2.088   9.868 -1.0609  2.4229 -1.8811
 9396SOL    HW231977   5.581   2.184   9.967 -0.5959 -0.0421  0.3139
 9397SOL     OW31978   2.013   3.550   8.571  0.1894 -0.4503  0.2607
 9397SOL    HW131979   1.947   3.617   8.558  0.7308  0.2573  1.0629
 9397SOL    HW231980   2.095   3.591   8.543  0.2088 -1.6129 -1.5941
 9398SOL     OW31981   0.364   4.121   8.202 -0.2996 -0.0501  0.8573
 9398SOL    HW131982   0.395   4.046   8.253  2.0766  0.0210 -0.3387
 9398SOL    HW231983   0.408   4.196   8.242 -2.2705  0.6925  1.7266
 9399SOL     OW31984   6.545   8.137   9.364 -0.7225  0.0435 -0.0369
 9399SOL    HW131985   6.626   8.087   9.374  1.9426  3.8040 -0.5965
 9399SOL    HW231986   6.542   8.194   9.442 -1.4687  1.6124 -1.1451
 9400SOL     OW31987   3.263   3.680   6.963  0.1919 -0.0214  0.1054
 9400SOL    HW131988   3.241   3.645   7.050  1.8522  0.1852  0.6315
 9400SOL    HW231989   3.342   3.633   6.937  1.7957  2.3803  0.3129
 9401SOL     OW31990   5.816   5.683   5.598 -0.2230 -0.2035 -0.1306
 9401SOL    HW131991   5.760   5.707   5.524 -0.9480  0.2896  0.5609
 9401SOL    HW231992   5.754   5.662   5.668  0.4227  2.7001  1.4288
 9402SOL     OW31993   0.939   0.077   2.478  0.1265 -0.4788  0.4287
 9402SOL    HW131994   1.004   0.044   2.417  0.5397  0.6306  0.2445
 9402SOL    HW231995   0.975   0.057   2.564  0.0667 -1.0586  0.3245
 9403SOL     OW31996   4.574   2.424   6.112 -0.1345 -0.3769  0.6817
 9403SOL    HW131997   4.490   2.404   6.154 -0.1684  1.1420  1.3944
 9403SOL    HW231998   4.639   2.393   6.174 -0.1878  0.8780  1.3949
 9404SOL     OW31999   3.007   1.301   2.627 -0.3332 -0.0945 -0.4092
 9404SOL    HW132000   3.061   1.336   2.556  0.9468  0.5250  0.8335
 9404SOL    HW232001   3.046   1.216   2.646  0.0023  0.2038  0.2589
 9405SOL     OW32002  10.198   5.366   0.340  0.1656 -0.0515  0.6500
 9405SOL    HW132003  10.127   5.431   0.340  0.9056  0.8345 -0.9116
 9405SOL    HW232004  10.231   5.369   0.250  0.4602 -2.3672  0.6402
 9406SOL     OW32005   8.123   6.199   0.489  0.2543  1.2588  0.3252
 9406SOL    HW132006   8.086   6.113   0.509  1.1050  0.5041 -1.2038
 9406SOL    HW232007   8.067   6.260   0.537  0.0370 -0.1546  2.0070
 9407SOL     OW32008   9.951   0.234   0.574  0.3426  0.1621 -0.1849
 9407SOL    HW132009  10.039   0.221   0.537  1.1780  0.4474  1.6287
 9407SOL    HW232010   9.965   0.288   0.651 -1.3850 -0.2080  0.4236
 9408SOL     OW32011  10.162   0.471   4.426 -0.5528  0.1356 -0.4893
 9408SOL    HW132012  10.228   0.440   4.365  0.0781  0.7156 -0.1135
 9408SOL    HW232013  10.208   0.478   4.510 -1.1092  0.4605 -0.2047
 9409SOL     OW32014   9.993   4.198   1.572  0.3740 -0.1053  0.0211
 9409SOL    HW132015  10.045   4.134   1.621 -1.6890 -0.7486  1.5785
 9409SOL    HW232016  10.022   4.283   1.605  1.1879 -0.3970  0.0607
 9410SOL     OW32017   5.798  10.083   1.522 -0.2321 -0.1008 -0.1445
 9410SOL    HW132018   5.710  10.106   1.492 -0.3795 -1.3215 -0.7014
 9410SOL    HW232019   5.841  10.047   1.444  1.0851  1.2806 -0.1154
 9411SOL     OW32020   8.013   4.872   9.783 -0.4951 -0.4740  0.4403
 9411SOL    HW132021   7.932   4.901   9.824  0.4448  1.2681  1.1603
 9411SOL    HW232022   8.052   4.951   9.747 -0.1850 -1.5950 -1.9469
 9412SOL     OW32023   5.217   9.903   2.715  0.4457  0.2033  0.0952
 9412SOL    HW132024   5.242   9.995   2.710  0.9945  0.0325 -0.3201
 9412SOL    HW232025   5.128   9.901   2.680  0.5728  0.5170 -0.2507
 9413SOL     OW32026   6.288   1.622   4.096 -0.0683  0.3771  0.2902
 9413SOL    HW132027   6.380   1.646   4.085 -0.2676  0.7508 -0.6467
 9413SOL    HW232028   6.275   1.620   4.191  0.4984  1.8721  0.4172
 9414SOL     OW32029   7.626   0.620   0.143 -0.6782  0.2143 -0.0798
 9414SOL    HW132030   7.626   0.565   0.064 -1.5171 -2.1873  1.4962
 9414SOL    HW232031   7.701   0.678   0.131 -1.5274  0.8739 -3.2275
 9415SOL     OW32032   2.140   1.039   6.002 -0.4163 -0.0926  0.2544
 9415SOL    HW132033   2.098   1.033   5.916 -0.2885 -0.5940  0.2220
 9415SOL    HW232034   2.234   1.046   5.982 -0.4764  1.0244  0.3250
 9416SOL     OW32035   2.362   8.293   4.969  0.7348  0.1424  0.1133
 9416SOL    HW132036   2.269   8.292   4.945  1.1880 -2.0817 -1.9479
 9416SOL    HW232037   2.362   8.280   5.064 -1.0601  0.6986  0.2294
 9417SOL     OW32038   8.159   0.776   2.772  0.0473  0.2932  0.0454
 9417SOL    HW132039   8.207   0.844   2.819 -0.0566  0.5231 -0.1790
 9417SOL    HW232040   8.067   0.799   2.784  0.0260  1.1623 -1.4230
 9418SOL     OW32041   0.844   7.285   4.944 -0.1774 -0.4673  0.7953
 9418SOL    HW132042   0.795   7.253   5.020 -1.1477  1.0439  0.8445
 9418SOL    HW232043   0.814   7.375   4.932  1.9984  0.2645  0.3116
 9419SOL     OW32044   2.827   4.917   5.446  0.3216 -0.1099  0.0811
 9419SOL    HW132045   2.851   4.986   5.507 -0.2495  0.8631 -0.7687
 9419SOL    HW232046   2.843   4.836   5.494  0.1738  0.6239  1.3995
 9420SOL     OW32047   0.349   0.488   3.148 -0.4204  0.0096  0.8940
 9420SOL    HW132048   0.396   0.416   3.106 -0.7628 -0.2534  0.9628
 9420SOL    HW232049   0.292   0.446   3.212 -1.2508  0.2776  0.3464
 9421SOL     OW32050   5.778   7.521   3.648  0.4845  0.6146 -0.0430
 9421SOL    HW132051   5.830   7.598   3.626  0.5060  0.6851  0.2470
 9421SOL    HW232052   5.826   7.448   3.610  0.0706  0.8142 -0.9800
 9422SOL     OW32053   7.530   5.471   8.917 -0.1211 -0.3452 -0.2114
 9422SOL    HW132054   7.532   5.512   8.830  1.5560 -0.5458 -0.2917
 9422SOL    HW232055   7.444   5.496   8.952 -0.5614  0.3143 -1.6382
 9423SOL     OW32056   8.423   0.039   3.412  0.1874  0.8530 -0.4182
 9423SOL    HW132057   8.503   0.025   3.462  0.2471 -1.8718 -1.1442
 9423SOL    HW232058   8.453   0.053   3.322 -0.1074  1.7658 -0.3886
 9424SOL     OW32059   8.322   9.645   0.638 -0.2322  0.5279 -0.3605
 9424SOL    HW132060   8.237   9.621   0.675  0.4551  0.1309  1.0356
 9424SOL    HW232061   8.368   9.688   0.710  0.6980  0.8761 -1.1456
 9425SOL     OW32062   4.230   7.221   8.215 -0.4350  0.3935 -0.4943
 9425SOL    HW132063   4.284   7.192   8.142  0.0822  0.6939 -0.2375
 9425SOL    HW232064   4.234   7.148   8.278 -0.0707  0.5421 -0.3422
 9426SOL     OW32065  10.174   5.175   1.467 -0.1517  0.0314  0.0828
 9426SOL    HW132066  10.138   5.259   1.439 -0.9973 -0.7703 -1.3262
 9426SOL    HW232067  10.104   5.112   1.453  1.4792 -1.4585 -2.0331
 9427SOL     OW32068   7.076   1.183   5.168  0.0276  0.7525 -0.5724
 9427SOL    HW132069   7.138   1.244   5.208  0.7867 -1.2970  1.6525
 9427SOL    HW232070   6.996   1.193   5.220  0.2190 -0.2316 -0.0669
 9428SOL     OW32071   1.328   9.742   0.716  0.1498  0.2219  0.3181
 9428SOL    HW132072   1.330   9.653   0.752 -1.1214 -0.3164 -0.8216
 9428SOL    HW232073   1.393   9.741   0.646  1.3780  0.7438  1.4147
 9429SOL     OW32074   0.838   0.234   0.084  0.2280 -0.1065 -0.2378
 9429SOL    HW132075   0.789   0.211   0.005 -1.1843  0.8047  0.3219
 9429SOL    HW232076   0.833   0.156   0.139  1.0721 -0.6839 -0.9485
 9430SOL     OW32077   0.805   9.255   2.148 -0.2652 -0.1723 -0.1501
 9430SOL    HW132078   0.799   9.332   2.205 -0.1984 -0.3606  0.1142
 9430SOL    HW232079   0.770   9.284   2.064 -0.8671 -0.0431  0.1418
 9431SOL     OW32080   1.126   5.198   4.865  0.5918 -0.5938  0.1572
 9431SOL    HW132081   1.099   5.290   4.875  2.0721 -0.0930 -0.1067
 9431SOL    HW232082   1.091   5.154   4.942 -0.8667 -0.0113 -0.1279
 9432SOL     OW32083   1.535   9.033   0.141 -0.4074  0.2793  0.3604
 9432SOL    HW132084   1.615   9.082   0.125 -0.2716  0.3337  1.1612
 9432SOL    HW232085   1.554   8.981   0.219 -0.4933 -1.1850 -0.5677
 9433SOL     OW32086   5.119   3.324   3.759  0.2947 -0.4902  0.2387
 9433SOL    HW132087   5.026   3.329   3.737  0.6359  1.0811 -1.0234
 9433SOL    HW232088   5.125   3.251   3.820 -2.0639  0.5634  1.8769
 9434SOL     OW32089   0.720   4.469   9.324 -0.1673 -0.7985 -0.3253
 9434SOL    HW132090   0.726   4.495   9.416  0.5934  1.2313 -0.9018
 9434SOL    HW232091   0.811   4.461   9.296 -0.3919 -1.2060 -0.9577
 9435SOL     OW32092   8.443   5.246   0.564  0.4567  0.1682  0.0146
 9435SOL    HW132093   8.471   5.166   0.608  1.5989  0.8793  0.6067
 9435SOL    HW232094   8.430   5.219   0.473  0.2474 -0.8113  0.3163
 9436SOL     OW32095   7.558   3.230   6.992  0.0281 -0.4822 -0.1615
 9436SOL    HW132096   7.619   3.157   6.986  1.1502  0.5232 -1.8332
 9436SOL    HW232097   7.478   3.191   7.028  0.9387 -2.2843  0.0446
 9437SOL     OW32098   9.074   0.868   9.318 -0.8014  0.2833 -0.2791
 9437SOL    HW132099   9.006   0.883   9.383  0.2613 -1.1465  1.2298
 9437SOL    HW232100   9.155   0.894   9.361 -0.2783  1.2915 -1.7991
 9438SOL     OW32101   7.864   6.030   2.674 -0.3212 -0.4485 -0.2815
 9438SOL    HW132102   7.851   5.943   2.712 -0.9240 -0.2333  0.0235
 9438SOL    HW232103   7.899   6.013   2.586  0.5080 -0.9618  0.1392
 9439SOL     OW32104   1.492   4.452   7.628  0.3674  0.0764 -0.6496
 9439SOL    HW132105   1.419   4.511   7.613  0.3318 -0.0111 -0.8128
 9439SOL    HW232106   1.569   4.509   7.628  0.5338 -0.0999 -2.6085
 9440SOL     OW32107   4.587   4.608   4.211  0.0982  0.8678 -0.0383
 9440SOL    HW132108   4.522   4.678   4.203  0.8016  1.3353 -2.1812
 9440SOL    HW232109   4.671   4.652   4.198  0.7975  0.0675  1.4766
 9441SOL     OW32110   7.636   0.858   9.167 -0.1495  0.1603  0.3638
 9441SOL    HW132111   7.580   0.799   9.115 -0.5803 -0.7583  1.8164
 9441SOL    HW232112   7.723   0.819   9.161  0.1012  0.8544 -0.8086
 9442SOL     OW32113   2.845   3.776   9.802 -0.3272  0.3091 -0.2488
 9442SOL    HW132114   2.794   3.809   9.727  1.5780  0.2974 -1.6147
 9442SOL    HW232115   2.932   3.814   9.791  0.1862 -0.2054  1.6472
 9443SOL     OW32116   1.011   0.041   1.543  0.3723 -0.0350  0.2518
 9443SOL    HW132117   1.020  -0.018   1.468 -0.2275 -0.2912  0.3708
 9443SOL    HW232118   0.946   0.106   1.515  0.1830 -0.1040  0.5301
 9444SOL     OW32119   5.465   6.959   7.321  0.4332  0.4871 -0.0321
 9444SOL    HW132120   5.441   7.011   7.244  0.5083  1.1231  0.3731
 9444SOL    HW232121   5.545   6.913   7.294 -0.8474 -1.2161 -1.1955
 9445SOL     OW32122   2.551   6.500   1.632  0.2043  0.6038  0.3550
 9445SOL    HW132123   2.636   6.502   1.589  0.6050  1.5309  1.1532
 9445SOL    HW232124   2.488   6.514   1.562  0.8676  2.4955  0.0615
 9446SOL     OW32125   2.265   7.345   2.576  0.2312 -0.4400 -0.5335
 9446SOL    HW132126   2.267   7.250   2.584 -0.6247 -0.3750  0.7877
 9446SOL    HW232127   2.173   7.368   2.589  0.1013  0.4592 -2.6119
 9447SOL     OW32128   6.959   3.288   9.309 -0.2261 -0.0805  0.1623
 9447SOL    HW132129   6.956   3.193   9.319 -0.9177 -0.0427  0.3606
 9447SOL    HW232130   7.045   3.313   9.344 -0.5382 -0.5113  1.2850
 9448SOL     OW32131   6.923   6.581   8.339 -0.1140  0.1732 -0.3619
 9448SOL    HW132132   6.878   6.649   8.390  0.5471  1.1653 -1.0786
 9448SOL    HW232133   6.938   6.511   8.402  1.1987  1.5977  1.0058
 9449SOL     OW32134   9.356   7.873   0.874  0.1702  0.3537  0.0018
 9449SOL    HW132135   9.334   7.781   0.858  2.2288 -0.3356  0.8126
 9449SOL    HW232136   9.443   7.884   0.835  1.7264  0.8342  3.2675
 9450SOL     OW32137   3.516   4.872   8.071 -0.1176 -0.3635  0.4522
 9450SOL    HW132138   3.463   4.951   8.069  0.6024  0.1214  0.1855
 9450SOL    HW232139   3.471   4.814   8.133 -0.7645  0.1637  0.4842
 9451SOL     OW32140   0.840   3.684   9.054  0.5175 -0.4666 -0.4436
 9451SOL    HW132141   0.770   3.711   9.114  0.6800 -0.3779 -0.2945
 9451SOL    HW232142   0.816   3.724   8.970  1.0166  0.5670 -0.1111
 9452SOL     OW32143   5.357   2.183   7.818  0.2042  0.0273 -0.1584
 9452SOL    HW132144   5.366   2.278   7.824  1.2823 -0.1515  1.5986
 9452SOL    HW232145   5.440   2.149   7.851  0.1826 -1.5415 -1.5775
 9453SOL     OW32146   2.732   1.391   7.387  0.0739  0.0789  0.3968
 9453SOL    HW132147   2.686   1.458   7.336 -0.2954 -1.6314 -1.6752
 9453SOL    HW232148   2.666   1.357   7.448 -0.8312 -0.7754 -0.9874
 9454SOL     OW32149   3.539   8.451   7.787 -0.3872 -0.5106  0.2024
 9454SOL    HW132150   3.561   8.358   7.778 -1.0234 -0.4626 -3.4478
 9454SOL    HW232151   3.460   8.462   7.733 -0.0691  2.2251  0.1464
 9455SOL     OW32152   8.660   7.371   9.605 -0.4367  0.1989  0.0757
 9455SOL    HW132153   8.749   7.362   9.639 -1.0641 -1.1126  1.5628
 9455SOL    HW232154   8.669   7.370   9.510  1.2790  2.1954  0.1474
 9456SOL     OW32155  10.247   7.056   9.460 -0.4870  0.3587  0.1580
 9456SOL    HW132156  10.295   7.024   9.384 -0.4201 -0.7036  0.6340
 9456SOL    HW232157  10.313   7.067   9.528 -0.7213  0.1507  0.4218
 9457SOL     OW32158   6.931   6.046   1.097 -0.0231 -0.1171 -0.1194
 9457SOL    HW132159   7.004   6.011   1.148 -0.0794 -0.5902 -0.3632
 9457SOL    HW232160   6.864   5.978   1.101 -0.4353  0.2914  0.0536
 9458SOL     OW32161   2.122   6.215   4.896  0.4824 -0.1395 -0.2553
 9458SOL    HW132162   2.035   6.203   4.860  0.6841 -1.2188 -0.4247
 9458SOL    HW232163   2.179   6.227   4.820  0.8512 -2.0478 -0.3341
 9459SOL     OW32164   6.303   9.904   1.601 -0.0507 -0.3891  0.5137
 9459SOL    HW132165   6.367   9.845   1.640  0.4319  0.4016  0.9296
 9459SOL    HW232166   6.343   9.991   1.606 -0.3411 -0.1304 -0.9332
 9460SOL     OW32167   4.589   8.720   2.903 -0.1230  0.0015  0.3619
 9460SOL    HW132168   4.548   8.713   2.817 -0.2294  1.5258  0.2705
 9460SOL    HW232169   4.527   8.678   2.963 -0.1267 -0.9144 -0.2552
 9461SOL     OW32170   6.548   9.530   5.943  0.0140  0.3895 -0.0886
 9461SOL    HW132171   6.591   9.461   5.993 -1.7672 -1.5278 -1.0477
 9461SOL    HW232172   6.576   9.611   5.985  1.2115 -0.9541  1.8694
 9462SOL     OW32173   7.027   5.845   9.093 -0.1390 -0.1358  0.4967
 9462SOL    HW132174   6.956   5.788   9.065  1.0145 -1.6638  0.5366
 9462SOL    HW232175   7.034   5.911   9.025  0.4117 -1.8106 -1.1521
 9463SOL     OW32176   9.353  10.068   6.053  0.2149  0.0250  0.1597
 9463SOL    HW132177   9.387   9.995   6.001  0.5912 -0.1589  0.6494
 9463SOL    HW232178   9.366  10.041   6.144 -0.6116  0.2571  0.3559
 9464SOL     OW32179   2.830   2.635   0.803  0.0841 -0.3997  0.4299
 9464SOL    HW132180   2.772   2.709   0.785 -0.4210 -0.9183 -0.1207
 9464SOL    HW232181   2.877   2.622   0.720  0.0274 -0.8175  0.4630
 9465SOL     OW32182  10.253   7.347   6.735 -0.0495 -0.5249  0.2316
 9465SOL    HW132183  10.175   7.299   6.709 -1.4107  1.9011 -0.5743
 9465SOL    HW232184  10.303   7.357   6.654 -0.4754  0.5316  0.0806
 9466SOL     OW32185   8.922   3.943   0.512  0.0745 -0.8496  0.1084
 9466SOL    HW132186   8.836   3.980   0.489  0.8448  1.2631  0.3545
 9466SOL    HW232187   8.958   3.913   0.428 -0.5258 -0.8525 -0.1534
 9467SOL     OW32188   9.326   7.614   0.927  0.5371  0.0299  0.2513
 9467SOL    HW132189   9.288   7.591   1.012  0.4297  0.0018  0.1950
 9467SOL    HW232190   9.407   7.563   0.923 -0.1321 -1.0307 -0.2554
 9468SOL     OW32191   7.518   1.294   7.483 -0.1358 -0.3116  0.1970
 9468SOL    HW132192   7.430   1.323   7.505 -0.7386 -0.2389 -2.0689
 9468SOL    HW232193   7.532   1.216   7.537 -1.4131 -0.0936  0.8840
 9469SOL     OW32194   4.572   6.275   4.384  0.1538 -0.2554 -1.0445
 9469SOL    HW132195   4.542   6.339   4.449 -1.6836 -1.6242 -0.4614
 9469SOL    HW232196   4.530   6.303   4.303 -1.5876 -1.2769 -0.5545
 9470SOL     OW32197   2.227   7.748   3.474  0.5114 -0.2199 -0.4333
 9470SOL    HW132198   2.322   7.748   3.463  0.5065  0.8086 -0.6059
 9470SOL    HW232199   2.213   7.757   3.568  0.5750 -1.2852 -0.3134
 9471SOL     OW32200   8.352   9.498   2.357  0.1071 -0.1824 -0.0446
 9471SOL    HW132201   8.360   9.495   2.452  0.7194 -0.5707 -0.1053
 9471SOL    HW232202   8.356   9.591   2.335  2.9468 -0.2078  0.0749
 9472SOL     OW32203   4.277   4.468   4.626  0.5497  0.6334  0.0642
 9472SOL    HW132204   4.355   4.489   4.574 -0.4431  1.3150 -1.2111
 9472SOL    HW232205   4.253   4.380   4.598  2.1139 -0.5501  2.1276
 9473SOL     OW32206   5.961   3.185   5.867  0.1580  0.2220 -0.5638
 9473SOL    HW132207   6.031   3.145   5.919 -0.0614 -4.2468 -3.1664
 9473SOL    HW232208   5.883   3.175   5.921  0.7623  0.8268  0.4414
 9474SOL     OW32209   8.920   1.613   9.971 -0.2377 -0.5185 -0.1623
 9474SOL    HW132210   8.865   1.611  10.049 -2.0106 -1.1424 -1.3769
 9474SOL    HW232211   8.960   1.701   9.973 -0.2477 -0.5097  1.3989
 9475SOL     OW32212   4.884   2.451   1.104 -0.4254 -0.5797  0.3147
 9475SOL    HW132213   4.866   2.494   1.188 -0.8167 -0.5695  0.2242
 9475SOL    HW232214   4.960   2.498   1.069 -0.0180 -0.8289  0.8386
 9476SOL     OW32215   6.695   1.715   5.229 -0.0981  0.3114 -0.0531
 9476SOL    HW132216   6.662   1.651   5.291  0.5004 -0.3977 -0.4519
 9476SOL    HW232217   6.621   1.734   5.171 -0.1751 -0.3005 -0.1602
 9477SOL     OW32218   2.336   7.896   6.999 -0.9488  0.3324 -0.7969
 9477SOL    HW132219   2.299   7.832   6.938 -1.5272  0.1349 -0.2589
 9477SOL    HW232220   2.353   7.974   6.946 -2.0686  0.3955 -1.0951
 9478SOL     OW32221   2.527   6.182   0.008  0.4055 -0.9947 -0.3692
 9478SOL    HW132222   2.526   6.240  -0.068  0.2775 -0.9503 -0.3340
 9478SOL    HW232223   2.615   6.190   0.043  0.1913 -0.3057  0.0326
 9479SOL     OW32224   2.086   4.599   4.201 -0.1151 -0.5983  0.5407
 9479SOL    HW132225   2.062   4.520   4.152  1.0612  0.0958 -1.2469
 9479SOL    HW232226   2.174   4.620   4.171 -0.9810  2.2950 -0.2812
 9480SOL     OW32227   3.751   5.993   6.606 -0.2212 -0.0043  0.4014
 9480SOL    HW132228   3.689   5.996   6.533  0.2884  0.3803 -0.0262
 9480SOL    HW232229   3.769   6.085   6.625  1.8120 -0.0799 -0.8752
 9481SOL     OW32230   2.282   7.889   4.816 -0.3409 -0.1525  0.1373
 9481SOL    HW132231   2.341   7.964   4.810  0.0166 -0.5420 -2.7980
 9481SOL    HW232232   2.319   7.836   4.887  1.6237  0.6431 -0.2170
 9482SOL     OW32233   7.010   1.284   3.880 -0.4966  0.1230 -0.3825
 9482SOL    HW132234   7.053   1.252   3.960  2.5994 -2.8358 -2.8608
 9482SOL    HW232235   6.940   1.221   3.864 -2.9997  2.2799  1.1969
 9483SOL     OW32236   0.526   4.893  10.352  0.0403  0.0164  0.2370
 9483SOL    HW132237   0.432   4.881  10.357 -0.1242 -0.1830 -2.3657
 9483SOL    HW232238   0.538   4.976  10.306  1.1166 -0.7458 -0.9128
 9484SOL     OW32239   8.354  10.040   6.092  0.3762 -0.5341 -0.3569
 9484SOL    HW132240   8.391  10.045   6.180 -1.3160  0.3037  0.3592
 9484SOL    HW232241   8.429  10.019   6.035  1.3059 -2.1645  1.3825
 9485SOL     OW32242   2.211   7.478   9.777 -0.7065  0.2482  0.4617
 9485SOL    HW132243   2.252   7.503   9.860  0.3842 -0.5580  0.1847
 9485SOL    HW232244   2.162   7.399   9.798 -0.7996  0.2998  0.4375
 9486SOL     OW32245   4.487   4.812   7.371 -0.0789 -0.0993  0.6096
 9486SOL    HW132246   4.568   4.763   7.360 -0.8837 -0.9984 -1.8929
 9486SOL    HW232247   4.472   4.855   7.287 -1.8074  0.6782  1.2612
 9487SOL     OW32248   8.113   3.585   6.396 -0.5009  0.1638 -0.1313
 9487SOL    HW132249   8.180   3.564   6.461  0.9324 -0.4327 -1.7411
 9487SOL    HW232250   8.035   3.539   6.427  0.0239  0.1919  1.3398
 9488SOL     OW32251  10.233   3.381  10.206  0.0930  0.3891  0.1886
 9488SOL    HW132252  10.230   3.470  10.170  0.2903 -0.0434 -0.9485
 9488SOL    HW232253  10.144   3.365  10.238  0.1827  1.1700  0.8397
 9489SOL     OW32254   1.196   1.368   0.667  0.0593  0.1898  0.5253
 9489SOL    HW132255   1.196   1.272   0.675 -0.5610 -0.0215 -1.4075
 9489SOL    HW232256   1.258   1.398   0.733 -0.4281 -1.4806  1.8063
 9490SOL     OW32257   3.174   4.706   5.516  0.0433 -0.3354 -0.2467
 9490SOL    HW132258   3.175   4.732   5.608  0.1574  1.7037 -0.7771
 9490SOL    HW232259   3.256   4.657   5.504  0.2039 -0.2966  0.6417
 9491SOL     OW32260   1.186   9.398   2.871  0.4436 -0.0714 -0.0348
 9491SOL    HW132261   1.183   9.304   2.853  2.5767 -0.2349  0.2976
 9491SOL    HW232262   1.171   9.439   2.785  1.7312 -0.7514 -0.6085
 9492SOL     OW32263   0.216   2.488  10.128 -0.4408  0.7107 -0.2617
 9492SOL    HW132264   0.223   2.573  10.086  1.1166 -0.1596 -1.8990
 9492SOL    HW232265   0.244   2.502  10.219 -1.4785  2.1478 -0.1378
 9493SOL     OW32266   3.734   0.815   2.872 -0.1833 -0.1937  0.6130
 9493SOL    HW132267   3.740   0.737   2.817 -1.7915  0.8193 -1.1094
 9493SOL    HW232268   3.776   0.884   2.821  0.9705  0.1940  1.9988
 9494SOL     OW32269   5.124   2.123   6.352  0.0630 -0.0949 -0.2937
 9494SOL    HW132270   5.028   2.116   6.345 -0.1739  2.1393 -0.0672
 9494SOL    HW232271   5.148   2.056   6.415 -1.4359 -0.2945  0.1145
 9495SOL     OW32272   2.389   1.589   6.786  0.1772 -0.0111 -0.5473
 9495SOL    HW132273   2.458   1.532   6.753 -1.0566 -0.5205 -2.3978
 9495SOL    HW232274   2.340   1.535   6.848  0.7442 -0.0130 -0.0985
 9496SOL     OW32275   1.962   7.350   0.312  0.2141 -0.0556  0.2641
 9496SOL    HW132276   2.026   7.409   0.352  0.7134 -0.5480  0.2000
 9496SOL    HW232277   2.015   7.280   0.274 -0.1163  0.9884 -2.3221
 9497SOL     OW32278   8.207   1.039   9.625 -0.2185 -0.2472 -0.5711
 9497SOL    HW132279   8.174   1.088   9.701  0.1234  0.0720 -0.6226
 9497SOL    HW232280   8.148   0.965   9.616  0.1503 -0.6877  0.4549
 9498SOL     OW32281   3.516   6.801   0.096  1.1209 -0.6144  0.3561
 9498SOL    HW132282   3.539   6.875   0.040 -2.6107  0.0213 -0.5853
 9498SOL    HW232283   3.513   6.836   0.184  0.4579  0.1094  0.0533
 9499SOL     OW32284   5.271   2.128   2.887 -0.1437  0.0525 -0.5259
 9499SOL    HW132285   5.364   2.135   2.909 -0.2808 -0.1625  0.1144
 9499SOL    HW232286   5.253   2.034   2.886 -0.9814  0.1176  2.0392
 9500SOL     OW32287   8.083   9.795   6.817  0.5246 -0.2492  0.1683
 9500SOL    HW132288   8.003   9.842   6.837  0.3287  0.2955 -1.7077
 9500SOL    HW232289   8.151   9.863   6.813  0.5792 -0.3436 -0.7604
 9501SOL     OW32290   3.441   0.825   4.732  0.0262 -0.6150 -0.5590
 9501SOL    HW132291   3.359   0.818   4.683  0.0402 -0.0715 -0.6670
 9501SOL    HW232292   3.422   0.888   4.801  0.3471 -0.5131 -0.5636
 9502SOL     OW32293   1.363   9.143   2.574  0.3336  0.6710 -0.7078
 9502SOL    HW132294   1.276   9.119   2.604  0.4098 -3.7116 -3.1854
 9502SOL    HW232295   1.420   9.130   2.650 -0.8629  1.9965  0.4726
 9503SOL     OW32296   2.578   6.203   6.424 -0.0245 -0.3622 -0.0208
 9503SOL    HW132297   2.667   6.231   6.405 -0.0510 -0.1718  0.1364
 9503SOL    HW232298   2.531   6.215   6.342  0.1918 -0.8511 -0.2199
 9504SOL     OW32299   4.355   1.580   1.493 -0.1832 -1.1555 -0.3159
 9504SOL    HW132300   4.279   1.603   1.547  1.3265  1.0370  1.0063
 9504SOL    HW232301   4.381   1.662   1.451  3.3513 -1.0113  1.8194
 9505SOL     OW32302   4.013   0.959   6.094 -0.0137 -0.0677  0.2360
 9505SOL    HW132303   4.073   1.013   6.043  0.0510 -0.1455  0.2279
 9505SOL    HW232304   4.069   0.895   6.137 -0.0987 -0.1982  0.1563
 9506SOL     OW32305   4.010   1.677   1.941 -0.4011 -0.5187 -0.1745
 9506SOL    HW132306   3.925   1.633   1.935 -0.4347 -0.5261  0.3215
 9506SOL    HW232307   4.053   1.636   2.016 -0.3417  0.1350  0.1571
 9507SOL     OW32308  10.255   2.245   6.089 -0.3638  0.1646  0.2744
 9507SOL    HW132309  10.324   2.255   6.155  0.0623 -0.0110 -0.1399
 9507SOL    HW232310  10.213   2.331   6.085  0.6086  0.6270 -0.3247
 9508SOL     OW32311   5.550   4.260   4.618  0.2630  0.1833 -0.1127
 9508SOL    HW132312   5.555   4.165   4.626 -0.4558  0.2443  1.3251
 9508SOL    HW232313   5.628   4.293   4.662  0.6040  0.2750 -0.7631
 9509SOL     OW32314   1.242   2.716   3.991 -0.5798  0.4182 -0.0678
 9509SOL    HW132315   1.156   2.756   3.975  0.2153  1.9169 -0.8495
 9509SOL    HW232316   1.242   2.693   4.083 -1.5136  1.1972  0.1391
 9510SOL     OW32317   8.066   5.064   8.616  0.4613  0.4984 -0.4221
 9510SOL    HW132318   8.155   5.066   8.580  0.1993 -0.0621 -1.1412
 9510SOL    HW232319   8.028   5.148   8.590  0.4122  0.2689 -1.1245
 9511SOL     OW32320   3.471   7.194   1.724 -0.5142 -0.1881 -0.7710
 9511SOL    HW132321   3.487   7.101   1.737 -0.0283  0.1429  1.2121
 9511SOL    HW232322   3.439   7.226   1.808 -1.5771  1.2797 -1.6773
 9512SOL     OW32323   2.644   4.074   1.138 -0.1782  0.0366 -0.2590
 9512SOL    HW132324   2.720   4.125   1.111 -0.3402  1.2748  1.4600
 9512SOL    HW232325   2.570   4.134   1.131 -1.1868 -1.2907 -2.4105
 9513SOL     OW32326   6.678   3.366   0.477  0.2772  0.0047 -0.4131
 9513SOL    HW132327   6.664   3.278   0.443 -1.9172  0.6099 -1.2626
 9513SOL    HW232328   6.744   3.356   0.546  1.1580 -2.0367 -1.4827
 9514SOL     OW32329   3.527   3.214   7.156 -0.2750 -0.0980  0.4350
 9514SOL    HW132330   3.519   3.122   7.133 -1.7729 -0.2200  1.3513
 9514SOL    HW232331   3.621   3.227   7.173 -0.0886 -1.5119  0.5600
 9515SOL     OW32332   8.439   5.705   5.253  0.5290 -0.3534 -0.1459
 9515SOL    HW132333   8.375   5.662   5.196 -0.1847  1.3596 -0.7063
 9515SOL    HW232334   8.500   5.746   5.192 -0.3355  1.6404  0.2737
 9516SOL     OW32335   2.153   0.128   4.519 -0.1303 -1.0011  0.2498
 9516SOL    HW132336   2.090   0.201   4.512 -0.6281 -1.4355  0.1535
 9516SOL    HW232337   2.222   0.162   4.576 -1.1242 -0.9741  1.4851
 9517SOL     OW32338   3.013   4.356   0.895 -0.1430  0.2733  0.4852
 9517SOL    HW132339   2.982   4.425   0.836 -0.6649  1.1363  1.7401
 9517SOL    HW232340   3.085   4.315   0.847 -0.4448  1.0574 -0.6890
 9518SOL     OW32341   9.652   4.706   3.619  0.6844 -0.2175 -0.9327
 9518SOL    HW132342   9.557   4.709   3.618  0.3692  0.3082  4.1436
 9518SOL    HW232343   9.673   4.617   3.649  1.6418  0.1256 -0.5173
 9519SOL     OW32344   6.413   9.522   6.244 -0.2708  0.0532 -0.3546
 9519SOL    HW132345   6.493   9.496   6.197 -0.9713  1.7151 -2.6793
 9519SOL    HW232346   6.444   9.560   6.326  1.2512 -0.2297 -0.7660
 9520SOL     OW32347   0.702   1.991   9.864 -0.0414  0.4609 -0.6597
 9520SOL    HW132348   0.784   2.041   9.872  0.1707  0.1378 -0.7977
 9520SOL    HW232349   0.721   1.907   9.906 -0.6630  0.8004  0.3228
 9521SOL     OW32350   6.830   7.873   8.236  0.1913 -0.2658 -0.0619
 9521SOL    HW132351   6.776   7.936   8.285  1.3293  1.4417 -0.8864
 9521SOL    HW232352   6.915   7.917   8.228  1.2013 -2.1685 -0.2359
 9522SOL     OW32353   4.036   0.771   4.393  0.2658  0.1503  0.1994
 9522SOL    HW132354   3.946   0.805   4.390  0.7051  1.3087 -1.7470
 9522SOL    HW232355   4.056   0.749   4.302  2.5492  1.6068  0.2768
 9523SOL     OW32356   2.842   9.112   1.488  0.4506 -0.2172  0.0430
 9523SOL    HW132357   2.777   9.181   1.503  0.8004  0.1994 -0.3061
 9523SOL    HW232358   2.859   9.115   1.394 -0.5251 -1.7104 -0.2130
 9524SOL     OW32359   6.351   4.579   1.194  0.1856  0.0215  0.4872
 9524SOL    HW132360   6.360   4.493   1.236  1.5268 -1.5419 -2.6474
 9524SOL    HW232361   6.363   4.642   1.265 -0.6633 -2.3363  2.9034
 9525SOL     OW32362   6.688   6.179   1.899 -0.4397  0.0704  0.3960
 9525SOL    HW132363   6.623   6.110   1.916 -1.5008  1.1924  1.1179
 9525SOL    HW232364   6.664   6.214   1.813 -0.1898 -0.1529  0.2350
 9526SOL     OW32365   3.824   4.375   7.175  0.3549 -0.3550 -0.1818
 9526SOL    HW132366   3.815   4.376   7.080  1.2195 -2.4478 -0.3284
 9526SOL    HW232367   3.736   4.360   7.208 -0.1021  1.2446 -0.5630
 9527SOL     OW32368   3.459   8.685   0.220 -0.0018  0.5019  0.3864
 9527SOL    HW132369   3.366   8.695   0.201 -0.3111 -0.4754  1.2832
 9527SOL    HW232370   3.502   8.749   0.164 -1.0415 -0.4808 -1.6470
 9528SOL     OW32371   9.571   2.852   4.230  0.0306 -0.3613 -0.1267
 9528SOL    HW132372   9.561   2.943   4.201 -0.7260 -0.8893 -1.6374
 9528SOL    HW232373   9.581   2.858   4.325 -0.6735  1.2490 -0.1259
 9529SOL     OW32374  10.071  10.048   3.730 -0.1210  0.6808  0.1675
 9529SOL    HW132375  10.120   9.971   3.699 -1.5227 -1.0906  2.0568
 9529SOL    HW232376  10.131  10.094   3.788  0.3943  0.4513 -0.1749
 9530SOL     OW32377   0.610   6.550   9.337  0.4196  0.2599  0.2794
 9530SOL    HW132378   0.543   6.482   9.322  2.7642 -2.0797 -0.3220
 9530SOL    HW232379   0.679   6.505   9.385  2.4839  2.0052 -0.8899
 9531SOL     OW32380   9.292   8.313   1.016 -0.5826 -0.1577  0.1451
 9531SOL    HW132381   9.350   8.350   0.949 -0.9529 -0.7366 -0.5066
 9531SOL    HW232382   9.223   8.270   0.966 -1.9365  1.0533  0.9121
 9532SOL     OW32383   6.303   5.133   8.147 -0.7268  0.2678  0.4460
 9532SOL    HW132384   6.210   5.121   8.129 -0.2562 -1.5264 -1.1250
 9532SOL    HW232385   6.339   5.045   8.150  1.1013  0.9441 -0.0030
 9533SOL     OW32386   2.684   2.634   0.084  0.6179  0.3574  0.3071
 9533SOL    HW132387   2.678   2.727   0.105 -0.5332  0.5244 -0.6433
 9533SOL    HW232388   2.653   2.628  -0.006  1.2308 -0.8816  0.1554
 9534SOL     OW32389   8.211   3.655   9.937 -0.5895 -0.2035 -0.3071
 9534SOL    HW132390   8.142   3.721   9.935 -0.3514  0.0434 -0.3934
 9534SOL    HW232391   8.167   3.575   9.966 -1.2054 -0.4019 -1.6986
 9535SOL     OW32392   4.630   8.392   1.803  0.7702  0.1419 -0.1392
 9535SOL    HW132393   4.673   8.325   1.750  0.8492  0.5481 -0.6016
 9535SOL    HW232394   4.566   8.431   1.743  1.3662  1.1032 -0.1703
 9536SOL     OW32395   6.265   7.724   6.959  0.0519  0.0223  0.3994
 9536SOL    HW132396   6.323   7.728   7.034  1.2200 -2.3988 -0.2968
 9536SOL    HW232397   6.249   7.631   6.944  0.2755  0.3499 -2.6245
 9537SOL     OW32398   1.931   6.040   9.518 -0.2790 -0.2342 -0.1748
 9537SOL    HW132399   1.849   6.017   9.562 -1.4479  0.0468 -2.0871
 9537SOL    HW232400   1.969   5.956   9.492  0.0258 -0.3622  0.6566
 9538SOL     OW32401   9.783   5.426   5.966 -0.1970 -0.5895 -0.2574
 9538SOL    HW132402   9.817   5.348   5.924  0.3045 -0.4215 -0.1694
 9538SOL    HW232403   9.704   5.397   6.012 -0.0613 -1.0216 -0.2961
 9539SOL     OW32404   5.075   1.288   3.825 -0.0113 -0.1847  0.4738
 9539SOL    HW132405   5.066   1.327   3.738 -1.2243 -0.6476  0.3791
 9539SOL    HW232406   5.139   1.218   3.814 -0.9402 -0.9445 -0.3125
 9540SOL     OW32407   3.272   5.649   0.861  0.0554  0.1346  0.7034
 9540SOL    HW132408   3.284   5.638   0.955 -0.6862  0.6931  0.8738
 9540SOL    HW232409   3.184   5.686   0.852 -0.1220 -0.4759 -0.2502
 9541SOL     OW32410   4.656   8.100   0.316  0.3083 -0.3538  0.4646
 9541SOL    HW132411   4.736   8.048   0.319  0.6911 -0.1914 -2.7173
 9541SOL    HW232412   4.672   8.164   0.246 -1.4761  1.7661  1.8430
 9542SOL     OW32413   7.424   9.100   9.204  0.3997  0.0430  0.0803
 9542SOL    HW132414   7.335   9.073   9.182  0.6373 -0.3159 -0.4671
 9542SOL    HW232415   7.433   9.079   9.297 -0.4181  1.0265  0.4070
 9543SOL     OW32416   3.130   0.642  10.273  0.1335 -0.2568 -0.9920
 9543SOL    HW132417   3.149   0.726  10.316  1.6767 -0.1743 -1.7924
 9543SOL    HW232418   3.059   0.605  10.326  0.8510  0.5859  0.6418
 9544SOL     OW32419   2.531   0.054   7.859 -0.2029  0.1512  0.1462
 9544SOL    HW132420   2.575   0.036   7.942 -0.2418  1.1392  0.3959
 9544SOL    HW232421   2.439   0.060   7.881 -0.3402 -0.6461 -0.1631
 9545SOL     OW32422   6.099   3.213   6.372  0.3107 -0.2744  0.3424
 9545SOL    HW132423   6.193   3.218   6.392  0.9785  1.7594 -2.5623
 9545SOL    HW232424   6.058   3.268   6.439  1.2098 -0.8620  1.4242
 9546SOL     OW32425   9.575   9.452   5.380 -0.2722  0.0406  0.2955
 9546SOL    HW132426   9.590   9.534   5.334  0.5141 -0.1963  0.1095
 9546SOL    HW232427   9.663   9.419   5.400 -0.5715 -0.8282  0.2290
 9547SOL     OW32428   8.807   1.247   9.329  0.0439  0.0196  0.5737
 9547SOL    HW132429   8.843   1.272   9.414  0.6759 -2.2712  1.0626
 9547SOL    HW232430   8.799   1.329   9.281  3.0568  1.0229  1.5496
 9548SOL     OW32431   3.066   8.265   3.869  0.2168  0.2050 -0.1857
 9548SOL    HW132432   3.036   8.323   3.938 -0.9603 -0.2166 -0.3225
 9548SOL    HW232433   3.114   8.196   3.915  1.1103  0.9550  0.0255
 9549SOL     OW32434   8.377   4.887   4.987 -0.7946 -0.1394  0.1906
 9549SOL    HW132435   8.308   4.866   5.049 -0.5692 -0.3938  0.3583
 9549SOL    HW232436   8.415   4.969   5.018 -1.9083  0.7340 -0.6588
 9550SOL     OW32437   2.706   6.391   9.967 -0.4759  0.4638 -0.2339
 9550SOL    HW132438   2.671   6.455   9.906  0.9505 -0.0138 -1.6361
 9550SOL    HW232439   2.689   6.306   9.926  0.3900  0.1260  0.0639
 9551SOL     OW32440   2.891   5.232   9.452  0.2559  0.1560 -0.1758
 9551SOL    HW132441   2.870   5.214   9.361 -0.5283 -0.9805  0.2120
 9551SOL    HW232442   2.953   5.162   9.476 -2.1702 -1.7142  1.1071
 9552SOL     OW32443   6.225   6.959   3.715 -0.5049 -0.3527  0.5421
 9552SOL    HW132444   6.293   7.026   3.726 -0.8227 -0.3663  3.5095
 9552SOL    HW232445   6.152   7.006   3.675  0.6087  0.0526 -1.1429
 9553SOL     OW32446   8.795   1.220   8.694  0.3379  0.4221  0.0383
 9553SOL    HW132447   8.808   1.133   8.732 -2.2026 -0.6458 -1.2906
 9553SOL    HW232448   8.748   1.269   8.762  0.6914  0.3761  0.3210
 9554SOL     OW32449   2.937   8.182   8.335 -0.4323  0.0220 -0.6161
 9554SOL    HW132450   2.845   8.185   8.308  0.1442 -0.9812 -2.9162
 9554SOL    HW232451   2.971   8.268   8.311 -1.1226  1.1231  1.9785
 9555SOL     OW32452   4.981   9.172   5.849  0.1537  0.4533  0.1171
 9555SOL    HW132453   4.926   9.185   5.771  0.1097  1.0104  0.2331
 9555SOL    HW232454   4.922   9.189   5.923  0.2094 -0.0168  0.2694
 9556SOL     OW32455   2.400   6.961   8.232  0.4714  0.3865  0.5908
 9556SOL    HW132456   2.433   7.014   8.159  0.2758 -0.0730  0.1622
 9556SOL    HW232457   2.417   6.871   8.205 -1.7098  0.0911  0.0405
 9557SOL     OW32458   3.588   1.724   2.934  0.2852  0.2635 -0.0108
 9557SOL    HW132459   3.595   1.656   3.000 -2.6953 -0.2934 -0.1366
 9557SOL    HW232460   3.578   1.805   2.983 -1.5832 -0.1097  0.2991
 9558SOL     OW32461   8.468   9.206   6.074 -0.2303 -0.4251 -0.2634
 9558SOL    HW132462   8.477   9.113   6.098  0.2112 -0.6370 -1.1970
 9558SOL    HW232463   8.478   9.206   5.979 -1.7282  0.3945 -0.4460
 9559SOL     OW32464   8.442   6.964   4.239 -0.9476  0.0613 -0.1568
 9559SOL    HW132465   8.483   7.044   4.273  0.2141  0.5862 -2.5795
 9559SOL    HW232466   8.479   6.893   4.291  0.6904  0.8305 -0.2289
 9560SOL     OW32467   4.701   2.620  10.032 -0.5863  0.7733 -0.3294
 9560SOL    HW132468   4.684   2.621   9.938  0.5510 -2.2842 -0.7131
 9560SOL    HW232469   4.616   2.602  10.072 -0.9290  1.2523 -0.8315
 9561SOL     OW32470   9.351   5.764   0.611 -1.2942 -0.1551  0.3394
 9561SOL    HW132471   9.287   5.833   0.594 -1.1588  0.0773  0.7756
 9561SOL    HW232472   9.395   5.790   0.692  0.1519  0.2887 -0.5374
 9562SOL     OW32473   9.026   7.777   4.439 -0.0843  0.7113 -0.6147
 9562SOL    HW132474   9.083   7.819   4.503  0.6664 -1.1169 -0.0202
 9562SOL    HW232475   9.063   7.803   4.354  1.2523  0.1456 -0.2442
 9563SOL     OW32476   7.561   1.605   1.728 -0.2443 -0.2447 -0.4967
 9563SOL    HW132477   7.657   1.603   1.733 -0.2123  1.0505 -0.1203
 9563SOL    HW232478   7.542   1.654   1.648 -0.5894 -0.2986 -0.4504
 9564SOL     OW32479   8.304   7.538   4.744 -0.0445 -0.2079 -0.2235
 9564SOL    HW132480   8.346   7.620   4.769  2.7947 -1.6016 -0.0275
 9564SOL    HW232481   8.309   7.484   4.823  1.2035 -1.6720 -1.2452
 9565SOL     OW32482   1.905   0.521   8.825  0.2274  0.2373 -0.0252
 9565SOL    HW132483   1.956   0.479   8.756  0.0830 -1.0587  0.6160
 9565SOL    HW232484   1.837   0.457   8.847  0.0191  0.7922  1.0320
 9566SOL     OW32485   2.737   9.154   8.770  0.5437  0.0387 -0.4244
 9566SOL    HW132486   2.728   9.059   8.777  0.1330  0.0483 -0.7806
 9566SOL    HW232487   2.651   9.188   8.794  1.0534  0.3997  0.9995
 9567SOL     OW32488   5.641   0.321   7.689  0.2914  0.2930 -0.0977
 9567SOL    HW132489   5.736   0.324   7.697  0.2102  0.4513  0.8349
 9567SOL    HW232490   5.618   0.406   7.651  0.5369  0.1646 -0.5414
 9568SOL     OW32491   1.173   5.286   7.331 -0.1721 -0.8715  0.0157
 9568SOL    HW132492   1.182   5.198   7.294 -2.7488 -0.9790 -0.5680
 9568SOL    HW232493   1.125   5.272   7.413  2.6305 -0.2973  1.9002
 9569SOL     OW32494   4.131   6.207   2.508  0.0601 -0.0606 -0.6141
 9569SOL    HW132495   4.043   6.175   2.527 -0.0862 -0.7422 -2.3022
 9569SOL    HW232496   4.134   6.294   2.549 -1.2185 -0.2401 -0.1050
 9570SOL     OW32497   8.124   3.190   1.561 -0.4210  0.3270  0.1927
 9570SOL    HW132498   8.191   3.182   1.628  0.7788  1.0468 -0.8812
 9570SOL    HW232499   8.061   3.121   1.581  1.8709 -2.0141 -0.1685
 9571SOL     OW32500   0.673   6.612   0.909 -0.2469  0.5037 -0.2873
 9571SOL    HW132501   0.675   6.520   0.936  1.3600  0.2873 -1.0189
 9571SOL    HW232502   0.760   6.628   0.872 -0.8731  2.0143 -1.2100
 9572SOL     OW32503   5.406   6.591   8.395  0.0018 -0.2947 -0.3549
 9572SOL    HW132504   5.436   6.513   8.444 -2.5507 -0.5155  1.0558
 9572SOL    HW232505   5.397   6.658   8.462  2.0102  1.2628 -1.5434
 9573SOL     OW32506   3.855   2.308   2.918 -0.4629 -1.1911 -0.5649
 9573SOL    HW132507   3.862   2.383   2.977 -0.4622 -1.4661 -0.2136
 9573SOL    HW232508   3.905   2.238   2.961  0.3759 -1.1071 -1.3565
 9574SOL     OW32509   3.888   0.413   3.878 -0.4739  0.3446  0.2133
 9574SOL    HW132510   3.892   0.423   3.783 -1.1230  0.9918  0.2438
 9574SOL    HW232511   3.850   0.495   3.909 -0.4180  0.0738  1.0194
 9575SOL     OW32512   6.722   3.202   8.370 -0.0362 -0.7431 -0.0390
 9575SOL    HW132513   6.734   3.255   8.292 -1.8412 -0.2138 -0.0143
 9575SOL    HW232514   6.631   3.219   8.396  0.9034  0.2212  3.0063
 9576SOL     OW32515   5.203   8.585   9.049  0.3798 -0.1468 -0.4910
 9576SOL    HW132516   5.212   8.494   9.021  0.0944 -0.4908  0.4699
 9576SOL    HW232517   5.118   8.589   9.092  1.2477  0.0360  1.3224
 9577SOL     OW32518   2.363   4.900   1.474 -0.3378  0.4149 -0.4823
 9577SOL    HW132519   2.453   4.885   1.503 -0.0438 -0.6471 -1.8319
 9577SOL    HW232520   2.344   4.990   1.501  0.7959  0.3596  0.6273
 9578SOL     OW32521   5.961   6.695   6.785  0.0071 -0.0757 -0.1524
 9578SOL    HW132522   5.958   6.615   6.838 -1.9344 -0.4774 -0.7957
 9578SOL    HW232523   5.979   6.664   6.697  0.8236  0.3688 -0.1518
 9579SOL     OW32524   0.923   7.990   3.741  0.1676  0.4174 -0.1961
 9579SOL    HW132525   0.865   8.057   3.704 -0.0860  1.2005  1.5151
 9579SOL    HW232526   1.011   8.029   3.735  0.4142 -0.2698 -1.6734
 9580SOL     OW32527   2.785   2.185   0.281 -0.1260  0.4101  0.2907
 9580SOL    HW132528   2.752   2.170   0.370  1.3659  0.4921  0.8890
 9580SOL    HW232529   2.723   2.246   0.242 -0.4991  0.8122  1.4808
 9581SOL     OW32530   6.131   7.019   4.777  0.4422 -0.2167 -0.1488
 9581SOL    HW132531   6.196   7.006   4.708 -0.1446 -1.5259 -0.4993
 9581SOL    HW232532   6.047   7.001   4.734 -0.3113  2.6075 -0.0142
 9582SOL     OW32533   8.111   8.412   5.831  0.1907 -0.2028  0.2536
 9582SOL    HW132534   8.021   8.422   5.862  0.3114  0.2550  0.4763
 9582SOL    HW232535   8.164   8.448   5.902  0.5054  0.3367 -0.2468
 9583SOL     OW32536   8.993   3.986   4.148 -0.6138 -0.2110 -0.0127
 9583SOL    HW132537   9.086   4.006   4.163 -0.8047  0.4136  0.4025
 9583SOL    HW232538   8.947   4.039   4.214 -1.2292 -0.9852  0.1832
 9584SOL     OW32539   1.391   2.719   9.550 -0.1385  0.0908 -0.1801
 9584SOL    HW132540   1.372   2.658   9.622  1.1640 -2.1610 -1.5954
 9584SOL    HW232541   1.319   2.705   9.488 -0.0331  0.2524 -0.3396
 9585SOL     OW32542   2.588   9.032   3.418 -0.0658  0.3274  0.1929
 9585SOL    HW132543   2.620   9.119   3.392  0.0673  0.8965  2.1024
 9585SOL    HW232544   2.619   8.973   3.349  2.0401  1.4091  0.1601
 9586SOL     OW32545   0.049   3.291   5.817  0.1402 -0.1861 -0.3475
 9586SOL    HW132546  -0.022   3.354   5.807 -0.0923 -0.4368 -0.2690
 9586SOL    HW232547   0.088   3.311   5.902  0.8849  0.6848 -0.8698
 9587SOL     OW32548   3.141   2.992   0.012 -0.1628 -0.1747  0.3172
 9587SOL    HW132549   3.176   2.930   0.076  1.0589 -0.1558 -0.2982
 9587SOL    HW232550   3.048   2.969   0.005 -0.2491 -0.3841  1.8242
 9588SOL     OW32551   1.211  10.251   7.341  0.0198 -0.1664  0.2389
 9588SOL    HW132552   1.278  10.239   7.274 -0.1710  2.3374 -0.5101
 9588SOL    HW232553   1.207  10.167   7.386  1.7832 -1.2152 -1.3879
 9589SOL     OW32554   7.846   3.315   9.844  0.0688 -0.5662  0.4351
 9589SOL    HW132555   7.891   3.371   9.908  0.9544 -0.2004 -0.4769
 9589SOL    HW232556   7.917   3.267   9.801 -0.6348 -2.0292  0.8343
 9590SOL     OW32557   5.495   6.782   9.819 -0.4800  0.0362 -0.5730
 9590SOL    HW132558   5.463   6.833   9.893  0.9924 -2.5150  2.0334
 9590SOL    HW232559   5.582   6.818   9.801  0.1328 -0.8299  0.5711
 9591SOL     OW32560   4.792   5.652   2.774  0.4265 -0.1508  0.3934
 9591SOL    HW132561   4.734   5.595   2.723  0.0368  0.0092  0.6516
 9591SOL    HW232562   4.786   5.737   2.731  1.4987 -0.4391 -0.3753
 9592SOL     OW32563   8.591   2.742   4.756  0.1811  0.2294  0.4357
 9592SOL    HW132564   8.544   2.692   4.690 -0.6788 -0.1234  1.2930
 9592SOL    HW232565   8.640   2.676   4.806  1.3183  0.5544 -0.2072
 9593SOL     OW32566   8.928   6.465   7.582  0.0675 -0.0727 -0.5527
 9593SOL    HW132567   8.998   6.460   7.517  0.7151  0.1622  0.1090
 9593SOL    HW232568   8.929   6.380   7.625  1.8571  0.8283  1.3544
 9594SOL     OW32569   9.585   1.044   1.854  0.1195 -0.9524 -0.4055
 9594SOL    HW132570   9.673   1.058   1.818  1.5368 -0.7303  2.7928
 9594SOL    HW232571   9.596   1.058   1.948 -3.7560  0.9591 -0.0532
 9595SOL     OW32572   9.026  10.255   7.660  0.3525  0.3700 -0.6779
 9595SOL    HW132573   8.941  10.299   7.668  0.4596  0.6340 -0.9832
 9595SOL    HW232574   9.086  10.324   7.634  0.9041  0.4284  0.7047
 9596SOL     OW32575   0.904   8.840   6.242 -0.4512  0.0720  0.1254
 9596SOL    HW132576   0.845   8.888   6.184 -0.2189 -0.5240 -0.6160
 9596SOL    HW232577   0.913   8.897   6.319 -0.6071  0.9662 -0.4968
 9597SOL     OW32578   8.883   0.691   8.507 -0.1102  0.2246  0.4239
 9597SOL    HW132579   8.964   0.690   8.558 -0.9774  0.8924  1.8892
 9597SOL    HW232580   8.846   0.604   8.518  0.5612 -0.2071 -0.5616
 9598SOL     OW32581   0.629   4.818   9.636  0.0455 -0.0193 -0.1930
 9598SOL    HW132582   0.591   4.790   9.720  0.8273 -0.4045  0.0384
 9598SOL    HW232583   0.698   4.755   9.619 -0.4811 -0.2904 -1.4279
 9599SOL     OW32584   6.826   1.806   3.245  0.1768 -0.4241  0.2056
 9599SOL    HW132585   6.889   1.805   3.173  1.4442  0.0382  1.2593
 9599SOL    HW232586   6.782   1.721   3.240 -0.4049 -0.0625 -1.6250
 9600SOL     OW32587   0.341   3.559   4.366 -0.2206  0.4743  0.5181
 9600SOL    HW132588   0.417   3.610   4.337  0.3441 -0.8901 -0.5010
 9600SOL    HW232589   0.370   3.517   4.447 -1.3019  3.1077  2.4247
 9601SOL     OW32590   3.185   5.358   3.852 -0.4072 -0.3279  0.5144
 9601SOL    HW132591   3.153   5.363   3.762  1.8166  1.3458 -0.2834
 9601SOL    HW232592   3.108   5.376   3.906 -1.1425  2.3268 -1.2197
 9602SOL     OW32593   4.473   0.002   3.529 -0.2649  0.0830 -0.2431
 9602SOL    HW132594   4.391   0.014   3.482 -1.1920  0.1302  1.3167
 9602SOL    HW232595   4.539   0.044   3.474 -1.6048  1.9156 -0.5246
 9603SOL     OW32596   4.869   2.174   1.655  0.4008  0.8568 -0.0649
 9603SOL    HW132597   4.869   2.094   1.603  1.4595  0.1106  1.0295
 9603SOL    HW232598   4.866   2.245   1.590 -0.9147 -0.0308 -1.0478
 9604SOL     OW32599   1.495  10.100   0.548  0.1988  0.4021 -0.1520
 9604SOL    HW132600   1.489  10.191   0.517  0.7544  0.2430 -0.7441
 9604SOL    HW232601   1.473  10.047   0.472  1.2801  0.0086 -0.2116
 9605SOL     OW32602   8.086   7.839   2.744 -0.6697 -0.3189  0.5599
 9605SOL    HW132603   8.166   7.799   2.777  0.8457  3.0833  1.4017
 9605SOL    HW232604   8.106   7.862   2.653 -0.8886  0.0725  0.6076
 9606SOL     OW32605   1.772   0.808   1.566 -0.0483  0.1499  0.1432
 9606SOL    HW132606   1.779   0.889   1.515  2.3915  0.4387  0.7813
 9606SOL    HW232607   1.681   0.804   1.594 -0.1464  2.9467  0.4798
 9607SOL     OW32608  10.059   6.203   8.709 -0.2896 -0.1628 -0.4663
 9607SOL    HW132609  10.028   6.140   8.644 -0.1635 -0.0417 -0.6441
 9607SOL    HW232610  10.024   6.171   8.792 -1.4670  0.3500 -0.7505
 9608SOL     OW32611   9.103   8.264   1.212  0.1716  0.2925 -0.4574
 9608SOL    HW132612   9.019   8.270   1.165 -0.8930  1.4372  1.4504
 9608SOL    HW232613   9.166   8.305   1.153 -1.5201  3.8149 -0.1185
 9609SOL     OW32614   1.532   8.026   0.564  0.3284 -0.7121  0.0223
 9609SOL    HW132615   1.502   8.063   0.647  0.1792 -0.1895 -0.2587
 9609SOL    HW232616   1.620   7.993   0.582  1.1236  1.2368 -0.1026
 9610SOL     OW32617   8.926   1.116   1.436 -0.2196 -0.0567  0.0527
 9610SOL    HW132618   8.884   1.033   1.413 -0.7539 -0.1685  1.3049
 9610SOL    HW232619   8.979   1.094   1.513  0.2752  0.5917 -0.0990
 9611SOL     OW32620   1.650   3.435   6.345  0.5603 -0.0140  0.0865
 9611SOL    HW132621   1.613   3.420   6.259 -0.1817  1.0533  0.2015
 9611SOL    HW232622   1.743   3.413   6.336  0.3702 -0.4600 -0.8193
 9612SOL     OW32623   6.876   3.382   7.638  0.0771  0.1937  0.5530
 9612SOL    HW132624   6.846   3.355   7.725  1.2247 -0.0325  0.9056
 9612SOL    HW232625   6.938   3.313   7.613  0.7556  0.9528  0.1374
 9613SOL     OW32626   4.093   1.614   6.268  0.5063  0.3077 -0.3842
 9613SOL    HW132627   4.126   1.532   6.306  2.1826  1.2608  0.3412
 9613SOL    HW232628   4.064   1.665   6.343 -0.7700  0.3021 -0.8572
 9614SOL     OW32629   7.843   6.375   6.936  0.4955 -0.4020 -0.1861
 9614SOL    HW132630   7.905   6.444   6.911 -1.5834  1.7134  0.1330
 9614SOL    HW232631   7.791   6.360   6.857 -0.5473  0.1105  0.3777
 9615SOL     OW32632   1.208   6.038   6.901 -1.0964 -0.0972 -0.0148
 9615SOL    HW132633   1.150   5.962   6.897 -0.3930 -0.6270 -0.1249
 9615SOL    HW232634   1.223   6.052   6.995 -0.5849 -0.5868 -0.0202
 9616SOL     OW32635   8.324   5.663  10.338  0.1264  0.1252  0.0730
 9616SOL    HW132636   8.247   5.719  10.334  0.8051  1.0446 -0.2571
 9616SOL    HW232637   8.352   5.653  10.247 -0.0189 -0.8023  0.1212
 9617SOL     OW32638   2.624   9.380   1.057  0.4196 -0.3729 -0.4355
 9617SOL    HW132639   2.701   9.329   1.083 -1.0637 -2.1490  0.7099
 9617SOL    HW232640   2.597   9.424   1.138 -0.6277 -0.9840 -0.4384
 9618SOL     OW32641   9.342   5.220   0.083  0.4112 -0.4655  0.2748
 9618SOL    HW132642   9.280   5.220   0.010  2.0242  3.2312 -1.3955
 9618SOL    HW232643   9.288   5.206   0.160 -1.6844 -2.4063 -1.3845
 9619SOL     OW32644   2.579   5.176   4.733  0.0468 -0.6680 -0.1373
 9619SOL    HW132645   2.558   5.127   4.813 -3.0222  0.9943  0.2196
 9619SOL    HW232646   2.541   5.125   4.662 -2.1865  0.5028  0.1272
 9620SOL     OW32647   4.138   0.528   8.897 -0.3123  0.0277 -0.3079
 9620SOL    HW132648   4.195   0.518   8.973  0.7154 -0.6833 -1.1465
 9620SOL    HW232649   4.088   0.608   8.915  0.4339  0.2777  0.7672
 9621SOL     OW32650   7.295   8.376   4.680 -0.0085  0.2174 -0.2882
 9621SOL    HW132651   7.369   8.391   4.621  0.6163 -0.3693  0.3157
 9621SOL    HW232652   7.236   8.319   4.631 -0.7857  1.8471 -1.3224
 9622SOL     OW32653   2.569   8.990   4.986 -0.6699  0.4280  0.3184
 9622SOL    HW132654   2.581   8.966   4.894 -0.1082 -0.7364  0.6682
 9622SOL    HW232655   2.555   9.084   4.985 -0.5597  0.4456 -0.9529
 9623SOL     OW32656   8.252   4.743   4.776 -0.0855 -0.0123 -0.2539
 9623SOL    HW132657   8.303   4.792   4.840 -1.6955  1.0230  0.3208
 9623SOL    HW232658   8.204   4.810   4.728 -0.7010 -0.9120 -0.9254
 9624SOL     OW32659   6.788   5.435   3.556 -0.1741 -0.2839 -0.2764
 9624SOL    HW132660   6.774   5.344   3.529  0.1303 -0.5760  0.4986
 9624SOL    HW232661   6.794   5.430   3.652  1.3883  0.3288 -0.3043
 9625SOL     OW32662   0.979   2.982   2.662 -0.2716 -0.1266 -0.5413
 9625SOL    HW132663   1.029   2.975   2.581  0.7468 -1.4464  0.1694
 9625SOL    HW232664   0.985   3.075   2.684  5.0412 -0.5328  1.3375
 9626SOL     OW32665   9.375   9.187   0.859 -0.7448  0.4084  0.4623
 9626SOL    HW132666   9.290   9.144   0.873  0.1569 -1.5522  0.3197
 9626SOL    HW232667   9.373   9.213   0.767 -0.6458 -1.0385  0.0160
 9627SOL     OW32668   8.340   1.051   4.691 -0.4486 -0.1299 -0.3132
 9627SOL    HW132669   8.388   1.107   4.630 -2.1112  0.0079 -1.5565
 9627SOL    HW232670   8.314   1.110   4.762  0.7484 -0.1066  0.1324
 9628SOL     OW32671   8.073   6.744   9.415  0.3068  0.0200  0.4635
 9628SOL    HW132672   8.043   6.831   9.441 -0.8920 -0.0773 -0.5082
 9628SOL    HW232673   7.993   6.695   9.398  0.9999 -0.5369 -1.3667
 9629SOL     OW32674   7.012   1.013  10.280 -0.0769  0.1940  0.0965
 9629SOL    HW132675   6.943   0.981  10.338 -0.1875 -0.0676 -0.1804
 9629SOL    HW232676   7.094   0.991  10.325 -0.1540 -0.4374 -0.0726
 9630SOL     OW32677   3.956   9.330   8.140 -0.3331 -0.0163 -0.0777
 9630SOL    HW132678   3.936   9.415   8.181 -0.9173  0.3944 -1.1648
 9630SOL    HW232679   4.045   9.311   8.167 -0.4295  0.6166  0.7330
 9631SOL     OW32680   7.786   0.591   2.885  0.2898  0.1351 -0.1712
 9631SOL    HW132681   7.738   0.669   2.914  0.4012 -0.0894  0.6172
 9631SOL    HW232682   7.728   0.518   2.906  0.4320 -0.0410 -0.3914
 9632SOL     OW32683   5.564   3.720   2.314  0.1460 -0.1624  0.0482
 9632SOL    HW132684   5.565   3.815   2.302  0.0057 -0.1635  0.0238
 9632SOL    HW232685   5.474   3.695   2.293 -0.0803 -0.1785  0.9969
 9633SOL     OW32686   4.573   1.768   1.986  0.4478 -0.2679 -0.0709
 9633SOL    HW132687   4.601   1.854   1.957  0.2220 -0.1346  0.1016
 9633SOL    HW232688   4.545   1.781   2.077 -0.8128 -0.2544 -0.4437
 9634SOL     OW32689   7.383   2.862   9.854  0.3492 -0.0835 -0.0416
 9634SOL    HW132690   7.298   2.906   9.843  0.2978 -0.2033 -0.1309
 9634SOL    HW232691   7.381   2.792   9.789  1.2604  1.0234 -1.3321
 9635SOL     OW32692   1.811   9.488   8.639 -0.3317 -0.1530  0.3612
 9635SOL    HW132693   1.895   9.443   8.647 -1.0933 -1.6465  0.4373
 9635SOL    HW232694   1.823   9.570   8.686  2.0419  1.1892 -2.2624
 9636SOL     OW32695   9.864   2.728   6.029  0.4350 -0.1208 -0.4203
 9636SOL    HW132696   9.931   2.677   6.075  0.4603 -0.8380 -1.2312
 9636SOL    HW232697   9.894   2.729   5.938 -0.4917 -0.1774 -0.7314
 9637SOL     OW32698   1.844   3.997   9.724  0.1398  0.1796  0.2806
 9637SOL    HW132699   1.826   4.031   9.637  1.3255  0.3523  0.0918
 9637SOL    HW232700   1.774   3.933   9.740 -0.0141  0.0565 -0.8353
 9638SOL     OW32701   4.446   2.096   2.359  0.4675 -0.6368  0.0058
 9638SOL    HW132702   4.535   2.064   2.344  0.5959  0.5716 -2.2188
 9638SOL    HW232703   4.389   2.023   2.337  0.8604 -0.7673 -0.5771
 9639SOL     OW32704   9.123   7.524   1.144 -0.3059 -0.1483 -0.0240
 9639SOL    HW132705   9.046   7.577   1.122  0.4751  0.0762 -2.4750
 9639SOL    HW232706   9.181   7.584   1.189 -0.8734  0.1178  0.3729
 9640SOL     OW32707   1.878   1.553   2.298 -0.2262 -0.3953  0.2184
 9640SOL    HW132708   1.912   1.502   2.225  1.2204  0.2527  0.4071
 9640SOL    HW232709   1.851   1.636   2.260 -0.5179 -0.4731  0.2529
 9641SOL     OW32710   9.588   2.574   1.840 -0.1729 -0.2231 -0.2854
 9641SOL    HW132711   9.528   2.606   1.772 -0.1918 -1.9738 -1.1730
 9641SOL    HW232712   9.583   2.639   1.909 -3.6407 -0.5787 -0.0106
 9642SOL     OW32713   1.450   0.786   0.686  0.3112  0.6390  0.0676
 9642SOL    HW132714   1.411   0.704   0.715 -0.2212  0.7234 -0.4038
 9642SOL    HW232715   1.543   0.778   0.708 -0.2586  1.2679  3.0859
 9643SOL     OW32716   8.229   5.870   7.298  0.2187  0.3465  0.0840
 9643SOL    HW132717   8.259   5.815   7.370 -0.1541 -0.2891 -0.2408
 9643SOL    HW232718   8.137   5.885   7.316  0.3267  0.8979  0.1896
 9644SOL     OW32719   6.264   6.886   0.953 -0.6236 -0.4258 -0.4865
 9644SOL    HW132720   6.327   6.858   1.020 -1.8443 -1.9915  0.0577
 9644SOL    HW232721   6.253   6.980   0.969  0.0026 -0.5348  0.7532
 9645SOL     OW32722   9.612   8.719   0.389  0.0739 -0.3072  0.3276
 9645SOL    HW132723   9.646   8.649   0.332  1.2043  0.7332 -0.3281
 9645SOL    HW232724   9.562   8.673   0.456 -0.1301 -1.6723 -0.7096
 9646SOL     OW32725   0.756   0.052   0.740 -0.1966  0.4580 -0.3157
 9646SOL    HW132726   0.674   0.075   0.785 -1.1900 -2.3362 -0.4441
 9646SOL    HW232727   0.735   0.059   0.647 -0.5078 -0.7732 -0.3557
 9647SOL     OW32728   3.527   8.482   5.635  0.1916  0.2296 -0.3990
 9647SOL    HW132729   3.526   8.543   5.560  0.1364  0.1266 -0.4814
 9647SOL    HW232730   3.564   8.534   5.706 -0.6481  0.6258 -0.2393
 9648SOL     OW32731   2.196   7.164   6.121  0.2138  0.1119 -0.4845
 9648SOL    HW132732   2.150   7.123   6.047  0.4973  2.3943 -2.0627
 9648SOL    HW232733   2.157   7.124   6.199 -0.3454 -2.1692 -1.8302
 9649SOL     OW32734   3.864   9.531   1.334 -0.0282  0.4175  0.4432
 9649SOL    HW132735   3.814   9.553   1.412  1.1635  0.7126  1.1402
 9649SOL    HW232736   3.880   9.616   1.291  1.8096  0.6192  1.4390
 9650SOL     OW32737   2.791  10.066   2.061 -0.3162  0.3771  0.3652
 9650SOL    HW132738   2.787  10.026   1.973  0.1669  0.5630  0.2555
 9650SOL    HW232739   2.711  10.035   2.104 -0.4586  0.1152 -0.0693
 9651SOL     OW32740   0.851   8.307   3.173  0.4159 -0.1966  0.0310
 9651SOL    HW132741   0.828   8.366   3.245 -2.8805 -1.3411  0.0748
 9651SOL    HW232742   0.911   8.358   3.119 -1.2122  2.7541  0.7681
 9652SOL     OW32743   3.837   5.407   1.968  0.3039 -0.1336  0.3852
 9652SOL    HW132744   3.821   5.380   1.877  0.6489 -0.2473  0.3589
 9652SOL    HW232745   3.755   5.387   2.013 -1.0606  2.7717 -0.5526
 9653SOL     OW32746   7.757   2.514   6.599  0.1974 -0.7340 -0.5745
 9653SOL    HW132747   7.694   2.461   6.549 -0.7581  0.9368 -1.2148
 9653SOL    HW232748   7.803   2.450   6.653 -2.0577 -2.0525 -0.0683
 9654SOL     OW32749   4.574   0.223   8.204  0.2888  0.3479 -0.1837
 9654SOL    HW132750   4.634   0.153   8.231 -2.7873 -1.1602  3.6992
 9654SOL    HW232751   4.624   0.303   8.218  2.4915 -0.8807 -0.5011
 9655SOL     OW32752   9.795   8.045   8.131  0.3923 -0.5494 -0.1303
 9655SOL    HW132753   9.806   8.049   8.036 -0.3036 -0.1390 -0.2028
 9655SOL    HW232754   9.734   7.972   8.145  1.0802 -1.1026  0.0669
 9656SOL     OW32755   7.928   4.301   5.120  0.0079  0.3470  0.5720
 9656SOL    HW132756   8.018   4.319   5.093  0.7272 -1.1574  1.8036
 9656SOL    HW232757   7.937   4.257   5.205 -1.8856  0.0256  0.6454
 9657SOL     OW32758   5.608   1.397   6.180 -0.6956  0.0144 -0.0087
 9657SOL    HW132759   5.579   1.335   6.113 -3.3985  0.7364  0.3749
 9657SOL    HW232760   5.657   1.343   6.242 -0.4849 -1.1659 -1.1416
 9658SOL     OW32761   1.377   4.994   8.448  0.1066  0.7467 -0.3669
 9658SOL    HW132762   1.384   4.955   8.535 -2.7895 -1.2962 -0.9143
 9658SOL    HW232763   1.336   5.079   8.464  1.1672  1.1456  0.3648
 9659SOL     OW32764   0.702   8.755   4.247 -0.4696 -0.8023 -0.1676
 9659SOL    HW132765   0.636   8.824   4.251 -1.5938 -1.8395 -0.4517
 9659SOL    HW232766   0.656   8.679   4.211  0.7984 -1.6435 -0.0772
 9660SOL     OW32767   6.398   6.350   4.506  0.0297 -0.4958 -0.3729
 9660SOL    HW132768   6.379   6.310   4.421  0.7394  0.4184 -0.9761
 9660SOL    HW232769   6.358   6.437   4.501  1.4630  0.1872 -0.4106
 9661SOL     OW32770   1.413   5.884   3.407 -0.8750  0.1174  0.6797
 9661SOL    HW132771   1.450   5.939   3.476 -0.3059  0.9296 -0.2442
 9661SOL    HW232772   1.322   5.912   3.401 -1.3216 -0.9343  2.0289
 9662SOL     OW32773   7.495   5.419   4.954  0.3330  0.2079  0.7676
 9662SOL    HW132774   7.527   5.507   4.933 -0.2258  0.6781  1.7994
 9662SOL    HW232775   7.568   5.377   4.998  1.3422 -0.6151 -1.5311
 9663SOL     OW32776   0.049   5.551   1.226 -0.0516 -0.3365  0.0037
 9663SOL    HW132777   0.011   5.588   1.306 -0.2623  1.2986 -0.8098
 9663SOL    HW232778   0.127   5.605   1.210  0.2736 -0.9823 -0.6168
 9664SOL     OW32779   8.412   4.692   0.397  0.2422 -0.2318 -0.4652
 9664SOL    HW132780   8.469   4.706   0.321  0.0215  0.4037 -0.5145
 9664SOL    HW232781   8.323   4.698   0.362  0.1130 -1.6822 -0.4770
 9665SOL     OW32782   9.335   5.492   3.591 -0.1639  0.1781 -1.3216
 9665SOL    HW132783   9.325   5.542   3.673  0.2738  0.5307 -1.4802
 9665SOL    HW232784   9.246   5.467   3.568 -0.2323 -0.5082 -0.3751
 9666SOL     OW32785   8.197   2.655   4.074 -0.5005 -0.0852  0.4374
 9666SOL    HW132786   8.132   2.704   4.023 -0.3879 -0.8892 -0.5036
 9666SOL    HW232787   8.267   2.718   4.090 -0.5885  0.2207 -0.3256
 9667SOL     OW32788   1.118   3.915   5.667  0.3858  0.3472  0.3007
 9667SOL    HW132789   1.159   3.876   5.744 -0.6013  0.9441  1.1475
 9667SOL    HW232790   1.147   3.860   5.594 -1.4763 -2.4755  1.4957
 9668SOL     OW32791   7.127   7.437   6.441  0.3538 -0.2248  0.2921
 9668SOL    HW132792   7.084   7.450   6.357  0.9809  0.2199  0.0333
 9668SOL    HW232793   7.140   7.342   6.447 -0.1976 -0.3104  0.1496
 9669SOL     OW32794   5.391   8.975   1.750 -0.1331  0.2913 -0.3433
 9669SOL    HW132795   5.411   8.898   1.697  1.5618  1.6790 -1.8381
 9669SOL    HW232796   5.420   8.952   1.838 -0.0049 -0.9189 -0.6871
 9670SOL     OW32797   1.519   3.188   8.874 -0.1166  0.5423  0.0165
 9670SOL    HW132798   1.544   3.243   8.948  2.3969  1.1619 -1.1909
 9670SOL    HW232799   1.527   3.098   8.906  0.0070  0.8161  0.7654
 9671SOL     OW32800   9.958   9.030   3.924 -0.7457  0.3926 -0.1472
 9671SOL    HW132801   9.915   9.112   3.949 -3.1481 -0.6951 -0.4046
 9671SOL    HW232802   9.979   8.988   4.007  1.4356  1.6232  0.0138
 9672SOL     OW32803   0.988   8.421   9.898  0.7041  0.1374  0.2680
 9672SOL    HW132804   0.940   8.487   9.948 -0.1832 -0.6908  0.5380
 9672SOL    HW232805   1.037   8.471   9.832 -1.3228  0.9488 -0.6964
 9673SOL     OW32806   8.145   1.274   4.693  0.1883 -0.3119  0.0172
 9673SOL    HW132807   8.223   1.328   4.705  1.5958 -2.0427 -0.8777
 9673SOL    HW232808   8.143   1.255   4.599 -1.2787 -0.3814  0.0298
 9674SOL     OW32809   3.551   2.475   8.020 -0.7972 -0.5730 -0.0488
 9674SOL    HW132810   3.615   2.406   8.041 -0.5803 -0.3685 -0.0335
 9674SOL    HW232811   3.536   2.520   8.104 -1.1512 -0.7791 -0.0012
 9675SOL     OW32812   5.984   4.168   1.479  0.2291  0.2170 -0.1259
 9675SOL    HW132813   6.075   4.144   1.492  0.1499 -1.3893 -2.0596
 9675SOL    HW232814   5.980   4.201   1.389 -1.2541 -0.6129 -0.4024
 9676SOL     OW32815   2.424   4.837   8.889 -0.0934 -0.3816 -0.3262
 9676SOL    HW132816   2.339   4.824   8.931 -0.6831  1.1910 -0.9575
 9676SOL    HW232817   2.463   4.911   8.935  0.0915  0.1251 -1.2650
 9677SOL     OW32818   7.344   8.242   9.681 -0.2839  0.0726 -0.0275
 9677SOL    HW132819   7.320   8.157   9.645 -1.7407  0.5854 -0.3349
 9677SOL    HW232820   7.378   8.222   9.768  1.2853 -0.9815 -0.8358
 9678SOL     OW32821   7.557   5.131   9.960 -0.4144 -0.0091 -0.0719
 9678SOL    HW132822   7.495   5.059   9.957 -0.5924  0.0546  1.2665
 9678SOL    HW232823   7.514   5.198  10.013  0.0274  0.8017 -0.7181
 9679SOL     OW32824   9.966   0.639   1.134 -0.1583 -0.0812  0.1380
 9679SOL    HW132825  10.052   0.597   1.135 -1.0981 -2.1957  2.4542
 9679SOL    HW232826   9.983   0.727   1.100  2.7359 -0.7189 -0.3471
 9680SOL     OW32827   9.542   0.619   5.327  0.0645 -0.6065 -0.1506
 9680SOL    HW132828   9.495   0.658   5.253 -0.6088 -2.3325 -0.6736
 9680SOL    HW232829   9.631   0.652   5.318  0.2227 -1.4039 -2.2606
 9681SOL     OW32830   6.394   2.843   9.887 -0.1226 -0.0244 -0.4645
 9681SOL    HW132831   6.316   2.884   9.851 -0.8346 -1.1110 -0.2122
 9681SOL    HW232832   6.446   2.820   9.811  0.0402  0.8394 -0.6276
 9682SOL     OW32833   7.200   8.118   7.097  0.7085 -0.0550 -0.0022
 9682SOL    HW132834   7.245   8.174   7.161 -2.4596  0.9083  1.5617
 9682SOL    HW232835   7.189   8.174   7.020 -1.1677  1.0737  1.0342
 9683SOL     OW32836   0.214   2.090   1.885  0.2245 -0.2161 -0.1464
 9683SOL    HW132837   0.258   2.005   1.895 -0.6874 -0.4807  2.4806
 9683SOL    HW232838   0.137   2.071   1.832  0.4572 -0.8889 -0.2498
 9684SOL     OW32839   4.888   2.913  10.023  0.7057 -0.1047  0.1047
 9684SOL    HW132840   4.865   2.820  10.031  1.1965 -0.2446 -0.1191
 9684SOL    HW232841   4.935   2.919   9.941 -2.8919  1.0503 -2.1053
 9685SOL     OW32842   9.019   0.485   3.213  0.1939  0.0577  0.1641
 9685SOL    HW132843   9.001   0.565   3.264  0.0265 -0.5606  1.1075
 9685SOL    HW232844   8.987   0.414   3.269  1.5112 -0.7646 -0.0877
 9686SOL     OW32845   7.826   7.533   8.342 -0.4921  0.1421  0.6236
 9686SOL    HW132846   7.861   7.501   8.425 -1.6122  0.1744  1.1141
 9686SOL    HW232847   7.745   7.483   8.329 -0.0922 -0.2060 -0.6813
 9687SOL     OW32848   2.046   7.334   4.784  0.5735  0.1426 -0.2779
 9687SOL    HW132849   2.090   7.409   4.743  0.2120  0.4351 -0.1436
 9687SOL    HW232850   1.965   7.371   4.820  0.3023 -0.3489 -0.3675
 9688SOL     OW32851   3.830   6.815   3.600 -0.1517  0.1672 -0.2565
 9688SOL    HW132852   3.748   6.806   3.649  0.1262 -1.6079 -0.0406
 9688SOL    HW232853   3.880   6.879   3.650 -1.0931  0.7213  0.0211
 9689SOL     OW32854   2.383   2.262   2.955 -0.0313 -0.0117 -0.0990
 9689SOL    HW132855   2.336   2.333   3.000  1.1542  0.0524  1.1325
 9689SOL    HW232856   2.452   2.307   2.905  0.9738 -0.2730  0.9984
 9690SOL     OW32857   3.333   4.422   3.370  0.2107 -0.0491  0.3757
 9690SOL    HW132858   3.356   4.329   3.368 -0.7001 -0.2849 -1.1845
 9690SOL    HW232859   3.401   4.463   3.422  2.0832 -1.2187 -1.0215
 9691SOL     OW32860   5.159   4.892   8.614 -0.3878 -0.6943  0.3081
 9691SOL    HW132861   5.173   4.957   8.682 -1.8012  0.7153 -0.6865
 9691SOL    HW232862   5.224   4.913   8.547 -1.1257 -0.0176 -0.2038
 9692SOL     OW32863   7.191   1.352   8.184  0.1584 -0.5963  0.2217
 9692SOL    HW132864   7.256   1.286   8.159  2.6522  1.4575  0.7836
 9692SOL    HW232865   7.199   1.420   8.117 -3.1286 -1.1839 -0.9716
 9693SOL     OW32866   4.059   8.706   1.169 -0.2946  0.4738 -0.2791
 9693SOL    HW132867   4.017   8.624   1.144  0.1721 -0.1687  1.0248
 9693SOL    HW232868   4.083   8.695   1.261  3.0652  0.6861 -1.0167
 9694SOL     OW32869   0.683   1.915   1.601 -0.1681 -0.1356 -0.2014
 9694SOL    HW132870   0.703   1.894   1.510  0.4454  1.1855 -0.3927
 9694SOL    HW232871   0.597   1.874   1.617 -1.2234  1.2383 -1.9863
 9695SOL     OW32872   7.620   5.774   2.477  0.2223  0.3499 -0.4430
 9695SOL    HW132873   7.665   5.756   2.559 -0.4094  0.3831 -0.0803
 9695SOL    HW232874   7.689   5.802   2.416  0.7418 -0.0556 -0.0388
 9696SOL     OW32875   0.771   5.283   6.486 -0.5994  0.0374  0.2221
 9696SOL    HW132876   0.689   5.323   6.515 -1.2269  0.7179 -2.3071
 9696SOL    HW232877   0.807   5.345   6.423  0.2149 -1.7463 -1.1350
 9697SOL     OW32878   2.497   1.186   3.041  0.4946  0.7251 -0.2479
 9697SOL    HW132879   2.450   1.259   3.000 -0.3623  1.0016  1.1423
 9697SOL    HW232880   2.430   1.118   3.051  0.8566  0.4088  0.0415
 9698SOL     OW32881  10.172   5.543   2.051 -0.1246 -0.5587 -0.1943
 9698SOL    HW132882  10.237   5.606   2.082 -1.1917 -0.0256  1.0680
 9698SOL    HW232883  10.211   5.458   2.067  0.0548 -0.2572  1.0471
 9699SOL     OW32884   5.241   0.641   1.314 -0.2431  0.2005  0.4228
 9699SOL    HW132885   5.291   0.679   1.387  2.0589 -0.0996 -0.8936
 9699SOL    HW232886   5.210   0.557   1.347 -0.5823  0.7345  1.5306
 9700SOL     OW32887   0.616   9.631   6.727  0.1214 -0.1382  0.1066
 9700SOL    HW132888   0.524   9.644   6.703  0.5092  1.1997 -0.7989
 9700SOL    HW232889   0.621   9.657   6.819  0.1857  3.2094 -0.7296
 9701SOL     OW32890   0.223   1.928   1.399 -0.5493  0.1715  0.3412
 9701SOL    HW132891   0.213   2.023   1.407  0.7377  0.5800 -1.9417
 9701SOL    HW232892   0.208   1.910   1.307 -0.2347 -1.7812  0.6295
 9702SOL     OW32893   4.297   9.606   7.751  0.1381 -0.3167 -0.3652
 9702SOL    HW132894   4.296   9.624   7.657 -0.9354  0.7208 -0.1714
 9702SOL    HW232895   4.208   9.621   7.780  0.6315  0.1879  0.9717
 9703SOL     OW32896   1.150   1.278   3.526  0.0256 -0.0412 -0.3811
 9703SOL    HW132897   1.243   1.300   3.532 -0.4903  2.0311  0.7851
 9703SOL    HW232898   1.121   1.318   3.444 -0.2054  0.8377  0.1234
 9704SOL     OW32899   6.128   6.838   8.641 -0.0163 -0.4080 -0.2144
 9704SOL    HW132900   6.185   6.766   8.613 -0.4321 -0.5029 -0.8469
 9704SOL    HW232901   6.045   6.795   8.665 -0.2161 -0.1552 -0.4459
 9705SOL     OW32902   8.421   2.354   2.355  0.0407  0.7374 -0.3344
 9705SOL    HW132903   8.391   2.326   2.442 -0.4367 -0.0773 -0.7551
 9705SOL    HW232904   8.479   2.284   2.326 -1.0479  0.2232 -1.3357
 9706SOL     OW32905  10.357   3.334   7.195  0.0786 -0.2490 -0.3518
 9706SOL    HW132906  10.324   3.288   7.273 -1.5397 -0.8829 -1.3599
 9706SOL    HW232907  10.279   3.355   7.145  0.9349  1.8918 -0.9114
 9707SOL     OW32908   6.355   9.287   2.576 -0.1296 -0.2843  0.1699
 9707SOL    HW132909   6.383   9.265   2.487  0.7894  1.0581  0.0989
 9707SOL    HW232910   6.259   9.284   2.572 -0.1138  0.0200 -0.9362
 9708SOL     OW32911   1.474   3.270   3.713 -0.1973 -0.1009 -0.3535
 9708SOL    HW132912   1.533   3.289   3.640  0.2957  0.6764  0.2282
 9708SOL    HW232913   1.529   3.221   3.775 -0.0367  0.9692  0.3659
 9709SOL     OW32914   7.823   8.941   4.278 -0.4425  0.7056  0.1371
 9709SOL    HW132915   7.823   8.882   4.353  1.5291 -0.6868 -0.8564
 9709SOL    HW232916   7.767   8.897   4.214 -0.8857  1.1300  0.2251
 9710SOL     OW32917   8.614   5.921  10.231 -0.0962 -0.5537  0.1660
 9710SOL    HW132918   8.644   5.834  10.259 -0.3103 -1.6854 -2.7428
 9710SOL    HW232919   8.667   5.941  10.154 -1.4569  0.9866 -0.4293
 9711SOL     OW32920   7.419   4.048   9.597 -0.5629  0.3218  0.0763
 9711SOL    HW132921   7.452   4.138   9.592 -1.1759  0.6394  1.4983
 9711SOL    HW232922   7.338   4.054   9.647  0.2630 -1.2496  1.7210
 9712SOL     OW32923   2.917   0.100   0.400  0.2317 -0.2091  0.0111
 9712SOL    HW132924   2.916   0.018   0.351  0.5743  0.1383 -0.6083
 9712SOL    HW232925   3.007   0.131   0.391  0.2174  0.0166  0.6147
 9713SOL     OW32926   8.428   0.207   7.772  0.3865  1.3102  0.0477
 9713SOL    HW132927   8.375   0.280   7.805 -2.7115 -0.7053 -0.0433
 9713SOL    HW232928   8.420   0.140   7.840 -0.0480 -0.2734 -1.5008
 9714SOL     OW32929   9.121   5.711   9.267 -0.5392  0.0133  0.4394
 9714SOL    HW132930   9.190   5.775   9.281  1.4139 -2.1832  1.6551
 9714SOL    HW232931   9.040   5.758   9.284  0.3766  3.1930 -2.7075
 9715SOL     OW32932   7.845   5.571   4.098  0.1748  0.7331  0.0350
 9715SOL    HW132933   7.915   5.554   4.036  0.9870 -0.1492  1.1541
 9715SOL    HW232934   7.862   5.659   4.131  1.0020  0.3933  0.5630
 9716SOL     OW32935   9.429   3.718   7.866  0.5373 -0.3562 -0.4015
 9716SOL    HW132936   9.472   3.649   7.816 -0.2357 -0.6049 -0.7408
 9716SOL    HW232937   9.431   3.688   7.957  2.9611  0.6137 -0.0617
 9717SOL     OW32938   6.666   9.629   8.791  0.1736  0.1665  0.3988
 9717SOL    HW132939   6.757   9.615   8.765 -0.1031  0.2097 -0.6441
 9717SOL    HW232940   6.672   9.681   8.871  1.0572  0.3923  0.2018
 9718SOL     OW32941   7.921   4.879   6.855 -0.2382 -0.3967 -0.2908
 9718SOL    HW132942   7.861   4.838   6.917 -2.1226  1.5948 -0.6894
 9718SOL    HW232943   7.891   4.847   6.769 -2.5938  2.5847 -0.7326
 9719SOL     OW32944   6.614   1.113   8.797 -0.3092 -0.4939 -0.6119
 9719SOL    HW132945   6.565   1.122   8.879 -0.4012  0.3425 -0.7507
 9719SOL    HW232946   6.574   1.178   8.738  0.4183 -0.3871 -0.9944
 9720SOL     OW32947   2.090   5.972   4.636  0.3482  0.2314  0.1546
 9720SOL    HW132948   2.161   5.908   4.649  1.0579  0.8832 -0.4225
 9720SOL    HW232949   2.062   5.959   4.546 -0.3486 -0.0866  0.4085
 9721SOL     OW32950   9.656   4.413   6.453  0.2804  0.0101  0.1566
 9721SOL    HW132951   9.730   4.449   6.502  0.0720  1.2362 -0.3980
 9721SOL    HW232952   9.591   4.483   6.453 -1.5524 -1.5693  1.9654
 9722SOL     OW32953   6.964   9.833   9.683  0.6865  0.0335  0.7395
 9722SOL    HW132954   7.024   9.907   9.687  1.3365 -0.4788  0.6785
 9722SOL    HW232955   6.936   9.830   9.591  1.9085 -0.7481  0.3622
 9723SOL     OW32956   5.620   0.994   3.026 -0.7856  0.2309  0.1571
 9723SOL    HW132957   5.621   1.002   3.121  0.6543  0.8546  0.1059
 9723SOL    HW232958   5.620   1.084   2.993  2.0562  0.1076 -0.4033
 9724SOL     OW32959   2.568   5.224   1.482  0.2484  0.2328 -0.6610
 9724SOL    HW132960   2.473   5.220   1.479  0.2407  0.2398 -0.4287
 9724SOL    HW232961   2.594   5.146   1.530  0.2932  0.8498  0.3620
 9725SOL     OW32962   6.544   3.093   6.220  0.0079 -0.9511  0.1547
 9725SOL    HW132963   6.514   3.154   6.154 -0.1347 -1.3370 -0.1426
 9725SOL    HW232964   6.605   3.035   6.174 -1.4120 -2.3286 -0.0942
 9726SOL     OW32965   1.795   9.132   8.754 -0.2802  0.4020  0.3402
 9726SOL    HW132966   1.707   9.136   8.791 -1.0777 -1.2626 -1.2247
 9726SOL    HW232967   1.851   9.175   8.819 -2.0382  0.2591  2.0155
 9727SOL     OW32968   5.818   0.769   4.747  0.0155 -0.6431 -0.3317
 9727SOL    HW132969   5.832   0.768   4.842  0.7459  1.2693 -0.3797
 9727SOL    HW232970   5.838   0.680   4.719  0.9792 -0.9365  1.1662
 9728SOL     OW32971   8.260   3.167   5.704 -0.6329  0.0755 -0.0147
 9728SOL    HW132972   8.247   3.077   5.673 -0.7261  0.1456 -0.1787
 9728SOL    HW232973   8.172   3.205   5.703 -0.6565  0.0389  0.4549
 9729SOL     OW32974   2.249   7.480   7.433 -0.0041 -0.2829  0.1622
 9729SOL    HW132975   2.262   7.437   7.517  1.8091  1.7075  0.9943
 9729SOL    HW232976   2.160   7.514   7.436 -1.4256 -3.5470 -0.4343
 9730SOL     OW32977   1.807   7.711   7.776  0.1028 -0.0155  0.2533
 9730SOL    HW132978   1.870   7.639   7.772 -0.1120 -0.3657  2.1330
 9730SOL    HW232979   1.778   7.722   7.686  1.6044 -0.9575 -0.3914
 9731SOL     OW32980   5.138   6.445   0.636  0.0360 -0.0966  0.0513
 9731SOL    HW132981   5.120   6.380   0.568  1.4162 -0.2079 -0.2315
 9731SOL    HW232982   5.121   6.529   0.594  2.2545 -0.0851 -0.9299
 9732SOL     OW32983   6.654   3.877   7.094 -0.0400 -0.1837  0.3110
 9732SOL    HW132984   6.673   3.786   7.072  1.6993 -0.2130  1.6883
 9732SOL    HW232985   6.580   3.872   7.155 -0.6709 -0.5794 -0.4816
 9733SOL     OW32986   4.449   4.156   7.681  0.4318 -0.0334 -0.6239
 9733SOL    HW132987   4.406   4.240   7.696 -3.3209 -1.9882  0.8013
 9733SOL    HW232988   4.528   4.160   7.734  0.2590  2.4715 -0.4012
 9734SOL     OW32989   5.213   9.929   9.179 -0.3221  0.0675 -0.0063
 9734SOL    HW132990   5.193   9.957   9.089 -0.2352  0.6592  0.1550
 9734SOL    HW232991   5.135   9.952   9.229  0.1746  1.0733  0.3441
 9735SOL     OW32992   5.078   5.680   2.518  0.3744  0.2130 -0.0998
 9735SOL    HW132993   4.996   5.719   2.489  1.2907  1.6923 -0.8927
 9735SOL    HW232994   5.087   5.600   2.468 -0.9161 -0.3513  0.5442
 9736SOL     OW32995   5.667   3.637   7.892 -0.2503  0.0625 -0.2834
 9736SOL    HW132996   5.619   3.655   7.811 -1.5434  0.6413  0.5867
 9736SOL    HW232997   5.733   3.706   7.896 -2.5003  2.2791  0.9237
 9737SOL     OW32998   2.173   7.420   7.688  0.1103 -0.3475  0.9334
 9737SOL    HW132999   2.128   7.480   7.748  1.9552 -0.8619  2.9656
 9737SOL    HW233000   2.261   7.413   7.724  0.4678 -2.9107 -0.2508
 9738SOL     OW33001   7.096   1.497   1.405 -0.1537 -0.7554 -0.5170
 9738SOL    HW133002   7.086   1.411   1.444 -0.7088 -1.3061 -1.8015
 9738SOL    HW233003   7.106   1.557   1.479  1.6657 -2.0614  0.3772
 9739SOL     OW33004   0.470   0.804   9.820  0.2899 -1.1176  0.4096
 9739SOL    HW133005   0.544   0.777   9.766  1.2305  0.8237  0.6403
 9739SOL    HW233006   0.503   0.878   9.871 -1.9881  0.2531  0.0532
 9740SOL     OW33007   6.508   4.606   8.025 -0.3928  0.3009  0.7865
 9740SOL    HW133008   6.423   4.562   8.030 -0.4567  0.3886  0.5078
 9740SOL    HW233009   6.490   4.686   7.975 -0.7407  1.8118  3.1748
 9741SOL     OW33010   0.938   4.558   8.613  0.0336 -0.1946 -0.4774
 9741SOL    HW133011   0.925   4.534   8.522  0.9229  1.2106 -1.0177
 9741SOL    HW233012   1.008   4.624   8.610 -0.9007  0.9283  1.0674
 9742SOL     OW33013   1.127   6.233  10.214 -0.0947 -0.1224 -0.4337
 9742SOL    HW133014   1.160   6.143  10.219 -0.8040 -0.3355  2.7482
 9742SOL    HW233015   1.042   6.225  10.170 -1.2511 -1.4778  1.8418
 9743SOL     OW33016   1.729   7.325   8.979  0.6162  0.5858  0.0833
 9743SOL    HW133017   1.769   7.410   8.998  0.6343  0.6979 -0.4343
 9743SOL    HW233018   1.760   7.268   9.049 -0.9262  1.4585  1.5470
 9744SOL     OW33019   4.597   5.017   0.301 -0.3954  0.0148  0.0874
 9744SOL    HW133020   4.681   5.044   0.264 -0.4475  0.2441  0.1374
 9744SOL    HW233021   4.556   4.964   0.232 -0.2543 -0.0160  0.0257
 9745SOL     OW33022   4.369   9.596   3.341 -0.1270  0.0775 -0.3569
 9745SOL    HW133023   4.292   9.541   3.354 -0.6086  0.4918 -1.3876
 9745SOL    HW233024   4.440   9.548   3.383 -0.8687 -0.4890  0.2788
 9746SOL     OW33025   1.152   4.430   1.483  0.6457  0.1992  0.8458
 9746SOL    HW133026   1.151   4.473   1.569 -1.1397  2.4256 -0.1492
 9746SOL    HW233027   1.059   4.418   1.462  1.0617 -0.8655 -0.5250
 9747SOL     OW33028   8.753   9.319   4.987 -0.0241  0.0312  0.6381
 9747SOL    HW133029   8.789   9.392   4.935 -1.3983  0.0035 -0.4084
 9747SOL    HW233030   8.734   9.358   5.072 -0.9453  0.9999  0.0226
 9748SOL     OW33031   4.644   5.859   7.139 -0.2112  0.3352  0.0894
 9748SOL    HW133032   4.629   5.769   7.168  0.3342  0.7452  1.7609
 9748SOL    HW233033   4.573   5.910   7.179 -0.1035  0.7650 -0.2499
 9749SOL     OW33034   8.631   8.771   0.959  0.1496 -0.3301 -0.1017
 9749SOL    HW133035   8.576   8.834   1.007 -1.6064 -2.7841  1.3126
 9749SOL    HW233036   8.720   8.804   0.970 -0.6016  1.3582  1.4360
 9750SOL     OW33037   6.198   7.849   4.805  0.0047  0.2227  0.5785
 9750SOL    HW133038   6.282   7.804   4.796  0.9597  1.7800  1.2392
 9750SOL    HW233039   6.134   7.790   4.766  1.0785 -2.0033  1.9922
 9751SOL     OW33040   5.240   3.171   9.174  0.3010  0.2213 -0.4504
 9751SOL    HW133041   5.320   3.119   9.182  0.0591 -0.2886 -1.3173
 9751SOL    HW233042   5.187   3.124   9.110 -0.5150  0.7897 -0.2024
 9752SOL     OW33043   3.987   2.596   3.666 -0.3728  0.5795  0.1642
 9752SOL    HW133044   3.990   2.581   3.572  1.3286  0.3359  0.2261
 9752SOL    HW233045   4.031   2.520   3.704 -0.0002  1.2331  1.0843
 9753SOL     OW33046   2.895   5.937   2.092  0.0519 -0.3389 -0.2817
 9753SOL    HW133047   2.884   5.850   2.054 -0.4257  0.3409 -1.7661
 9753SOL    HW233048   2.849   5.996   2.032  0.1818  0.9221  0.8005
 9754SOL     OW33049   8.457   5.152   5.522  0.1870 -0.1392 -0.1837
 9754SOL    HW133050   8.445   5.057   5.519  2.4980 -0.4847 -0.3340
 9754SOL    HW233051   8.441   5.176   5.613 -0.5371 -0.6333 -0.1718
 9755SOL     OW33052  10.077   5.440   1.484  0.6616 -0.3230 -0.3801
 9755SOL    HW133053  10.030   5.521   1.467  1.4123  0.1651 -0.1841
 9755SOL    HW233054  10.079   5.433   1.580  0.9869 -0.3409 -0.3886
 9756SOL     OW33055   4.919   7.283   0.094 -0.2963 -0.0000  0.6709
 9756SOL    HW133056   4.925   7.227   0.017 -1.2264  0.6163  0.1347
 9756SOL    HW233057   5.008   7.318   0.105 -0.2347  0.2106 -0.3638
 9757SOL     OW33058   9.425   2.109   3.192  0.3670  0.3315 -0.6734
 9757SOL    HW133059   9.486   2.161   3.140  0.5652  0.5768 -0.1911
 9757SOL    HW233060   9.340   2.151   3.179  0.1175 -0.5130 -2.0479
 9758SOL     OW33061   7.458   4.223   8.120  0.2657  0.5996  0.3068
 9758SOL    HW133062   7.512   4.291   8.080 -0.2548  0.4519 -0.6883
 9758SOL    HW233063   7.368   4.252   8.104  0.0017 -0.9235 -1.2833
 9759SOL     OW33064   3.463   5.389   9.584  0.7688 -0.1052  0.4558
 9759SOL    HW133065   3.382   5.437   9.570  1.2679  0.6089 -0.0241
 9759SOL    HW233066   3.530   5.440   9.539  1.0022 -2.3235 -1.9740
 9760SOL     OW33067   5.882   6.209   1.271  0.1463  0.1139 -0.6907
 9760SOL    HW133068   5.807   6.263   1.296  0.3410  0.8133 -1.5675
 9760SOL    HW233069   5.879   6.133   1.330 -0.2450  0.9850  0.4313
 9761SOL     OW33070  10.019   3.865   9.198 -0.2603  0.3538 -0.1755
 9761SOL    HW133071  10.063   3.925   9.139 -1.3798  1.2532 -0.1333
 9761SOL    HW233072   9.974   3.803   9.140  3.7907 -2.9075 -0.3320
 9762SOL     OW33073   7.231   1.209   4.373  0.4530  0.0457  0.1002
 9762SOL    HW133074   7.290   1.269   4.419 -0.7407  0.5810  0.9842
 9762SOL    HW233075   7.272   1.195   4.287  1.7883  0.4831  0.6448
 9763SOL     OW33076   6.738   6.102   4.874  0.8687 -0.6775  0.8532
 9763SOL    HW133077   6.778   6.038   4.933 -2.1564 -2.3726  1.2714
 9763SOL    HW233078   6.692   6.163   4.931 -0.0945 -0.9224  0.3660
 9764SOL     OW33079   8.275   1.717   1.897 -0.0370 -0.4239  0.0974
 9764SOL    HW133080   8.202   1.705   1.958 -0.5448  0.9611 -0.1763
 9764SOL    HW233081   8.354   1.703   1.949 -0.4508  1.0480  1.1802
 9765SOL     OW33082   2.514   4.453   1.657 -0.1044 -0.3321  0.0976
 9765SOL    HW133083   2.595   4.480   1.700  0.7497 -1.7341 -0.5812
 9765SOL    HW233084   2.512   4.503   1.575 -0.3532  0.3039  0.4822
 9766SOL     OW33085   2.823   8.991   9.819  0.2176  0.2704 -0.1358
 9766SOL    HW133086   2.887   8.937   9.864  0.2169 -0.2611 -0.7574
 9766SOL    HW233087   2.741   8.943   9.826 -0.5051  1.6651  2.0019
 9767SOL     OW33088   0.312   0.927   7.024 -0.4568  0.4546 -0.4922
 9767SOL    HW133089   0.318   0.851   7.081  2.0020  0.4024 -0.6944
 9767SOL    HW233090   0.278   0.893   6.941  1.2295 -0.6164 -0.7911
 9768SOL     OW33091   1.037   0.195   2.092 -0.4012  0.2979 -0.0464
 9768SOL    HW133092   1.079   0.281   2.098  1.3388 -0.5787  1.4782
 9768SOL    HW233093   0.981   0.201   2.014  2.3278  1.6949 -2.0745
 9769SOL     OW33094   0.531   4.511   1.450 -0.2201  0.2841  0.1365
 9769SOL    HW133095   0.497   4.493   1.538 -0.1898  1.1790  0.3394
 9769SOL    HW233096   0.511   4.603   1.435  2.4461  1.0061  0.4397
 9770SOL     OW33097   0.433   2.817   8.009 -0.0947 -0.1969 -0.3070
 9770SOL    HW133098   0.355   2.776   8.045 -0.4583 -0.3451 -1.2341
 9770SOL    HW233099   0.419   2.911   8.020  0.3269 -0.2627  0.9777
 9771SOL     OW33100   9.462   4.352   3.619  0.4591 -0.0725 -0.5238
 9771SOL    HW133101   9.538   4.371   3.673  0.6931 -0.5539 -0.6833
 9771SOL    HW233102   9.439   4.262   3.639  0.5726 -0.2681 -1.2500
 9772SOL     OW33103   3.155   6.671   5.010 -0.4663  0.3506  0.2274
 9772SOL    HW133104   3.078   6.624   5.042 -2.5737  1.3896 -2.7736
 9772SOL    HW233105   3.128   6.762   5.006  1.2405  0.8836 -0.1028
 9773SOL     OW33106   4.194   1.503   8.095  0.1036 -0.2023 -0.9157
 9773SOL    HW133107   4.232   1.421   8.128 -2.5847 -0.8230  1.0307
 9773SOL    HW233108   4.186   1.558   8.173  1.2685  1.6896 -2.0943
 9774SOL     OW33109   0.531   8.688   6.818 -0.1814 -0.3030  0.1285
 9774SOL    HW133110   0.439   8.659   6.813  0.0138 -1.2398  1.5512
 9774SOL    HW233111   0.562   8.657   6.902  1.2276  0.7389  0.0367
 9775SOL     OW33112   4.604   4.313   2.128 -0.3507 -0.0149  0.1924
 9775SOL    HW133113   4.540   4.339   2.062 -0.6101  1.6351  1.0509
 9775SOL    HW233114   4.685   4.356   2.102 -0.0166 -0.7050  0.0606
 9776SOL     OW33115   0.409   0.633   0.453 -0.1953 -0.6025  0.4534
 9776SOL    HW133116   0.377   0.544   0.466 -0.2665 -1.3766 -3.5918
 9776SOL    HW233117   0.338   0.678   0.407  1.0266  0.4629 -0.4991
 9777SOL     OW33118   4.558   4.762   9.204 -0.6382  0.2969  0.1685
 9777SOL    HW133119   4.599   4.748   9.118  0.5062 -0.0840  0.7527
 9777SOL    HW233120   4.529   4.853   9.202  1.0296  0.8527  0.0299
 9778SOL     OW33121   9.162   5.870   5.224 -0.2127  0.4482  0.2622
 9778SOL    HW133122   9.084   5.885   5.170  0.2401  0.2947 -0.4548
 9778SOL    HW233123   9.184   5.778   5.208 -0.7338  0.0762  1.6133
 9779SOL     OW33124   4.850   2.440   9.212  0.3517  0.1514 -0.1906
 9779SOL    HW133125   4.911   2.392   9.157 -0.1792 -1.2708  0.4051
 9779SOL    HW233126   4.847   2.390   9.294 -0.2897  1.1624  0.4293
 9780SOL     OW33127  10.188   1.217   2.154 -0.1068 -1.0098 -0.3941
 9780SOL    HW133128  10.263   1.222   2.214 -0.0660  0.1465 -0.5041
 9780SOL    HW233129  10.169   1.309   2.132 -1.0004 -1.3353 -1.0609
 9781SOL     OW33130   5.060   5.873   6.245  0.2447 -0.2047  0.3278
 9781SOL    HW133131   5.118   5.827   6.184 -1.0156 -0.7386 -0.5079
 9781SOL    HW233132   5.102   5.958   6.258  0.3692  0.0717 -1.5989
 9782SOL     OW33133   4.903   2.308   6.333 -0.3175 -0.1240  0.0856
 9782SOL    HW133134   4.914   2.325   6.427 -1.5555  1.9118 -0.0808
 9782SOL    HW233135   4.810   2.288   6.324 -0.3316  0.3321 -0.7969
 9783SOL     OW33136   3.771   6.767   1.201  0.2449  0.7232  0.3328
 9783SOL    HW133137   3.691   6.739   1.245 -0.2061  0.9320 -0.3303
 9783SOL    HW233138   3.760   6.861   1.189 -0.0082  0.5638 -0.9000
 9784SOL     OW33139   6.584   5.512   0.333  0.1351  0.0323 -0.2890
 9784SOL    HW133140   6.566   5.584   0.393 -0.3891  0.6007 -1.1173
 9784SOL    HW233141   6.499   5.469   0.320  0.3283 -0.3559 -0.2895
 9785SOL     OW33142   5.394   1.350   5.058  0.2487  0.1244 -0.0536
 9785SOL    HW133143   5.397   1.347   4.962  0.8406 -1.1449 -0.0125
 9785SOL    HW233144   5.471   1.301   5.086 -0.0185  0.3330  1.0787
 9786SOL     OW33145   0.201   3.917   2.118 -0.1204 -0.1838  0.0401
 9786SOL    HW133146   0.291   3.936   2.145 -0.4912  0.7065  0.6888
 9786SOL    HW233147   0.146   3.964   2.181 -1.0338  1.5394 -1.9112
 9787SOL     OW33148   8.199   0.247   4.994  0.6128  0.1890 -0.3275
 9787SOL    HW133149   8.156   0.162   5.005  2.1454 -0.5414  0.2964
 9787SOL    HW233150   8.207   0.282   5.083  0.2330  0.8790 -0.5547
 9788SOL     OW33151   5.151   5.142   0.093 -0.1209 -0.7082  0.1159
 9788SOL    HW133152   5.223   5.204   0.083  0.4443 -1.5119 -1.0127
 9788SOL    HW233153   5.110   5.166   0.176 -0.1243  1.3626 -0.4337
 9789SOL     OW33154   1.288   0.045   2.347 -0.0558  0.0381 -0.6868
 9789SOL    HW133155   1.304   0.140   2.341  1.2485 -0.1029  0.2642
 9789SOL    HW233156   1.290   0.026   2.440  0.6822 -1.0814 -0.9151
 9790SOL     OW33157   3.069  10.026   8.722 -0.1522  0.2819 -0.5470
 9790SOL    HW133158   2.993  10.045   8.777  0.6144  0.6890  0.4051
 9790SOL    HW233159   3.060   9.933   8.700  0.5215 -0.4368  1.9227
 9791SOL     OW33160   1.343   4.246   4.141  0.3875 -0.1993  0.2762
 9791SOL    HW133161   1.385   4.275   4.222  2.3097 -2.1389  0.0574
 9791SOL    HW233162   1.321   4.154   4.157 -0.6448 -0.1741 -0.8660
 9792SOL     OW33163   5.823   1.650   3.694  0.1176 -0.0464 -0.2552
 9792SOL    HW133164   5.908   1.680   3.725 -0.4966  2.1319 -0.4461
 9792SOL    HW233165   5.815   1.689   3.606 -1.2115  0.1298 -0.0824
 9793SOL     OW33166   5.031   7.031   1.987 -0.4415 -0.3577 -0.7178
 9793SOL    HW133167   4.959   6.975   1.960 -1.0777  0.7030 -1.2728
 9793SOL    HW233168   5.102   6.971   2.007 -1.1038 -1.3569 -1.3098
 9794SOL     OW33169   8.027   4.972   8.865  0.0325  0.0795 -0.1651
 9794SOL    HW133170   8.082   4.895   8.877  1.5729  0.8824 -1.6206
 9794SOL    HW233171   8.050   5.005   8.778 -2.3771  0.8039 -0.6206
 9795SOL     OW33172   1.329   0.191   2.056  0.0960  0.0547 -0.5077
 9795SOL    HW133173   1.308   0.105   2.020 -0.1084  0.1014 -0.5033
 9795SOL    HW233174   1.243   0.229   2.078  0.1936  0.2052 -0.3881
 9796SOL     OW33175   0.993   3.451   9.133  0.2206  0.2214  0.0405
 9796SOL    HW133176   0.940   3.459   9.212  0.0814  2.0786 -0.2003
 9796SOL    HW233177   1.084   3.450   9.166  0.1440  0.4254  0.2681
 9797SOL     OW33178   7.370   0.252   0.752 -0.1876 -0.6671 -0.2384
 9797SOL    HW133179   7.359   0.183   0.818  0.3766 -0.3876  0.1568
 9797SOL    HW233180   7.461   0.243   0.723 -0.0635  0.0008 -0.0733
 9798SOL     OW33181   5.158   1.040   9.591 -0.3347  0.1031 -0.6802
 9798SOL    HW133182   5.141   1.082   9.675  1.8404  0.6666 -0.4459
 9798SOL    HW233183   5.155   0.946   9.609 -1.0346  0.2086 -0.2429
 9799SOL     OW33184   9.897   6.671   6.996 -0.1717  0.5476  0.6744
 9799SOL    HW133185   9.878   6.588   7.040  1.7648 -1.1599 -1.4156
 9799SOL    HW233186   9.828   6.681   6.931 -0.1296  0.2767  0.5864
 9800SOL     OW33187   2.078   3.725   5.168  0.0246 -0.1258 -0.0875
 9800SOL    HW133188   2.012   3.754   5.230 -0.1171  0.5274 -0.5322
 9800SOL    HW233189   2.039   3.740   5.082  0.9470  0.7957 -0.3691
 9801SOL     OW33190   1.734   3.468   8.810  0.5251  0.0934 -0.0117
 9801SOL    HW133191   1.737   3.543   8.870 -0.2632  0.4326 -0.3707
 9801SOL    HW233192   1.819   3.427   8.818  1.0280  1.1237  0.0854
 9802SOL     OW33193   5.270   3.259   4.554 -0.0303  0.0758 -0.4865
 9802SOL    HW133194   5.215   3.189   4.520 -0.1049  0.2890 -0.8194
 9802SOL    HW233195   5.334   3.215   4.610 -1.0428 -0.0916  0.5693
 9803SOL     OW33196   5.182   1.773   4.975  0.1886 -0.2418  0.2751
 9803SOL    HW133197   5.151   1.707   5.036  0.9318 -0.8365  0.0251
 9803SOL    HW233198   5.160   1.739   4.889  1.1562 -0.4858  0.1153
 9804SOL     OW33199   5.537   8.398   7.795  0.3603 -0.2454 -0.6836
 9804SOL    HW133200   5.566   8.489   7.803  1.1032 -0.6497  3.4442
 9804SOL    HW233201   5.463   8.392   7.856 -0.4091 -2.1802 -1.7473
 9805SOL     OW33202   9.584   9.617   6.628 -0.6660 -0.2693  0.3208
 9805SOL    HW133203   9.627   9.576   6.553 -1.0507 -0.8760  0.4307
 9805SOL    HW233204   9.590   9.711   6.610  1.0200 -0.3199  0.5193
 9806SOL     OW33205   1.293   2.858   5.602  0.1537 -0.3448 -0.3037
 9806SOL    HW133206   1.324   2.863   5.512  1.7167 -0.1662  0.2085
 9806SOL    HW233207   1.366   2.819   5.650 -0.5636 -0.2267  0.9225
 9807SOL     OW33208   7.855   7.557   3.625  0.2279 -0.1484  0.0836
 9807SOL    HW133209   7.865   7.462   3.627 -3.1248 -0.6267  0.9691
 9807SOL    HW233210   7.886   7.586   3.711  1.2139 -0.4009 -0.1703
 9808SOL     OW33211   3.594   5.008   9.482  0.6692 -0.0143  1.0170
 9808SOL    HW133212   3.611   4.933   9.424 -0.1591 -0.9966  1.9896
 9808SOL    HW233213   3.661   5.072   9.459 -0.1963  0.0491 -1.6708
 9809SOL     OW33214   5.039   9.867   0.067 -0.7884  0.2781  0.0692
 9809SOL    HW133215   5.101   9.853   0.139 -1.9239  0.3833  1.1157
 9809SOL    HW233216   4.988   9.786   0.064  0.1707 -0.2957 -1.5960
 9810SOL     OW33217   4.840   3.029   7.047 -0.0710  0.3282 -0.1381
 9810SOL    HW133218   4.784   3.091   7.001  0.7564  1.6918  0.6132
 9810SOL    HW233219   4.929   3.064   7.034  0.5254 -1.2218 -0.4665
 9811SOL     OW33220   6.495   2.941   2.466  0.6724  0.0943  0.2652
 9811SOL    HW133221   6.518   2.859   2.421  2.8131  0.5603  0.3758
 9811SOL    HW233222   6.542   2.936   2.550 -2.1528 -0.1474  1.9503
 9812SOL     OW33223   4.848   5.523   3.296 -0.0675 -0.2222  0.0675
 9812SOL    HW133224   4.918   5.463   3.323 -1.1722 -0.6591  2.2361
 9812SOL    HW233225   4.832   5.502   3.205  1.8226 -0.9121 -0.1655
 9813SOL     OW33226   5.018  10.360   2.579  0.5619  0.7602 -0.0131
 9813SOL    HW133227   5.046  10.337   2.491  0.8191 -2.9326  0.8496
 9813SOL    HW233228   5.094  10.401   2.619  1.0868  0.7339 -0.9577
 9814SOL     OW33229   8.947   1.625   7.627 -0.0085 -0.3869  0.0988
 9814SOL    HW133230   8.909   1.538   7.639  0.5642 -0.6625 -0.0520
 9814SOL    HW233231   8.872   1.680   7.603 -0.8878 -0.1864  2.9579
 9815SOL     OW33232   2.946   3.131   8.408  0.1528  0.4203 -0.0089
 9815SOL    HW133233   2.882   3.174   8.465 -0.9313 -2.6784  1.3435
 9815SOL    HW233234   2.894   3.095   8.336  0.5748 -0.6970  0.2129
 9816SOL     OW33235   1.841   0.463   7.330 -0.5765  0.3303  0.5818
 9816SOL    HW133236   1.769   0.413   7.368 -1.4381 -0.0882 -1.4656
 9816SOL    HW233237   1.806   0.551   7.318 -0.1576  0.5796  1.1734
 9817SOL     OW33238   9.332   9.370   5.409  0.2154 -0.2492 -0.2561
 9817SOL    HW133239   9.295   9.404   5.328  1.9234 -0.8068 -1.3300
 9817SOL    HW233240   9.426   9.390   5.402  0.6665 -1.8666  0.7661
 9818SOL     OW33241   1.918   9.509   5.912 -0.2614 -0.1528  0.3373
 9818SOL    HW133242   1.831   9.518   5.874  0.0522  0.4575 -0.2514
 9818SOL    HW233243   1.921   9.418   5.943 -1.0860 -0.1926  0.3258
 9819SOL     OW33244   6.007   4.928   2.388 -0.4789 -0.4467 -0.2217
 9819SOL    HW133245   5.917   4.953   2.407 -0.5492 -0.8203 -0.0611
 9819SOL    HW233246   6.060   5.000   2.423 -0.7498  0.1506 -1.0066
 9820SOL     OW33247   8.277   4.394   6.430  0.0264 -0.2794  0.0790
 9820SOL    HW133248   8.300   4.334   6.501 -1.6950 -1.6458 -0.4548
 9820SOL    HW233249   8.243   4.472   6.476  1.9045  0.1915  0.7643
 9821SOL     OW33250   6.623   2.420   3.751 -0.3070  0.3979  0.0271
 9821SOL    HW133251   6.546   2.397   3.699 -1.9998  1.9611  1.6996
 9821SOL    HW233252   6.695   2.420   3.688 -1.7444 -0.5538 -1.7139
 9822SOL     OW33253   6.654   9.808   2.680  0.1224  0.2335 -0.0622
 9822SOL    HW133254   6.707   9.753   2.738 -0.3597 -1.1051 -0.8673
 9822SOL    HW233255   6.566   9.805   2.718 -0.3319 -1.1386 -1.1545
 9823SOL     OW33256   9.209   0.878   7.299 -0.0134 -0.1392 -0.4939
 9823SOL    HW133257   9.263   0.886   7.220 -0.1204 -0.1732 -0.5705
 9823SOL    HW233258   9.272   0.863   7.369  0.1340  0.6191 -0.4580
 9824SOL     OW33259   2.190   8.358   6.848 -0.1853  0.3661 -0.0007
 9824SOL    HW133260   2.184   8.401   6.763 -1.6204 -0.9195 -0.5988
 9824SOL    HW233261   2.102   8.367   6.886 -0.3158 -1.3457  0.1688
 9825SOL     OW33262   2.443   9.085   2.852  0.1302  0.1882  0.1882
 9825SOL    HW133263   2.501   9.044   2.787 -1.7816 -2.6635  0.0806
 9825SOL    HW233264   2.394   9.150   2.802  0.1381 -0.5293 -0.7992
 9826SOL     OW33265   8.479   2.620   2.237 -0.2168 -0.1919 -0.2476
 9826SOL    HW133266   8.496   2.616   2.143 -0.2813 -0.0016 -0.2670
 9826SOL    HW233267   8.473   2.528   2.264  0.2619 -0.2519 -0.3422
 9827SOL     OW33268   2.353   6.846   8.995 -0.4797  0.9247 -0.1446
 9827SOL    HW133269   2.258   6.837   9.004 -0.3298 -0.3982  0.2950
 9827SOL    HW233270   2.374   6.800   8.914 -0.1255  0.5131  0.1767
 9828SOL     OW33271   7.436   0.079   6.582 -0.4018 -0.5072 -0.2078
 9828SOL    HW133272   7.479   0.113   6.503 -0.4596 -0.5535 -0.2594
 9828SOL    HW233273   7.362   0.138   6.596  0.2781  0.2070  0.4848
 9829SOL     OW33274   6.574   0.286   9.170 -0.2806 -0.2014  0.2951
 9829SOL    HW133275   6.627   0.354   9.212 -0.7900  0.0880  0.4699
 9829SOL    HW233276   6.638   0.227   9.130  0.2474 -0.8907  2.0862
 9830SOL     OW33277  10.308   0.931   7.912 -0.0177 -0.1308  0.1241
 9830SOL    HW133278  10.338   0.841   7.929 -0.6247 -0.2401  0.6389
 9830SOL    HW233279  10.328   0.978   7.992  4.1741  1.2875 -1.5133
 9831SOL     OW33280   7.293  10.065   2.767  0.1823  0.3436 -0.1430
 9831SOL    HW133281   7.225  10.079   2.701 -0.3150 -0.2706  0.2284
 9831SOL    HW233282   7.354  10.137   2.754  0.2686  0.0481 -1.5022
 9832SOL     OW33283   2.002   7.859   4.778  0.1785  0.2558  0.4042
 9832SOL    HW133284   1.983   7.767   4.764 -1.1799  0.3188  1.5308
 9832SOL    HW233285   2.095   7.861   4.800  0.3209 -0.7814 -0.0319
 9833SOL     OW33286   9.834   3.143   5.124  0.8927 -0.1864  0.0303
 9833SOL    HW133287   9.793   3.151   5.211  1.3217 -0.1672  0.2328
 9833SOL    HW233288   9.845   3.049   5.111  1.2705 -0.1677  0.2070
 9834SOL     OW33289  10.077   6.187   9.721 -0.1969 -0.5557 -0.0899
 9834SOL    HW133290  10.112   6.221   9.804 -0.5257  1.1463 -0.6055
 9834SOL    HW233291  10.129   6.231   9.654 -0.0961 -1.7424 -0.8103
 9835SOL     OW33292   6.369   9.055   3.717  0.3524 -0.3865  0.1129
 9835SOL    HW133293   6.361   8.996   3.792  0.3750 -0.2134  0.2518
 9835SOL    HW233294   6.350   9.142   3.752  1.1123 -0.2039  0.0802
 9836SOL     OW33295   8.140   5.768   0.689 -0.1231 -0.0463  0.6637
 9836SOL    HW133296   8.175   5.680   0.679  0.0201 -0.1819  2.1091
 9836SOL    HW233297   8.055   5.755   0.732  0.3734  0.5455  1.8836
 9837SOL     OW33298   7.560   9.607   0.028 -0.5320  0.1427  0.4462
 9837SOL    HW133299   7.573   9.518   0.058 -0.8935 -0.1891 -0.3503
 9837SOL    HW233300   7.567   9.661   0.107  2.3743 -0.2881  0.5628
 9838SOL     OW33301   0.228   8.581   4.059 -0.1098  0.2765  0.1938
 9838SOL    HW133302   0.208   8.528   4.137 -0.9982  0.3544  0.0269
 9838SOL    HW233303   0.170   8.546   3.992  0.8655  0.0067 -0.5321
 9839SOL     OW33304   8.702   4.197   6.353 -0.3355 -0.7390  0.0385
 9839SOL    HW133305   8.750   4.116   6.338 -0.9740 -1.0264 -0.4717
 9839SOL    HW233306   8.704   4.243   6.269  0.2193 -0.1121  0.3846
 9840SOL     OW33307   6.560   2.166   4.368  0.1674 -0.0011 -0.2178
 9840SOL    HW133308   6.484   2.108   4.364  0.0728  0.1493 -0.7669
 9840SOL    HW233309   6.630   2.116   4.325  1.1856 -1.2890  2.6864
 9841SOL     OW33310   4.395   9.664   5.842  0.1016 -0.6626 -0.5304
 9841SOL    HW133311   4.431   9.749   5.865  0.7470 -0.4672 -2.1840
 9841SOL    HW233312   4.409   9.655   5.748  0.0684 -2.6016 -0.4058
 9842SOL     OW33313   4.283   0.622   2.270 -0.0165 -0.2950 -0.5882
 9842SOL    HW133314   4.307   0.586   2.185  1.4492  0.0712 -0.3645
 9842SOL    HW233315   4.363   0.613   2.323 -0.5197  0.5909  0.3611
 9843SOL     OW33316   7.006  10.222   8.430  0.0545  0.0163 -0.3166
 9843SOL    HW133317   7.040  10.148   8.480  0.2958  0.9399  0.9177
 9843SOL    HW233318   6.914  10.200   8.414  0.4174 -1.0971 -1.0494
 9844SOL     OW33319   7.634   8.003   2.070  0.0186  0.3446  0.2305
 9844SOL    HW133320   7.662   8.072   2.129 -1.2071  0.1545  1.0733
 9844SOL    HW233321   7.706   7.940   2.069  1.4803  1.9488 -1.1422
 9845SOL     OW33322   9.562   8.668   8.715 -0.9126 -0.1561  0.4567
 9845SOL    HW133323   9.549   8.634   8.627 -0.1349 -1.8819  0.9636
 9845SOL    HW233324   9.539   8.595   8.772  2.7951 -0.6372  1.5778
 9846SOL     OW33325   7.364   2.800   9.012  0.1816  0.0864  0.4423
 9846SOL    HW133326   7.427   2.795   8.941  0.8333 -2.5239  1.0885
 9846SOL    HW233327   7.416   2.829   9.088  0.5551 -1.4561  0.8257
 9847SOL     OW33328   3.525   9.600   0.574 -0.9843  0.3108  0.2532
 9847SOL    HW133329   3.502   9.513   0.607 -2.4864  1.1495  1.5939
 9847SOL    HW233330   3.611   9.589   0.533 -1.5978 -2.0103 -0.5661
 9848SOL     OW33331   4.046   9.746   2.264 -0.2240  0.4891 -0.5150
 9848SOL    HW133332   4.100   9.822   2.242 -0.6186  1.4062  1.4634
 9848SOL    HW233333   3.956   9.775   2.251 -0.3639  0.1963 -0.2371
 9849SOL     OW33334   3.437   5.014   4.158 -0.6582 -0.3962 -0.4525
 9849SOL    HW133335   3.441   5.033   4.064 -1.3774  2.8493  0.0382
 9849SOL    HW233336   3.345   5.028   4.181 -0.0046  1.9408  1.1660
 9850SOL     OW33337   0.480   6.469   0.030 -0.3846  0.0766 -0.6623
 9850SOL    HW133338   0.476   6.524  -0.048  0.8103  1.0173 -0.0928
 9850SOL    HW233339   0.547   6.404   0.010 -0.0759  0.3198 -0.4292
 9851SOL     OW33340   1.093   2.134   8.499  0.2725  0.0169 -0.3864
 9851SOL    HW133341   1.021   2.128   8.561  0.4133  0.3036 -0.1928
 9851SOL    HW233342   1.055   2.174   8.421  0.5204  1.4591  0.2005
 9852SOL     OW33343   1.306   1.389   6.025  0.7363  0.8928  0.1250
 9852SOL    HW133344   1.339   1.415   6.112 -1.6706 -0.2970  1.5143
 9852SOL    HW233345   1.305   1.293   6.028 -1.5546  0.8421 -0.2323
 9853SOL     OW33346   7.882   8.511   0.201  0.4999 -0.2736 -0.1505
 9853SOL    HW133347   7.876   8.477   0.111  1.2065 -0.6753 -0.0593
 9853SOL    HW233348   7.798   8.554   0.217 -0.1097 -1.2976 -0.5535
 9854SOL     OW33349   7.496   6.521   6.027  0.0713  0.2039 -0.6456
 9854SOL    HW133350   7.540   6.511   5.943 -0.4596  1.6248 -1.1287
 9854SOL    HW233351   7.562   6.497   6.092 -0.0935 -2.8012 -1.4746
 9855SOL     OW33352   5.866   2.247   8.322  0.0920  0.0429  0.1317
 9855SOL    HW133353   5.854   2.176   8.258 -0.5073  0.3282 -0.0793
 9855SOL    HW233354   5.949   2.226   8.366 -0.7362 -1.5126  1.0179
 9856SOL     OW33355   6.518   7.419   9.375  0.4719 -0.0480 -0.3647
 9856SOL    HW133356   6.589   7.399   9.435  1.5477 -0.7620 -1.7974
 9856SOL    HW233357   6.443   7.441   9.431  1.5506 -0.2111  1.1842
 9857SOL     OW33358   5.995   6.567   8.745 -0.3173 -0.0443  0.5890
 9857SOL    HW133359   5.930   6.612   8.692 -0.9392 -0.7791  0.7056
 9857SOL    HW233360   5.990   6.475   8.716  0.4879 -0.1542  0.7756
 9858SOL     OW33361   3.023   5.501   2.967 -0.3036 -0.2630 -0.4240
 9858SOL    HW133362   3.094   5.444   2.995  0.7640  1.1323 -0.1835
 9858SOL    HW233363   3.057   5.590   2.977 -2.4479  0.5203  0.7221
 9859SOL     OW33364   0.183   6.188   1.388 -0.3310  0.5129 -0.0897
 9859SOL    HW133365   0.135   6.245   1.328 -1.9479  0.5736  1.1800
 9859SOL    HW233366   0.273   6.220   1.387 -0.3302  0.5815 -2.3510
 9860SOL     OW33367   4.904   3.266   8.932  0.6385 -0.1014 -0.1561
 9860SOL    HW133368   4.830   3.217   8.968  0.1768 -0.2184 -1.2093
 9860SOL    HW233369   4.873   3.356   8.929  0.9579  0.0300  0.4424
 9861SOL     OW33370   2.027  10.111   5.665  0.2301 -0.5428 -1.1967
 9861SOL    HW133371   1.996  10.039   5.610  2.0032 -0.8880 -1.7965
 9861SOL    HW233372   2.061  10.069   5.743 -1.0708 -0.1377 -0.3732
 9862SOL     OW33373   9.038   6.619   1.778 -0.5775  0.3502  0.2660
 9862SOL    HW133374   8.949   6.586   1.780 -0.5560  0.3317  1.8784
 9862SOL    HW233375   9.049   6.653   1.689 -2.1366  0.2382  0.0086
 9863SOL     OW33376   9.093   9.099   2.461  0.0376 -0.1805 -0.1573
 9863SOL    HW133377   9.097   9.066   2.371  0.2175 -1.3221  0.2551
 9863SOL    HW233378   9.128   9.188   2.455  2.9692 -1.2496 -0.7503
 9864SOL     OW33379   7.188   6.584   3.451  0.8110 -0.0283 -0.3547
 9864SOL    HW133380   7.247   6.621   3.516 -0.7971 -0.5389  1.4907
 9864SOL    HW233381   7.176   6.493   3.478 -3.0850  0.7483  1.2352
 9865SOL     OW33382   1.904   8.571   7.712  0.5036 -0.2380 -0.1928
 9865SOL    HW133383   1.964   8.613   7.774 -0.2018 -0.5618  0.7343
 9865SOL    HW233384   1.920   8.477   7.723 -0.0310 -0.3154 -0.0851
 9866SOL     OW33385   0.982   4.888   3.553  0.3562  0.2511  0.3394
 9866SOL    HW133386   0.981   4.809   3.499  0.7183 -0.1853  0.9547
 9866SOL    HW233387   1.070   4.923   3.543  0.5531 -0.0525  0.9463
 9867SOL     OW33388   0.621  10.312   7.310  0.2556 -0.0208  0.4151
 9867SOL    HW133389   0.565  10.389   7.316 -0.9199 -0.9173  1.9240
 9867SOL    HW233390   0.573  10.251   7.255 -0.6959 -1.0771  2.3128
 9868SOL     OW33391   0.887  10.134   3.912 -0.5112 -0.3250  0.0226
 9868SOL    HW133392   0.833  10.109   3.988 -1.7008 -0.8446 -0.9478
 9868SOL    HW233393   0.829  10.119   3.836  1.5467 -2.6383 -1.2390
 9869SOL     OW33394   9.892   6.376   4.380  0.0974  0.2510 -0.0933
 9869SOL    HW133395   9.970   6.430   4.367  0.8856 -0.6387  0.7249
 9869SOL    HW233396   9.900   6.307   4.314 -0.3629  0.5401 -0.4566
 9870SOL     OW33397   1.981   0.938   7.214 -0.1276  0.4181 -0.1957
 9870SOL    HW133398   1.954   0.946   7.122 -1.1795  0.3695  0.1070
 9870SOL    HW233399   2.071   0.972   7.215 -0.2216  0.7280 -1.1812
 9871SOL     OW33400  10.183   5.764   5.460  0.3689  0.4064  0.9202
 9871SOL    HW133401  10.208   5.849   5.424 -0.2553  0.2794  0.1737
 9871SOL    HW233402  10.264   5.729   5.498  1.3812 -0.0451 -1.5160
 9872SOL     OW33403   8.051   4.380   9.812  0.4468  0.0508  0.1232
 9872SOL    HW133404   8.092   4.307   9.858  0.8436  0.4238  0.3640
 9872SOL    HW233405   8.026   4.344   9.727  1.6518 -0.0785 -0.1916
 9873SOL     OW33406   1.877   2.005   1.962  0.1909 -0.0316  0.2305
 9873SOL    HW133407   1.865   2.008   2.056 -0.8250 -0.0832  0.1123
 9873SOL    HW233408   1.794   2.036   1.926  0.2512 -0.8360 -0.6558
 9874SOL     OW33409   1.590   1.224   7.261 -0.1585  0.1303  0.4503
 9874SOL    HW133410   1.612   1.300   7.314  2.2417  0.4496 -0.8650
 9874SOL    HW233411   1.607   1.252   7.171 -1.3813 -1.2877 -0.2800
 9875SOL     OW33412   8.913   1.564   8.422  0.2349  0.0666 -0.1387
 9875SOL    HW133413   8.890   1.480   8.381  1.1958 -0.5644  0.5679
 9875SOL    HW233414   8.970   1.540   8.496 -1.0804  1.1797  1.3187
 9876SOL     OW33415   0.439   7.906   3.419  0.5644 -0.1095  0.3262
 9876SOL    HW133416   0.510   7.848   3.394 -0.2157 -0.9077 -0.0789
 9876SOL    HW233417   0.462   7.935   3.508  1.2722 -0.5258  0.2836
 9877SOL     OW33418   9.994   8.654   3.780  0.9976  0.2976  0.0611
 9877SOL    HW133419   9.939   8.732   3.787  1.5227  0.6693  0.1201
 9877SOL    HW233420   9.933   8.583   3.762  0.6961  1.0557 -2.2237
 9878SOL     OW33421   9.457   2.819   7.092  1.1999 -0.6233  0.4366
 9878SOL    HW133422   9.550   2.796   7.093  1.0235 -1.3599  0.1604
 9878SOL    HW233423   9.440   2.847   7.002  1.2943  0.1370  0.6455
 9879SOL     OW33424   7.812   5.218   6.163  0.2898 -0.0241 -0.1259
 9879SOL    HW133425   7.762   5.206   6.243  0.3992  0.5405  0.0343
 9879SOL    HW233426   7.897   5.179   6.181  0.3881  0.3021  0.1114
 9880SOL     OW33427   3.075   2.747   2.626 -0.4635 -0.2522  0.2832
 9880SOL    HW133428   3.066   2.654   2.644  3.1638 -1.2317 -1.9874
 9880SOL    HW233429   3.043   2.757   2.536  1.3264  0.1344 -0.3522
 9881SOL     OW33430   2.806   3.229   5.001  0.0376  0.8014 -0.3260
 9881SOL    HW133431   2.744   3.277   4.946 -1.6745 -1.4574 -0.5137
 9881SOL    HW233432   2.864   3.185   4.939 -0.6892 -0.2123 -0.3145
 9882SOL     OW33433   7.120   2.589   7.878 -0.3623 -0.3978 -0.0290
 9882SOL    HW133434   7.083   2.674   7.856  0.5421  0.3517  1.2168
 9882SOL    HW233435   7.045   2.529   7.876 -0.9211  0.3140 -1.4190
 9883SOL     OW33436   4.329   4.395   7.713  0.1319 -0.3218  0.1313
 9883SOL    HW133437   4.311   4.475   7.763  2.0964  0.9904 -1.0718
 9883SOL    HW233438   4.272   4.402   7.636 -0.5346 -0.6811  0.5874
 9884SOL     OW33439   0.249   1.843   2.189 -0.6517 -0.0315 -0.3786
 9884SOL    HW133440   0.288   1.824   2.275 -1.9480  0.2513  0.3017
 9884SOL    HW233441   0.251   1.759   2.143  0.2729 -0.1348 -0.1864
 9885SOL     OW33442   8.565   0.341   5.012 -0.0679 -0.5805 -0.4196
 9885SOL    HW133443   8.474   0.327   5.040  0.1285 -0.6245  0.2297
 9885SOL    HW233444   8.608   0.257   5.030  0.2355 -0.3673 -0.1554
 9886SOL     OW33445   4.993   3.083   0.482  0.5159 -0.1209  0.0922
 9886SOL    HW133446   4.955   3.059   0.567 -0.4032  1.7079  0.2369
 9886SOL    HW233447   4.948   3.027   0.419  1.0900 -1.3838  0.7395
 9887SOL     OW33448   2.046   4.903   6.678  0.2188 -0.1582 -0.4335
 9887SOL    HW133449   2.025   4.816   6.643  0.0395  0.2967 -1.4790
 9887SOL    HW233450   1.961   4.940   6.703  0.3992 -0.7444  1.1884
 9888SOL     OW33451   1.935   2.750   4.845  0.3043  0.3960  0.3731
 9888SOL    HW133452   1.882   2.800   4.906 -0.5726 -1.3648  1.1066
 9888SOL    HW233453   2.019   2.738   4.890 -0.6054 -1.6086  1.7045
 9889SOL     OW33454   8.240   8.035   9.327  0.4514  0.1470 -0.0488
 9889SOL    HW133455   8.193   8.117   9.307 -0.2822 -0.3189 -0.2923
 9889SOL    HW233456   8.172   7.967   9.321  1.2447 -0.6015 -0.8484
 9890SOL     OW33457   2.314   8.872   2.892  0.4655 -0.0751  0.0949
 9890SOL    HW133458   2.361   8.955   2.889 -2.3347  1.7337  1.7756
 9890SOL    HW233459   2.232   8.889   2.845 -0.3600 -1.7251  0.8570
 9891SOL     OW33460   5.029   9.288   1.148  0.3366  0.0389 -0.6468
 9891SOL    HW133461   5.004   9.333   1.229  0.1796  0.1022 -0.7300
 9891SOL    HW233462   5.123   9.273   1.157  0.3701  0.2917 -0.5747
 9892SOL     OW33463   3.611   9.723   4.724  0.2273 -0.2240  0.1674
 9892SOL    HW133464   3.648   9.784   4.661 -0.3549 -0.1195 -0.0767
 9892SOL    HW233465   3.577   9.778   4.794  1.9860 -0.3821  1.2167
 9893SOL     OW33466   2.814   1.702   6.526 -0.4223  0.4424 -0.2118
 9893SOL    HW133467   2.892   1.714   6.581  0.4101 -0.4817 -1.1584
 9893SOL    HW233468   2.781   1.791   6.512 -0.0118  0.7820  0.8614
 9894SOL     OW33469   7.883   4.382   0.719  0.0782  0.1371 -0.0084
 9894SOL    HW133470   7.920   4.380   0.630  0.5617  0.1804  0.1897
 9894SOL    HW233471   7.959   4.369   0.776 -0.2272  0.1631  0.3998
 9895SOL     OW33472   0.876   8.087   3.306  0.1438  0.2314  0.6240
 9895SOL    HW133473   0.892   8.170   3.260 -1.0491  0.3467  0.3890
 9895SOL    HW233474   0.914   8.020   3.249 -2.8115  0.1816 -1.4972
 9896SOL     OW33475   9.137   4.624   0.282 -0.0462 -0.7273 -0.4343
 9896SOL    HW133476   9.137   4.715   0.310  0.3848 -0.0253 -2.5268
 9896SOL    HW233477   9.224   4.592   0.305  0.2284 -0.2387 -0.7755
 9897SOL     OW33478   3.562   6.515   2.235  0.5383 -0.5906  0.1004
 9897SOL    HW133479   3.498   6.553   2.175  0.4074 -0.3314  0.3994
 9897SOL    HW233480   3.638   6.573   2.229  0.3373 -0.2684  0.5590
 9898SOL     OW33481   4.345   5.464   7.205  0.1020  0.0740  0.1182
 9898SOL    HW133482   4.377   5.385   7.247 -2.3261 -0.0919  1.8668
 9898SOL    HW233483   4.422   5.521   7.199  1.2751 -1.2543  1.6236
 9899SOL     OW33484  10.241   5.372   0.896 -0.5791 -0.0580  0.0959
 9899SOL    HW133485  10.226   5.308   0.825  0.9281  0.5653 -0.8268
 9899SOL    HW233486  10.219   5.456   0.857 -1.3878  0.1387  0.9368
 9900SOL     OW33487   3.603  10.217   8.890 -0.4974 -0.3677  0.5413
 9900SOL    HW133488   3.589  10.305   8.924 -0.4503 -0.5856  1.1387
 9900SOL    HW233489   3.690  10.220   8.850 -0.7238  0.0026  0.0721
 9901SOL     OW33490   8.592   1.528   4.941  0.6935 -0.3422  0.3944
 9901SOL    HW133491   8.617   1.616   4.913 -1.8278  0.2459 -0.2723
 9901SOL    HW233492   8.599   1.530   5.036  1.9279  0.1320  0.3050
 9902SOL     OW33493   4.809   6.529   8.670  0.1617  0.5849  0.3881
 9902SOL    HW133494   4.875   6.557   8.733  0.6571  0.4584 -0.0657
 9902SOL    HW233495   4.754   6.606   8.656  2.1469  1.7530 -1.6735
 9903SOL     OW33496   9.951   2.180   2.324 -0.0838 -0.1853  0.1914
 9903SOL    HW133497   9.923   2.269   2.344 -0.5638 -0.6021  1.5325
 9903SOL    HW233498   9.894   2.125   2.378  1.2700 -1.2175  0.6335
 9904SOL     OW33499   1.471   6.857   0.478 -0.2838 -0.1015 -0.4734
 9904SOL    HW133500   1.410   6.788   0.454 -0.7837  0.5545 -1.1510
 9904SOL    HW233501   1.482   6.908   0.397 -2.5917  2.6339  0.7426
 9905SOL     OW33502   9.251   2.621   0.398 -0.7686  0.1670  0.5009
 9905SOL    HW133503   9.165   2.579   0.402 -0.4218 -0.4885  1.0847
 9905SOL    HW233504   9.310   2.553   0.369 -0.5421  0.7949 -0.5697
 9906SOL     OW33505   4.735   0.922   6.332  0.5533 -0.0727  0.4600
 9906SOL    HW133506   4.792   0.927   6.409  0.8451  1.1253  0.1832
 9906SOL    HW233507   4.784   0.967   6.263  0.1809 -0.8995 -0.3652
 9907SOL     OW33508   6.788   0.929   0.792  0.1224 -0.3661  0.3293
 9907SOL    HW133509   6.807   1.021   0.807  0.2998 -0.4857  0.8705
 9907SOL    HW233510   6.759   0.925   0.701  3.2276 -0.2449 -0.7730
 9908SOL     OW33511   5.406   2.078   6.367 -0.2145  0.1399  0.0221
 9908SOL    HW133512   5.357   1.999   6.390 -0.8333 -0.9559 -4.2266
 9908SOL    HW233513   5.338   2.146   6.359 -0.6836 -0.5052 -2.2896
 9909SOL     OW33514   3.698   3.679   3.033 -0.1270 -0.1377 -0.3202
 9909SOL    HW133515   3.676   3.587   3.019 -0.2090 -0.8646  3.5393
 9909SOL    HW233516   3.614   3.724   3.037 -0.0920  0.1556 -2.0367
 9910SOL     OW33517   6.139   4.007   7.451 -0.1722  0.4709  0.2107
 9910SOL    HW133518   6.102   3.965   7.373 -0.3993  2.4693 -0.8174
 9910SOL    HW233519   6.211   4.059   7.418  1.2742 -0.4883  1.7143
 9911SOL     OW33520   6.850  10.306   0.398 -0.0994 -0.0200 -0.0225
 9911SOL    HW133521   6.789  10.379   0.398  0.6290  0.6048 -1.0531
 9911SOL    HW233522   6.821  10.250   0.326 -2.0975 -2.0540  2.1585
 9912SOL     OW33523   2.758   5.885   1.334 -0.1092 -0.8294  0.3575
 9912SOL    HW133524   2.817   5.943   1.287  0.1056 -1.7847 -0.5778
 9912SOL    HW233525   2.715   5.942   1.398  2.0947 -0.1730  1.3594
 9913SOL     OW33526   0.988   1.841   2.912 -0.0798 -0.3393 -0.2891
 9913SOL    HW133527   0.921   1.909   2.901  1.1097  0.7255 -1.3617
 9913SOL    HW233528   1.064   1.889   2.944  0.4877 -1.3463 -0.1246
 9914SOL     OW33529   7.106   7.199   4.287  0.1165  0.0334  0.2507
 9914SOL    HW133530   7.077   7.171   4.374 -0.1228  0.9675  0.4813
 9914SOL    HW233531   7.041   7.161   4.227  1.1358 -1.9318  0.2948
 9915SOL     OW33532   9.300   7.500   7.670  0.5377 -0.1046 -0.1346
 9915SOL    HW133533   9.307   7.561   7.743 -1.9750 -0.3602  0.3924
 9915SOL    HW233534   9.304   7.413   7.711  1.8280 -0.3135 -0.6423
 9916SOL     OW33535   0.031   2.313   5.088  0.0196 -0.2409 -0.2742
 9916SOL    HW133536   0.068   2.332   5.002  0.6161  0.7525  0.1863
 9916SOL    HW233537   0.080   2.368   5.148 -0.6261 -0.6619  0.6668
 9917SOL     OW33538   8.319   2.248   7.962 -0.0469  0.1757  0.3343
 9917SOL    HW133539   8.253   2.318   7.962  0.2951  0.6473 -2.8345
 9917SOL    HW233540   8.397   2.289   7.998 -0.6127  0.5323  1.2004
 9918SOL     OW33541   9.461   0.065   9.093  0.1580  0.1098 -0.6750
 9918SOL    HW133542   9.549   0.101   9.101  0.1587  0.0398 -0.3708
 9918SOL    HW233543   9.474  -0.030   9.086  0.1169  0.1132 -0.8072
 9919SOL     OW33544   9.344   2.760   4.552  0.1247  0.8618 -0.3512
 9919SOL    HW133545   9.271   2.757   4.490 -0.4868  1.5227  0.3201
 9919SOL    HW233546   9.330   2.684   4.608 -0.2965  1.2275  0.0445
 9920SOL     OW33547   7.347   8.507   6.861 -0.0942 -0.0744 -0.2887
 9920SOL    HW133548   7.364   8.594   6.896  0.4231 -0.2069 -0.2090
 9920SOL    HW233549   7.431   8.477   6.828  0.2075 -1.3482  1.4809
 9921SOL     OW33550   5.154   9.461   3.848  0.7835  0.0671  0.5826
 9921SOL    HW133551   5.179   9.513   3.925 -0.1242 -0.5368  1.3082
 9921SOL    HW233552   5.121   9.379   3.884 -0.8032  0.2384 -0.3822
 9922SOL     OW33553   6.025   1.334   2.300 -0.1275  0.3504 -0.5820
 9922SOL    HW133554   5.943   1.298   2.267  0.2832  0.6627 -2.0307
 9922SOL    HW233555   6.035   1.296   2.387 -1.4981 -0.1574 -0.6222
 9923SOL     OW33556   2.256   6.304   0.465 -0.2311  0.1654  0.1142
 9923SOL    HW133557   2.185   6.365   0.445 -0.3176  0.5371  1.4889
 9923SOL    HW233558   2.215   6.234   0.514  0.0996 -0.3840 -0.3787
 9924SOL     OW33559   8.165   4.041   0.492  0.1116  0.6241 -0.0426
 9924SOL    HW133560   8.161   3.951   0.460 -0.3870  1.2744 -1.9334
 9924SOL    HW233561   8.243   4.078   0.451  0.1765  1.1352  0.5242
 9925SOL     OW33562   2.744   2.659   8.988  0.0612  0.5464 -0.0640
 9925SOL    HW133563   2.835   2.632   8.974 -0.0147 -0.9851  1.8359
 9925SOL    HW233564   2.695   2.614   8.920  0.2181 -2.7330  1.7703
 9926SOL     OW33565   8.533   9.444   0.218  0.2562 -0.1380 -0.3871
 9926SOL    HW133566   8.604   9.475   0.275 -0.0009  0.8279 -0.5674
 9926SOL    HW233567   8.573   9.439   0.131  0.3491 -0.5097 -0.3237
 9927SOL     OW33568   6.521   7.744   6.287  0.0643  0.1742 -0.3356
 9927SOL    HW133569   6.460   7.672   6.304  0.0097  0.3676  0.3073
 9927SOL    HW233570   6.519   7.755   6.192 -0.1452 -0.4812 -0.4117
 9928SOL     OW33571   1.088   7.232   2.598  0.6143  0.3373  0.1636
 9928SOL    HW133572   1.068   7.322   2.572  0.1228 -0.7214 -3.9378
 9928SOL    HW233573   1.003   7.191   2.614  0.6676  0.0723 -0.2078
 9929SOL     OW33574   2.969   2.798   0.363  0.5257 -0.4083  0.2260
 9929SOL    HW133575   2.890   2.852   0.352 -0.0204 -0.3928  3.3461
 9929SOL    HW233576   2.946   2.714   0.325 -0.1109  0.2894 -0.9962
 9930SOL     OW33577   7.357   9.971   0.687 -0.0190 -0.0585 -0.0659
 9930SOL    HW133578   7.281   9.924   0.721 -0.1617  0.1478 -0.1002
 9930SOL    HW233579   7.356   9.954   0.593  0.5037 -0.8192  0.0489
 9931SOL     OW33580   7.035  10.068   3.126  0.0886 -0.0997  0.3768
 9931SOL    HW133581   6.979  10.072   3.204  0.8401  0.3024  0.9081
 9931SOL    HW233582   6.991  10.006   3.068 -2.1858  1.9450 -0.2422
 9932SOL     OW33583   7.131   6.097   1.739  0.2351  0.0019 -0.4498
 9932SOL    HW133584   7.142   6.142   1.823 -0.5490 -1.1308  0.2987
 9932SOL    HW233585   7.156   6.162   1.673  1.3605  0.7531  0.6724
 9933SOL     OW33586   3.362   7.821   9.952  1.2398  0.2664  0.3879
 9933SOL    HW133587   3.401   7.833  10.039 -1.2261  0.5609  1.5366
 9933SOL    HW233588   3.373   7.906   9.909 -0.2633  1.1438  1.6447
 9934SOL     OW33589   7.581   8.268   7.103  0.4019 -0.1148 -0.2349
 9934SOL    HW133590   7.663   8.317   7.092 -1.5801  3.6436 -0.0605
 9934SOL    HW233591   7.577   8.250   7.197  0.8928 -0.0191 -0.1909
 9935SOL     OW33592   7.362   7.513   5.418 -0.4331 -1.0351  0.3807
 9935SOL    HW133593   7.276   7.555   5.424 -0.0599 -0.2903  0.7009
 9935SOL    HW233594   7.354   7.433   5.469 -0.7053 -0.5509  1.1183
 9936SOL     OW33595   6.539   9.460   1.895  0.8344 -0.5123 -0.3908
 9936SOL    HW133596   6.603   9.525   1.865  0.1520  1.2513  1.6064
 9936SOL    HW233597   6.589   9.404   1.954  1.1043 -0.8427 -0.9281
 9937SOL     OW33598   8.196   3.475   4.273  0.0017 -0.0616 -0.5323
 9937SOL    HW133599   8.251   3.411   4.227  2.2912  0.5222  1.2391
 9937SOL    HW233600   8.173   3.539   4.206  0.6373 -0.8514 -1.5467
 9938SOL     OW33601   3.182   6.197   2.749  0.3429  0.3321  0.5830
 9938SOL    HW133602   3.087   6.186   2.739  0.2097  1.2332  0.7695
 9938SOL    HW233603   3.192   6.286   2.785  1.1906 -0.1830  1.6841
 9939SOL     OW33604  10.170   4.937   1.104  0.7589 -0.0117  0.3379
 9939SOL    HW133605  10.144   4.944   1.012 -0.0557 -0.8983  0.4846
 9939SOL    HW233606  10.265   4.926   1.101  0.7832  0.3386 -0.3786
 9940SOL     OW33607   1.814   3.790   4.575 -0.3894  0.3077 -0.4541
 9940SOL    HW133608   1.786   3.848   4.504  1.6114  0.4046 -1.2307
 9940SOL    HW233609   1.908   3.776   4.559  0.1384  0.3519  2.1795
 9941SOL     OW33610   8.818   9.892   2.065 -0.0677 -0.2855  0.6372
 9941SOL    HW133611   8.867   9.810   2.060  0.6222  0.1591  0.0047
 9941SOL    HW233612   8.727   9.865   2.078 -0.1376 -1.2051 -1.5055
 9942SOL     OW33613   8.799   3.046   0.233  0.0227  0.4492 -0.0346
 9942SOL    HW133614   8.842   3.026   0.150  0.3852  0.8309  0.0550
 9942SOL    HW233615   8.783   3.141   0.229 -1.1876  0.2546 -0.2407
 9943SOL     OW33616   5.981   6.883   5.206  0.4683  0.1818  0.2046
 9943SOL    HW133617   6.028   6.963   5.183  0.9831 -0.0803  0.3305
 9943SOL    HW233618   6.002   6.822   5.135 -0.7526  0.4678 -0.4438
 9944SOL     OW33619   3.855   0.558   8.190 -0.0266 -0.6384  0.4482
 9944SOL    HW133620   3.814   0.523   8.111  1.2764  0.9860 -1.0259
 9944SOL    HW233621   3.915   0.490   8.219  1.7859 -0.1507 -1.8181
 9945SOL     OW33622   1.420   1.329   1.746  0.1381  0.1455 -0.2021
 9945SOL    HW133623   1.443   1.328   1.839 -0.0134  2.1669 -0.0878
 9945SOL    HW233624   1.446   1.417   1.717  0.7443 -0.6502 -2.2273
 9946SOL     OW33625   1.926  10.127   0.479 -0.0444  0.3207 -0.1106
 9946SOL    HW133626   1.949  10.047   0.526 -0.6083  0.5434  0.5749
 9946SOL    HW233627   1.836  10.114   0.451 -0.7174  1.3106  1.4046
 9947SOL     OW33628   7.201   8.681   0.749 -0.0689  0.5069  0.0438
 9947SOL    HW133629   7.176   8.773   0.754  0.6784  0.7972 -1.1683
 9947SOL    HW233630   7.296   8.682   0.761 -0.0183 -0.0694 -0.3074
 9948SOL     OW33631   3.527   7.164   8.565  0.4232 -0.1115  0.3301
 9948SOL    HW133632   3.613   7.205   8.576  0.0471  0.9111 -0.4466
 9948SOL    HW233633   3.479   7.189   8.644 -0.5948  3.0362 -1.1146
 9949SOL     OW33634   2.850   5.185   1.038 -0.2872 -0.5803 -0.1541
 9949SOL    HW133635   2.837   5.210   1.129  0.5317 -0.1430 -0.1459
 9949SOL    HW233636   2.902   5.105   1.042  0.3721 -0.1684 -0.2342
 9950SOL     OW33637   9.725   7.558   7.116 -0.4183 -0.2529 -0.2968
 9950SOL    HW133638   9.799   7.592   7.066 -0.2457  0.3268  0.3336
 9950SOL    HW233639   9.661   7.628   7.115 -0.7599 -0.5633 -0.4154
 9951SOL     OW33640   8.871   1.218   3.802 -0.2198 -0.1553  0.1159
 9951SOL    HW133641   8.934   1.289   3.794 -0.1446 -0.2749 -0.3714
 9951SOL    HW233642   8.817   1.225   3.723  0.0897 -0.9328 -0.1744
 9952SOL     OW33643   2.812   7.334   3.414  0.2900  0.0276 -0.1610
 9952SOL    HW133644   2.741   7.358   3.356  0.2543  2.2560  0.7173
 9952SOL    HW233645   2.825   7.240   3.399 -3.9455 -0.9371  0.8487
 9953SOL     OW33646   3.134   8.498   8.068  0.2534  0.2884  0.0077
 9953SOL    HW133647   3.229   8.506   8.070  0.1724  1.6013 -0.7107
 9953SOL    HW233648   3.104   8.572   8.015 -1.0124 -1.4470 -1.8815
 9954SOL     OW33649   4.238   2.024   1.782  0.2255  0.4665  0.1054
 9954SOL    HW133650   4.197   2.106   1.810  0.8622  0.8637 -0.0947
 9954SOL    HW233651   4.242   2.030   1.687 -0.9628 -0.4108 -0.0099
 9955SOL     OW33652   0.140   5.186   7.408 -0.2006  0.2057 -0.6143
 9955SOL    HW133653   0.108   5.199   7.319  0.6071  0.5362 -0.8596
 9955SOL    HW233654   0.142   5.274   7.446 -0.3445  0.0902 -0.3326
 9956SOL     OW33655   3.285   4.644   3.039 -0.0759  0.4250 -0.1505
 9956SOL    HW133656   3.223   4.591   2.989 -0.7758  0.4681  0.6494
 9956SOL    HW233657   3.267   4.734   3.012  0.4833  0.3489 -0.8200
 9957SOL     OW33658   8.829   7.095   5.129  0.5477 -0.2002 -0.6151
 9957SOL    HW133659   8.882   7.015   5.119  1.3966 -0.0609  2.0196
 9957SOL    HW233660   8.832   7.136   5.043  1.7758 -2.0038 -1.5001
 9958SOL     OW33661   3.543   7.729   9.014  0.0970 -0.4734  0.1948
 9958SOL    HW133662   3.527   7.644   8.974  2.0824 -0.7007 -0.2343
 9958SOL    HW233663   3.525   7.716   9.107 -1.8022 -0.7082 -0.1648
 9959SOL     OW33664   0.030   8.100   5.354  0.0684 -0.1906 -0.0259
 9959SOL    HW133665   0.045   8.138   5.268 -0.0414 -1.1695 -0.4893
 9959SOL    HW233666   0.110   8.118   5.403  0.3692 -0.1534 -0.5274
 9960SOL     OW33667   3.948   5.270   2.848 -0.0744 -0.8461  0.1068
 9960SOL    HW133668   3.861   5.273   2.887 -0.5477 -0.7752 -0.9203
 9960SOL    HW233669   4.007   5.261   2.922 -0.7131  2.1738  1.0836
 9961SOL     OW33670   6.400   8.003   0.189  0.5284 -0.2725 -0.4992
 9961SOL    HW133671   6.457   8.001   0.112  1.6149  3.0112  0.0534
 9961SOL    HW233672   6.417   8.088   0.229 -0.6737 -1.4728  2.9041
 9962SOL     OW33673   8.439   0.496   7.422  0.3065  0.9677 -0.5418
 9962SOL    HW133674   8.435   0.491   7.327  1.4056 -0.1394 -0.5481
 9962SOL    HW233675   8.532   0.494   7.443  0.1501  2.6124  0.5153
 9963SOL     OW33676   9.039   6.405   5.477 -0.3544 -0.2447 -0.7003
 9963SOL    HW133677   9.075   6.430   5.562 -0.0912 -1.3319 -0.4830
 9963SOL    HW233678   9.115   6.404   5.418 -0.6791  1.5074 -1.2188
 9964SOL     OW33679   1.371   8.674   7.684  0.1185  0.3856 -0.5558
 9964SOL    HW133680   1.321   8.593   7.696 -0.8972  1.1526  0.7601
 9964SOL    HW233681   1.377   8.685   7.590  0.2530 -1.2024 -0.7603
 9965SOL     OW33682   9.265   6.638   3.417  0.4511 -0.4673 -0.0028
 9965SOL    HW133683   9.262   6.550   3.380  2.3649 -0.6110  0.0739
 9965SOL    HW233684   9.321   6.687   3.357 -0.3770  0.6549  0.1020
 9966SOL     OW33685   9.473   2.021   4.120  0.1955 -0.2511  0.1526
 9966SOL    HW133686   9.484   1.979   4.205  1.0809  1.0268  0.7040
 9966SOL    HW233687   9.500   1.955   4.056  0.7556 -0.7957  0.9385
 9967SOL     OW33688   1.996   0.482   0.778 -0.4857  0.5659  0.0651
 9967SOL    HW133689   1.955   0.515   0.698 -2.1410 -0.3990  0.4548
 9967SOL    HW233690   2.090   0.481   0.758 -0.3502  4.5919 -0.2331
 9968SOL     OW33691   1.670   5.097   2.989 -0.4133 -0.3451 -0.2419
 9968SOL    HW133692   1.751   5.049   3.003 -0.4120  0.1382  1.6101
 9968SOL    HW233693   1.605   5.051   3.043 -0.8210  0.6245  0.1251
 9969SOL     OW33694   9.006   9.312   9.113 -0.4282 -0.5909 -0.7436
 9969SOL    HW133695   9.086   9.352   9.078 -0.4111  0.0787  0.0318
 9969SOL    HW233696   8.939   9.380   9.102 -0.7670 -0.9446 -0.8765
 9970SOL     OW33697   2.272   3.573   0.344  0.0112  0.0525 -0.0222
 9970SOL    HW133698   2.211   3.571   0.270 -0.1691 -0.3488  0.1311
 9970SOL    HW233699   2.268   3.662   0.377  2.5740  1.2483 -2.5258
 9971SOL     OW33700   7.295   4.537   2.790 -0.3630  0.3569  0.0563
 9971SOL    HW133701   7.340   4.621   2.791  0.4298 -0.0311 -0.8250
 9971SOL    HW233702   7.203   4.558   2.808  0.1906  1.1200  2.2259
 9972SOL     OW33703   3.747   3.563  10.018 -0.1556 -0.4030  0.5089
 9972SOL    HW133704   3.835   3.577  10.053 -0.5837 -1.7346  2.2509
 9972SOL    HW233705   3.691   3.619  10.072 -0.6009 -0.9835  0.6540
 9973SOL     OW33706  10.154   7.850   6.421 -0.1554  0.0638 -0.0419
 9973SOL    HW133707  10.237   7.811   6.392  0.4350 -0.5058  2.1976
 9973SOL    HW233708  10.104   7.863   6.341  1.8019 -0.2797 -1.3885
 9974SOL     OW33709   4.768   9.970  10.307 -0.0287  0.0822  0.4683
 9974SOL    HW133710   4.720   9.912  10.365 -0.8114  0.6147  0.3744
 9974SOL    HW233711   4.860   9.955  10.328 -0.2366 -0.8831  0.7253
 9975SOL     OW33712   4.100   1.773   2.458  0.2454 -0.4186  0.5769
 9975SOL    HW133713   4.162   1.700   2.445 -0.6672 -1.4081  1.5404
 9975SOL    HW233714   4.016   1.737   2.430 -0.3204  0.0650  1.6178
 9976SOL     OW33715   2.599   8.560   2.252 -0.1857  0.3852  0.1192
 9976SOL    HW133716   2.528   8.508   2.287 -1.8798  0.3094 -3.0664
 9976SOL    HW233717   2.595   8.643   2.300 -2.7848  0.5599 -0.2695
 9977SOL     OW33718   5.879   9.009   2.848  0.5859  0.5222  0.5566
 9977SOL    HW133719   5.800   8.995   2.899  0.7217 -1.1852  0.3525
 9977SOL    HW233720   5.926   8.926   2.853  1.5784  0.9712 -0.6726
 9978SOL     OW33721   7.316   9.044   0.433 -0.0124 -0.4143 -0.4958
 9978SOL    HW133722   7.325   9.138   0.444 -0.0804 -0.4016 -0.5554
 9978SOL    HW233723   7.226   9.024   0.460 -0.6876 -0.1778 -2.3947
 9979SOL     OW33724   8.262   3.987   3.301 -0.2832 -0.0722 -0.2130
 9979SOL    HW133725   8.342   4.040   3.305 -1.0527  1.1654 -0.7163
 9979SOL    HW233726   8.279   3.924   3.231  0.8016 -0.8018  0.6699
 9980SOL     OW33727   3.861   1.638   0.044  0.0837 -0.1909  0.3721
 9980SOL    HW133728   3.911   1.708   0.003  1.0221 -1.5945 -0.9802
 9980SOL    HW233729   3.783   1.629  -0.010 -0.1154 -0.0872  0.6393
 9981SOL     OW33730   2.806   2.524   4.420  0.2929  0.5257  0.3193
 9981SOL    HW133731   2.763   2.459   4.365  3.0280 -1.9813  0.9159
 9981SOL    HW233732   2.818   2.480   4.504  3.4516  1.1958  0.3342
 9982SOL     OW33733   0.929   6.789   2.001  0.5901 -0.1696 -0.6735
 9982SOL    HW133734   0.926   6.694   2.012  2.8406 -0.4823 -2.1749
 9982SOL    HW233735   0.911   6.823   2.089 -0.9774 -1.9240 -0.2512
 9983SOL     OW33736   8.042   5.258   1.824 -0.1233 -0.6288 -0.2667
 9983SOL    HW133737   8.017   5.221   1.739  0.9556  1.1562 -1.4206
 9983SOL    HW233738   8.110   5.322   1.804 -2.0305  2.1630  1.5587
 9984SOL     OW33739   7.734   6.783   2.119  0.3797  0.1557  0.8183
 9984SOL    HW133740   7.654   6.787   2.065  1.7096  0.4566 -1.2244
 9984SOL    HW233741   7.757   6.690   2.122  1.1732  0.2925 -0.5185
 9985SOL     OW33742   3.807   1.176   3.649  0.0423 -0.5724  0.5067
 9985SOL    HW133743   3.850   1.179   3.734 -1.0843 -3.4660  1.3352
 9985SOL    HW233744   3.720   1.212   3.665 -0.3896 -1.6966  0.7932
 9986SOL     OW33745   4.627   8.555   9.366 -0.0167 -0.6253  0.0990
 9986SOL    HW133746   4.547   8.593   9.402  0.3941  0.6891 -0.3000
 9986SOL    HW233747   4.645   8.606   9.287  0.6694 -1.5650 -0.3758
 9987SOL     OW33748   0.843   5.425   3.309 -0.3972 -0.1253  0.3329
 9987SOL    HW133749   0.839   5.362   3.237 -1.1987  0.9980 -0.6402
 9987SOL    HW233750   0.863   5.372   3.386  0.5639 -1.3550 -0.7116
 9988SOL     OW33751   1.753   7.231   7.669 -0.5756 -0.4924  0.4135
 9988SOL    HW133752   1.792   7.255   7.753  1.0897 -2.0957  0.1787
 9988SOL    HW233753   1.714   7.312   7.636  1.3309  0.9008  1.3714
 9989SOL     OW33754   7.108   5.870   6.952 -0.0404  0.2200 -0.2020
 9989SOL    HW133755   7.087   5.934   6.884  1.7617  2.0946  0.8779
 9989SOL    HW233756   7.203   5.859   6.947 -0.2296 -2.0242  0.0020
 9990SOL     OW33757   6.480   0.705   8.014 -0.4260 -0.0125  0.3704
 9990SOL    HW133758   6.468   0.790   7.973  1.6648  0.2044  0.1492
 9990SOL    HW233759   6.499   0.645   7.941  0.7392 -0.1306  0.7565
 9991SOL     OW33760   8.561   3.767   0.032 -0.0345  0.0461 -0.0259
 9991SOL    HW133761   8.494   3.810   0.084 -0.8132 -1.2897  0.1358
 9991SOL    HW233762   8.513   3.728  -0.041  0.8009  0.4151 -0.7913
 9992SOL     OW33763   7.451   1.145   8.739  0.5186  0.3483 -0.2287
 9992SOL    HW133764   7.422   1.218   8.793  0.2092  0.1461 -0.1163
 9992SOL    HW233765   7.398   1.071   8.770  1.2641 -0.0615  0.0788
 9993SOL     OW33766   5.261   3.904   6.972 -0.3187 -0.1017 -0.8497
 9993SOL    HW133767   5.191   3.934   7.029  1.9393 -0.5112  2.4275
 9993SOL    HW233768   5.219   3.839   6.914 -2.7653  0.3636  0.2819
 9994SOL     OW33769   4.121   1.963   7.422 -0.6471 -0.4784 -0.2537
 9994SOL    HW133770   4.102   1.919   7.505 -0.9117 -0.7445 -0.4494
 9994SOL    HW233771   4.202   1.922   7.391  0.3960  0.7922  0.6749
 9995SOL     OW33772   7.514   1.121   5.925 -0.1572  0.2136 -0.2742
 9995SOL    HW133773   7.484   1.031   5.936 -0.5021  0.1394 -1.6476
 9995SOL    HW233774   7.504   1.160   6.012 -1.0760 -0.7513  0.0784
 9996SOL     OW33775   8.407   1.498   1.690  0.2748 -0.3176 -0.5972
 9996SOL    HW133776   8.468   1.554   1.738 -0.2879  0.6622 -1.0004
 9996SOL    HW233777   8.441   1.409   1.703  0.4735 -0.0344  1.1203
 9997SOL     OW33778   5.420   0.114   6.602 -0.5596  0.0752 -0.2607
 9997SOL    HW133779   5.492   0.123   6.665 -2.0351 -0.5367  1.5984
 9997SOL    HW233780   5.463   0.121   6.517  1.7426 -0.4150  0.7581
 9998SOL     OW33781   3.089   7.209   5.936 -0.2993 -0.0895  0.3161
 9998SOL    HW133782   3.080   7.164   5.852  0.0972 -1.9250  1.2171
 9998SOL    HW233783   2.999   7.213   5.971 -0.2164 -1.1377  0.6840
 9999SOL     OW33784   0.305   7.827   9.505 -0.6409  0.4961 -0.1703
 9999SOL    HW133785   0.267   7.899   9.455 -1.4086  0.7424  0.7426
 9999SOL    HW233786   0.268   7.836   9.593  0.3559 -0.1712  0.3402
10000SOL     OW33787   9.172   2.138   2.348  0.6500 -0.4427 -0.2209
10000SOL    HW133788   9.140   2.223   2.317  0.4071 -0.7202 -0.7397
10000SOL    HW233789   9.264   2.153   2.369  0.9262 -0.3406 -1.4500
10001SOL     OW33790   0.858   8.190   0.957  0.2145 -0.2632 -0.2227
10001SOL    HW133791   0.941   8.230   0.983 -0.2804  0.2244  0.6542
10001SOL    HW233792   0.834   8.235   0.877  0.8707 -0.5138 -0.5654
10002SOL     OW33793   4.445   8.441   2.365  0.5669  0.4577  0.0209
10002SOL    HW133794   4.382   8.393   2.311 -2.4708  1.4070  2.4297
10002SOL    HW233795   4.443   8.530   2.331  3.4410 -0.1439 -2.1062
10003SOL     OW33796   8.925   5.020   0.154  0.0817  0.4350  0.1616
10003SOL    HW133797   9.004   5.074   0.160  0.2830  0.3559 -1.3156
10003SOL    HW233798   8.861   5.076   0.110  0.0246 -0.2292 -0.6190
10004SOL     OW33799   7.859  10.154   4.010  0.0850  0.0431 -0.5363
10004SOL    HW133800   7.943  10.166   3.966  0.2215 -1.3691 -0.7170
10004SOL    HW233801   7.803  10.114   3.943 -0.3687 -0.1269 -0.0582
10005SOL     OW33802   0.963   9.248   4.340 -0.2779  0.7649  0.1233
10005SOL    HW133803   0.877   9.216   4.311  0.4583 -1.3882  0.1830
10005SOL    HW233804   0.978   9.204   4.424  1.6293 -0.3249 -0.7312
10006SOL     OW33805   9.627   6.139   0.274 -0.1588  0.2058 -0.2157
10006SOL    HW133806   9.546   6.138   0.326 -0.6726  1.6686 -0.9184
10006SOL    HW233807   9.695   6.108   0.334 -0.5984  2.4737  1.6052
10007SOL     OW33808   6.508   8.748   8.411 -0.4026  0.1452  0.7425
10007SOL    HW133809   6.474   8.685   8.475  2.0326 -1.1577  0.8540
10007SOL    HW233810   6.524   8.827   8.462 -0.4839 -0.1848  1.2891
10008SOL     OW33811   3.311   5.262   6.845  0.6309  0.6802 -0.1972
10008SOL    HW133812   3.331   5.296   6.757 -0.3125 -0.3694 -0.8466
10008SOL    HW233813   3.216   5.273   6.853  0.6177  0.1354  0.4245
10009SOL     OW33814   0.853   3.305   7.951  0.5377  0.0463 -0.3507
10009SOL    HW133815   0.811   3.221   7.969  0.7834 -0.5007 -2.1197
10009SOL    HW233816   0.789   3.354   7.900  1.2924 -0.0448 -1.4182
10010SOL     OW33817   8.618   8.109   6.844 -0.6717 -0.4474  0.3372
10010SOL    HW133818   8.711   8.085   6.848 -0.7336 -0.9586 -0.7842
10010SOL    HW233819   8.618   8.204   6.843 -0.0305 -0.4229 -1.2530
10011SOL     OW33820   0.240   3.262   7.488  0.0038  0.6310  1.1318
10011SOL    HW133821   0.202   3.346   7.462  3.1395  2.0535  0.6848
10011SOL    HW233822   0.250   3.268   7.583  1.0534  1.1793  0.9974
10012SOL     OW33823   4.856   6.971   7.867  0.0438  0.4078  0.6305
10012SOL    HW133824   4.889   6.955   7.956 -0.9258 -0.1487  0.8996
10012SOL    HW233825   4.920   7.031   7.829 -0.2292  1.7237  2.1485
10013SOL     OW33826   9.881   5.186   7.119  0.3180  1.0377  0.1778
10013SOL    HW133827   9.865   5.213   7.029 -1.3115  0.0814  0.1390
10013SOL    HW233828   9.842   5.256   7.172  2.3124  2.1966  0.2048
10014SOL     OW33829   3.313   2.515  10.061  0.2092  0.1365  0.6366
10014SOL    HW133830   3.246   2.561  10.010  0.7420  1.1886  0.8513
10014SOL    HW233831   3.263   2.458  10.120 -0.4799  0.5249  0.4398
10015SOL     OW33832   0.874   0.395   4.894 -0.3466  0.3466  0.2746
10015SOL    HW133833   0.863   0.343   4.973 -0.4437 -0.7736 -0.4571
10015SOL    HW233834   0.862   0.333   4.822  0.1953  1.2443 -0.6201
10016SOL     OW33835   2.837   5.114   4.041 -0.5546  0.1704 -0.1632
10016SOL    HW133836   2.849   5.176   3.969  0.6828 -0.0471 -0.1641
10016SOL    HW233837   2.916   5.060   4.040  0.4076  1.3533  2.5502
10017SOL     OW33838   8.542   9.360   1.903  0.1334  0.8448 -0.0412
10017SOL    HW133839   8.490   9.313   1.838  2.2759 -0.1320 -1.1854
10017SOL    HW233840   8.513   9.325   1.987  0.0847 -0.8861 -0.7444
10018SOL     OW33841   1.225   9.707   9.900 -0.6048 -0.1589 -0.2364
10018SOL    HW133842   1.223   9.642   9.829  0.9081  1.1684 -1.6099
10018SOL    HW233843   1.294   9.676   9.958 -1.3810 -0.8954  0.3145
10019SOL     OW33844   9.193   1.893   0.107 -0.0972 -0.3452 -0.3926
10019SOL    HW133845   9.133   1.840   0.160  0.1497 -1.1990 -0.9483
10019SOL    HW233846   9.150   1.899   0.022 -1.1877  2.2270  0.2618
10020SOL     OW33847   5.809   7.199   6.141 -0.0272 -0.2285  0.1578
10020SOL    HW133848   5.877   7.234   6.084 -0.7455 -0.0182 -0.6028
10020SOL    HW233849   5.854   7.174   6.221  0.7817  0.8243  0.0459
10021SOL     OW33850   0.239   7.829   2.889  0.8034 -0.3173  0.1169
10021SOL    HW133851   0.176   7.760   2.908 -0.0283 -0.6691 -3.3318
10021SOL    HW233852   0.220   7.897   2.955 -3.8497 -0.0507 -1.1379
10022SOL     OW33853   0.643  10.307   5.832  0.4550 -0.0288 -0.3467
10022SOL    HW133854   0.570  10.327   5.772 -0.0657  1.5916  0.7534
10022SOL    HW233855   0.660  10.390   5.877  1.7332 -0.8699  0.7859
10023SOL     OW33856   8.115   0.419   3.859 -0.6439  0.7564 -0.2899
10023SOL    HW133857   8.139   0.402   3.950 -0.8604  0.0558 -0.3617
10023SOL    HW233858   8.194   0.458   3.820 -0.2060  0.1231 -0.0615
10024SOL     OW33859   8.775   9.877   2.574  0.5783  0.5684  0.7880
10024SOL    HW133860   8.768   9.946   2.640  1.0225  0.0838  1.3519
10024SOL    HW233861   8.864   9.886   2.539 -0.1433  1.8149 -0.8877
10025SOL     OW33862   0.937   1.042   2.276  0.4723 -0.6059 -0.5474
10025SOL    HW133863   0.877   1.001   2.214  0.2096 -1.5498  0.3159
10025SOL    HW233864   0.881   1.098   2.330  0.7978  0.7701 -1.5798
10026SOL     OW33865   7.400   3.044   4.459  0.2606  0.2353 -0.3054
10026SOL    HW133866   7.440   2.968   4.501 -0.3314  1.6258  3.1006
10026SOL    HW233867   7.306   3.027   4.462  0.1472  0.9097  0.0932
10027SOL     OW33868   3.037   5.621   1.466 -0.3240 -0.0007 -0.5133
10027SOL    HW133869   3.117   5.574   1.488  1.1039  2.2136 -0.5628
10027SOL    HW233870   3.016   5.671   1.545 -0.8073  0.5413 -0.9743
10028SOL     OW33871   1.483   0.745   8.526 -0.3889 -0.0692  0.0323
10028SOL    HW133872   1.567   0.785   8.505 -1.0263  0.5937 -1.4295
10028SOL    HW233873   1.456   0.786   8.608  1.2958 -1.2727  1.2484
10029SOL     OW33874   6.005   0.697   8.828  0.5085 -0.6476  0.4695
10029SOL    HW133875   6.041   0.656   8.749  0.4704 -1.9793  1.1216
10029SOL    HW233876   5.947   0.766   8.794 -0.4102 -1.9413 -0.7199
10030SOL     OW33877   5.815   5.352   4.261 -0.3368 -0.5915 -0.6224
10030SOL    HW133878   5.889   5.410   4.242 -0.5358 -0.0210  0.3043
10030SOL    HW233879   5.856   5.266   4.274  0.0816 -0.4323 -0.8451
10031SOL     OW33880   0.479   3.659   2.324 -0.1115 -0.4249  0.7332
10031SOL    HW133881   0.514   3.575   2.355 -1.4215 -1.2907 -0.0074
10031SOL    HW233882   0.450   3.641   2.235 -0.9858  0.6411  0.7823
10032SOL     OW33883   4.211   1.446   8.415  0.2607  0.0070 -0.2537
10032SOL    HW133884   4.136   1.386   8.416 -1.1883  1.6649 -1.9325
10032SOL    HW233885   4.282   1.395   8.375 -1.6467  0.0564 -4.1118
10033SOL     OW33886   8.952   4.286   4.181  0.2142 -0.0716 -0.2874
10033SOL    HW133887   9.041   4.301   4.151 -0.4132  1.1499 -1.6102
10033SOL    HW233888   8.896   4.332   4.118 -1.3403 -0.5124  0.7008
10034SOL     OW33889   4.893   1.886   2.095  0.1465  0.3770  0.0352
10034SOL    HW133890   4.813   1.934   2.075 -0.3296  0.2780  1.5500
10034SOL    HW233891   4.963   1.937   2.056 -0.1674  3.1822  2.7480
10035SOL     OW33892   8.582   0.763   3.815 -0.1153  0.8530  0.1138
10035SOL    HW133893   8.663   0.783   3.769 -2.0931  1.6687 -3.3490
10035SOL    HW233894   8.578   0.667   3.816  0.5988  0.8176 -0.2220
10036SOL     OW33895   3.074   5.261   5.761 -0.1043  0.2214 -0.1385
10036SOL    HW133896   3.162   5.227   5.743  0.2171  0.7490  0.3903
10036SOL    HW233897   3.015   5.197   5.721  0.4810 -0.8526  0.6640
10037SOL     OW33898   0.052   5.786   9.955 -0.5767 -0.5675 -0.2059
10037SOL    HW133899   0.137   5.816   9.924 -0.1526 -1.3737  0.1470
10037SOL    HW233900  -0.012   5.843   9.912  0.2023  0.9851  0.6299
10038SOL     OW33901   8.737   3.351   2.696  0.9461 -0.1594  0.2683
10038SOL    HW133902   8.813   3.341   2.638  0.9160 -0.8457  0.3377
10038SOL    HW233903   8.766   3.414   2.762  1.1796  0.1900 -0.1609
10039SOL     OW33904   2.952   4.659   9.639  0.3778 -0.4263  0.4807
10039SOL    HW133905   2.916   4.571   9.631  2.3830 -1.1613 -1.3857
10039SOL    HW233906   2.935   4.683   9.730  1.1247 -3.3903  1.5141
10040SOL     OW33907   6.482   2.185   7.048 -0.2585  0.0606  0.0814
10040SOL    HW133908   6.414   2.143   7.101  1.0219 -0.7424  1.1643
10040SOL    HW233909   6.524   2.247   7.107 -0.9350  1.5835 -0.9841
10041SOL     OW33910   8.574   9.447   6.127 -0.5547  0.1837  0.2361
10041SOL    HW133911   8.535   9.360   6.133 -0.7149  0.0985 -1.5334
10041SOL    HW233912   8.546   9.491   6.206 -0.6266 -1.3115  1.0838
10042SOL     OW33913   8.740   1.691   3.198  0.4414 -0.4669  0.2291
10042SOL    HW133914   8.787   1.755   3.145 -2.3138  1.6333  0.1073
10042SOL    HW233915   8.775   1.701   3.286 -1.2564  2.8138  0.6668
10043SOL     OW33916   8.535   0.153   1.028 -0.6194  0.9107  0.1321
10043SOL    HW133917   8.610   0.145   0.969 -1.8582  0.1957 -1.4119
10043SOL    HW233918   8.539   0.073   1.081 -1.7106 -0.4476 -1.7306
10044SOL     OW33919   6.434   8.941   7.211  0.0713  0.0469 -0.3149
10044SOL    HW133920   6.378   8.913   7.283  0.6913 -0.0538  0.1421
10044SOL    HW233921   6.430   9.036   7.213  0.8057  0.0754  0.4545
10045SOL     OW33922   8.880   6.337   9.791 -0.1615 -0.1028 -0.0005
10045SOL    HW133923   8.839   6.253   9.772 -0.8992  0.0030  1.0533
10045SOL    HW233924   8.841   6.399   9.729 -0.7069 -0.2427  0.2058
10046SOL     OW33925   1.325   0.562   0.551  0.0564 -0.0137  0.2006
10046SOL    HW133926   1.236   0.592   0.532  0.3690  1.4708  0.8669
10046SOL    HW233927   1.316   0.505   0.627 -0.2512  0.8370  0.8186
10047SOL     OW33928  10.017   4.518   7.845 -0.3923 -0.3604 -0.1230
10047SOL    HW133929   9.983   4.503   7.757  0.2279  0.0302 -0.4366
10047SOL    HW233930  10.039   4.611   7.847 -0.7884 -0.2739  0.5846
10048SOL     OW33931   5.814   8.988   9.947  0.2545  0.1070 -0.3569
10048SOL    HW133932   5.853   9.075   9.940 -0.3310  0.3543 -0.6360
10048SOL    HW233933   5.772   8.987  10.033 -0.9198  0.6118 -0.9005
10049SOL     OW33934   2.619   9.964   8.046 -0.2130 -0.3892 -0.3666
10049SOL    HW133935   2.568   9.899   7.997  1.0431 -0.8523 -1.1223
10049SOL    HW233936   2.679  10.001   7.982 -0.1164  0.6972  0.3244
10050SOL     OW33937  10.079   8.448   4.870 -0.5237 -0.6134  0.0482
10050SOL    HW133938  10.173   8.461   4.872 -0.5272 -0.6512  0.9681
10050SOL    HW233939  10.051   8.483   4.785  0.1250  0.7820  0.3837
10051SOL     OW33940   1.547   3.500   4.681 -0.5223 -0.1883 -0.4427
10051SOL    HW133941   1.538   3.452   4.599  2.4947  0.2320 -1.1187
10051SOL    HW233942   1.557   3.431   4.747 -2.1840 -0.5079 -0.4718
10052SOL     OW33943   9.435   1.898   2.519 -0.3538 -0.0736  0.3538
10052SOL    HW133944   9.442   1.992   2.537 -0.4333 -0.1195  0.6136
10052SOL    HW233945   9.346   1.874   2.544 -1.0959  0.2248 -1.7357
10053SOL     OW33946   6.455   6.403   5.151  0.1826  0.2218  0.5500
10053SOL    HW133947   6.429   6.443   5.068 -0.5539 -0.7335  0.2926
10053SOL    HW233948   6.517   6.334   5.125  0.7664  0.6176  0.8945
10054SOL     OW33949   5.934   5.384   4.597  0.0085 -0.2479  0.0698
10054SOL    HW133950   5.985   5.336   4.663  1.2540  1.4276  0.3998
10054SOL    HW233951   5.990   5.459   4.574 -0.7130 -0.3820 -2.3667
10055SOL     OW33952   3.807   8.107   4.649  0.0266  0.0746 -0.2636
10055SOL    HW133953   3.857   8.183   4.678  0.5559 -0.6849  0.8649
10055SOL    HW233954   3.841   8.034   4.700 -2.9427 -0.3170  1.4463
10056SOL     OW33955   2.428   2.952   9.411 -0.6601  0.5571  0.2654
10056SOL    HW133956   2.367   2.935   9.339  1.7454 -0.8284 -1.6190
10056SOL    HW233957   2.407   2.885   9.476 -0.9658 -0.1025 -0.4906
10057SOL     OW33958   1.674   5.646   1.295  0.4059 -1.2084  0.1116
10057SOL    HW133959   1.591   5.693   1.292  1.1518  0.1711  0.1674
10057SOL    HW233960   1.650   5.554   1.301 -1.1099 -0.7919  0.7439
10058SOL     OW33961   3.095   7.362  10.100 -0.4176 -0.5543 -0.1258
10058SOL    HW133962   3.068   7.271  10.083  1.2825 -0.8687 -1.3587
10058SOL    HW233963   3.174   7.355  10.152 -1.4536  0.3175  1.6611
10059SOL     OW33964   5.517   0.152   5.478 -0.2497  0.3260  0.3034
10059SOL    HW133965   5.582   0.206   5.434  1.5812  0.9101  3.4285
10059SOL    HW233966   5.559   0.067   5.491 -0.4256  0.4111  1.5602
10060SOL     OW33967   7.165   7.712  10.357  0.3636 -0.5053 -0.9726
10060SOL    HW133968   7.089   7.682  10.406  1.4408 -0.6457  0.6881
10060SOL    HW233969   7.168   7.654  10.280  0.6692 -2.7576  0.6315
10061SOL     OW33970   4.404   3.748   0.456 -0.3038  0.5684  0.0943
10061SOL    HW133971   4.433   3.827   0.411  0.4308  1.2429  1.6631
10061SOL    HW233972   4.377   3.689   0.386 -1.2178  2.3200 -1.1068
10062SOL     OW33973   3.231   7.694   8.618 -0.2569  0.1960 -0.0643
10062SOL    HW133974   3.244   7.645   8.699 -1.1260 -1.8163 -1.0623
10062SOL    HW233975   3.155   7.750   8.636 -0.2154  0.0428  0.6333
10063SOL     OW33976   1.261   3.247   0.085 -0.4105  0.0661 -0.1099
10063SOL    HW133977   1.258   3.181   0.155 -0.3723 -0.3429 -0.4957
10063SOL    HW233978   1.335   3.302   0.108 -1.7760  1.3688  1.4611
10064SOL     OW33979   6.824   7.709   2.553  0.4083 -0.2181  0.2670
10064SOL    HW133980   6.814   7.767   2.628  0.5354 -0.5564  0.5489
10064SOL    HW233981   6.740   7.663   2.546  0.0029  0.6067 -0.4785
10065SOL     OW33982   2.449   6.181   9.585 -0.0828 -0.5853  0.2855
10065SOL    HW133983   2.419   6.121   9.517  0.7699 -0.4337 -0.2457
10065SOL    HW233984   2.373   6.193   9.642 -0.6517 -1.1310 -0.3384
10066SOL     OW33985   8.845   0.819   9.049  0.1825 -0.0933  0.2228
10066SOL    HW133986   8.817   0.892   9.104 -0.5079 -0.7767  0.7879
10066SOL    HW233987   8.806   0.742   9.089  2.2975 -1.0134  0.6293
10067SOL     OW33988   4.965   9.741   2.162  0.8750  0.0502 -0.2899
10067SOL    HW133989   4.965   9.803   2.235  0.4910  1.0317 -1.0939
10067SOL    HW233990   5.007   9.789   2.090  0.5645 -0.6290 -0.9373
10068SOL     OW33991   6.784   0.031   2.617 -0.1708  0.6416  0.1219
10068SOL    HW133992   6.826   0.093   2.556  0.5186  0.4172  0.3565
10068SOL    HW233993   6.703   0.005   2.572  0.6371 -0.0266 -1.0316
10069SOL     OW33994   0.076   2.979   1.056  0.8114  0.1391  1.0852
10069SOL    HW133995   0.123   3.011   0.979  1.0295  0.7777  1.4748
10069SOL    HW233996  -0.011   2.958   1.023  0.9942  0.1086  0.6010
10070SOL     OW33997   6.905   5.122   1.336  0.8087 -0.0988 -0.0774
10070SOL    HW133998   6.871   5.182   1.269 -2.2520 -1.6807 -0.1441
10070SOL    HW233999   6.968   5.067   1.289  0.8421  0.6301 -0.9212
10071SOL     OW34000   2.580   5.298   8.370 -0.4251 -0.4148 -0.3662
10071SOL    HW134001   2.672   5.275   8.378 -0.2682  0.7848  2.1354
10071SOL    HW234002   2.577   5.360   8.297  1.3305  1.8785  1.3550
10072SOL     OW34003   1.548   1.365   2.758 -0.1076 -0.2758  0.1694
10072SOL    HW134004   1.529   1.395   2.848 -0.3131  0.1308 -0.0049
10072SOL    HW234005   1.640   1.341   2.760 -0.6450 -2.4710  1.0955
10073SOL     OW34006   5.676   3.246   4.563 -0.1125 -0.0904  0.1191
10073SOL    HW134007   5.674   3.285   4.476  0.9653  0.1142  0.1713
10073SOL    HW234008   5.635   3.312   4.619  2.7719  1.6627  0.4198
10074SOL     OW34009   8.001   8.866   2.517 -0.2911  0.1510  0.3208
10074SOL    HW134010   7.966   8.909   2.439  1.3717  2.1447  0.5608
10074SOL    HW234011   7.925   8.851   2.573 -1.0544  2.4688  0.0155
10075SOL     OW34012   0.346   9.446   5.647  0.5550 -0.6222 -0.3422
10075SOL    HW134013   0.353   9.538   5.672 -0.5735 -0.8060  0.7567
10075SOL    HW234014   0.416   9.403   5.697 -0.5478 -0.7137  1.2079
10076SOL     OW34015   8.362   1.431  10.005 -0.3880 -0.3502  0.8638
10076SOL    HW134016   8.378   1.373   9.930 -1.1450 -2.2020  2.0421
10076SOL    HW234017   8.414   1.393  10.075  0.2828  1.3439  1.3062
10077SOL     OW34018   5.656   4.191   4.943 -0.0114  0.1111  0.4782
10077SOL    HW134019   5.576   4.139   4.937 -0.3801  0.8076 -1.1263
10077SOL    HW234020   5.716   4.150   4.881  0.4658  0.2945  0.8149
10078SOL     OW34021   8.480   2.870   2.356  0.1426 -0.1715  0.1841
10078SOL    HW134022   8.493   2.777   2.333  1.4699  0.2510 -0.9439
10078SOL    HW234023   8.439   2.907   2.278  0.2888  0.3429  0.3529
10079SOL     OW34024   2.513   8.138   0.705  0.1057  0.0638 -0.2072
10079SOL    HW134025   2.548   8.163   0.620  0.5083  2.0936  0.5035
10079SOL    HW234026   2.425   8.175   0.707  0.0205 -0.1492  0.1842
10080SOL     OW34027   5.820   2.230   8.882  0.1736 -0.3571 -0.2294
10080SOL    HW134028   5.736   2.274   8.868  0.4628 -0.1434 -1.3642
10080SOL    HW234029   5.800   2.162   8.946 -0.3841  1.0998  1.2101
10081SOL     OW34030   4.376   6.125   2.641 -0.0121  0.0109 -0.0850
10081SOL    HW134031   4.301   6.108   2.697 -0.4330 -1.4238 -1.0494
10081SOL    HW234032   4.342   6.119   2.552  1.8244 -4.4669 -0.7333
10082SOL     OW34033   6.154   9.462   3.082 -0.0740 -0.0902  0.1947
10082SOL    HW134034   6.127   9.390   3.025  0.6853 -0.0212 -0.2671
10082SOL    HW234035   6.248   9.448   3.095 -0.3995 -0.6807  2.2489
10083SOL     OW34036   0.896   6.548   1.589  0.3899 -0.0774 -0.5029
10083SOL    HW134037   0.883   6.635   1.626 -0.4054 -1.2556  2.2519
10083SOL    HW234038   0.807   6.513   1.580  0.7488 -1.0990 -0.2129
10084SOL     OW34039   7.797   5.938   5.399  0.2981  0.2111 -0.4784
10084SOL    HW134040   7.856   5.989   5.456 -0.9562 -0.7424  1.8207
10084SOL    HW234041   7.724   5.997   5.383  0.7364  0.5458 -1.3204
10085SOL     OW34042   6.473   7.482   3.557 -0.2560 -0.1456 -0.6034
10085SOL    HW134043   6.472   7.522   3.644 -1.1527 -0.2591 -0.5487
10085SOL    HW234044   6.383   7.451   3.545 -0.1484 -0.0788 -1.5988
10086SOL     OW34045   7.129   2.995   4.345 -0.5195  0.4037 -0.2224
10086SOL    HW134046   7.063   3.064   4.337 -0.5349  0.3600 -0.4918
10086SOL    HW234047   7.088   2.928   4.400 -0.1248  1.0642  0.9256
10087SOL     OW34048   6.992   5.831   7.915 -0.0103 -0.1748  0.0451
10087SOL    HW134049   7.030   5.861   7.998  0.8961  0.3016 -0.5262
10087SOL    HW234050   7.008   5.737   7.915  1.0528 -0.0121 -0.1004
10088SOL     OW34051   4.016   9.785   8.078  0.5522 -0.4290 -0.1629
10088SOL    HW134052   3.969   9.864   8.103 -0.7900 -1.9119  2.4893
10088SOL    HW234053   4.089   9.816   8.024  0.5760  2.6899  1.4484
10089SOL     OW34054   6.016   3.649   5.321 -0.4052  0.2614 -0.3500
10089SOL    HW134055   6.003   3.656   5.226  2.2053  2.1123 -0.6662
10089SOL    HW234056   5.974   3.727   5.357  0.7704  0.8945 -0.3013
10090SOL     OW34057   6.424   7.052   5.968 -0.1783  0.7734  0.2249
10090SOL    HW134058   6.329   7.057   5.969 -0.1869  1.2738 -1.2150
10090SOL    HW234059   6.443   6.961   5.944 -0.3873  1.4752 -3.0486
10091SOL     OW34060   2.420   9.069   4.189 -0.1124  0.0202 -0.0444
10091SOL    HW134061   2.441   8.977   4.172  0.2185  0.4076 -1.9278
10091SOL    HW234062   2.437   9.114   4.106 -0.6898  1.7232  0.7038
10092SOL     OW34063   3.500   3.210   6.341  0.4519 -0.0064 -0.7156
10092SOL    HW134064   3.416   3.164   6.341  0.9431 -0.9493  0.1473
10092SOL    HW234065   3.478   3.301   6.321 -0.8924 -0.0366  0.5265
10093SOL     OW34066   3.076  10.225   1.958  0.2134 -0.0861  0.2807
10093SOL    HW134067   3.005  10.173   1.996  0.8874 -1.5635 -0.3900
10093SOL    HW234068   3.145  10.222   2.024 -0.1343  0.9230  0.7128
10094SOL     OW34069   4.345   7.541   3.767 -0.0385 -0.0645 -0.8659
10094SOL    HW134070   4.321   7.612   3.826 -0.2233 -0.3232 -0.6271
10094SOL    HW234071   4.346   7.463   3.822 -1.9677 -0.6108 -1.5310
10095SOL     OW34072   5.839   4.768   7.922  0.0489  0.2307  0.4505
10095SOL    HW134073   5.767   4.736   7.975 -2.2361  3.1790 -0.6174
10095SOL    HW234074   5.817   4.742   7.833  2.0445 -1.5895  0.4025
10096SOL     OW34075   7.696   9.455   8.852  0.2959 -0.2205 -0.5761
10096SOL    HW134076   7.660   9.378   8.896 -1.5913  0.4047 -0.9512
10096SOL    HW234077   7.706   9.520   8.922  1.5953 -0.6784 -0.3143
10097SOL     OW34078   7.807   9.434   9.261 -0.1529 -0.6246  0.1409
10097SOL    HW134079   7.806   9.478   9.346 -0.6341  0.1445 -0.2435
10097SOL    HW234080   7.900   9.426   9.239  0.0050 -1.7255  1.1766
10098SOL     OW34081   2.953   2.313   8.995 -0.3404 -0.1913  0.3828
10098SOL    HW134082   2.858   2.324   8.992 -0.2948  0.0630 -0.4301
10098SOL    HW234083   2.981   2.318   8.903  0.5740  0.8185  0.6898
10099SOL     OW34084   3.613   1.620   4.764 -0.2134 -0.4501 -0.4279
10099SOL    HW134085   3.578   1.662   4.685 -0.0108  0.3285 -0.1107
10099SOL    HW234086   3.661   1.544   4.731 -1.2616 -0.8992 -0.9514
10100SOL     OW34087   2.967   4.613   1.008  0.6579  0.1013 -0.2682
10100SOL    HW134088   2.996   4.524   1.025  0.7946  0.4587  1.5352
10100SOL    HW234089   3.027   4.645   0.940 -0.8682 -1.9042 -2.7473
10101SOL     OW34090   9.784   2.063   9.709  0.8894  0.2370  0.0012
10101SOL    HW134091   9.714   2.118   9.674  0.1570 -0.4670  0.3144
10101SOL    HW234092   9.748   2.027   9.790  1.1923 -0.9941 -0.3883
10102SOL     OW34093   2.355   5.728   4.897 -0.0905  0.5596  0.5024
10102SOL    HW134094   2.300   5.726   4.975 -0.0844  0.6817  0.5104
10102SOL    HW234095   2.427   5.787   4.919  0.4635 -0.1994  0.7703
10103SOL     OW34096   6.023   3.606   2.705 -0.1137 -0.3190 -0.1226
10103SOL    HW134097   5.984   3.597   2.792  1.7536  0.1509  0.8259
10103SOL    HW234098   5.977   3.680   2.665  0.4472  0.8906  1.3620
10104SOL     OW34099   0.120   5.997   4.733  0.2999 -0.0814  0.8868
10104SOL    HW134100   0.033   5.963   4.711 -0.3409  1.6548  0.6288
10104SOL    HW234101   0.165   5.922   4.773 -1.7122 -0.7093  2.1227
10105SOL     OW34102   7.635   0.256   8.765 -0.9644 -0.2828 -0.4999
10105SOL    HW134103   7.565   0.198   8.795 -0.8288 -0.3097 -0.2324
10105SOL    HW234104   7.689   0.202   8.708  0.7180 -1.2337  1.8342
10106SOL     OW34105   9.350   1.060   2.505 -0.3352  0.8430 -0.2133
10106SOL    HW134106   9.308   1.026   2.426 -0.4557  2.5744 -0.9450
10106SOL    HW234107   9.295   1.029   2.577 -3.0296  3.0634 -1.1295
10107SOL     OW34108   3.677   3.975   4.086 -0.1765  0.3087 -0.3122
10107SOL    HW134109   3.624   3.968   4.165  1.0893  0.3898  0.5710
10107SOL    HW234110   3.646   4.055   4.043 -1.3199 -0.0884 -0.2533
10108SOL     OW34111   7.754   2.342   2.184  0.4725  0.7686 -0.0407
10108SOL    HW134112   7.826   2.286   2.215  0.7146  0.3155 -1.3506
10108SOL    HW234113   7.755   2.331   2.089 -1.0747  1.0757 -0.1164
10109SOL     OW34114   4.598   8.414   9.731 -0.3109 -0.7787  0.3658
10109SOL    HW134115   4.565   8.497   9.767 -1.1872 -1.3309  0.8840
10109SOL    HW234116   4.520   8.374   9.692  0.2673 -1.0134 -0.5614
10110SOL     OW34117   4.338   5.777   2.721  0.1412 -0.4196 -0.3748
10110SOL    HW134118   4.265   5.824   2.762 -1.2796 -0.4735 -2.6523
10110SOL    HW234119   4.339   5.692   2.764  0.0902  0.2312  0.9604
10111SOL     OW34120   6.072   9.298   5.648  0.3357 -0.0789  0.2304
10111SOL    HW134121   6.113   9.330   5.728 -0.7583  0.8279  0.4568
10111SOL    HW234122   6.019   9.372   5.618 -0.3134 -0.8701 -0.6024
10112SOL     OW34123   3.245   5.829   6.028 -0.2241 -0.2983 -0.0365
10112SOL    HW134124   3.313   5.767   6.003 -0.6754 -0.7676 -0.1174
10112SOL    HW234125   3.163   5.781   6.016 -0.6551  0.6606 -1.1513
10113SOL     OW34126   7.847   7.491   4.970 -0.0343 -0.1431  0.4653
10113SOL    HW134127   7.791   7.459   4.900 -2.9785  2.0694  1.6094
10113SOL    HW234128   7.911   7.548   4.926 -0.7747 -0.1003 -0.5722
10114SOL     OW34129   6.873   3.636   5.545 -0.0727 -0.9029 -0.2569
10114SOL    HW134130   6.884   3.725   5.512  1.7817 -1.3737 -1.0513
10114SOL    HW234131   6.962   3.600   5.547 -0.9245 -3.4575 -2.0794
10115SOL     OW34132   8.945   0.755   0.787  0.0848  0.4389 -0.3062
10115SOL    HW134133   8.957   0.812   0.864  0.9352 -0.6262  0.3686
10115SOL    HW234134   9.032   0.749   0.747 -0.0522 -0.1834 -0.5205
10116SOL     OW34135   7.502   4.053   4.090 -0.4908  0.4810  0.9808
10116SOL    HW134136   7.586   4.049   4.045 -0.0900 -1.1436  1.7881
10116SOL    HW234137   7.524   4.085   4.178 -0.8388  0.7566  0.9714
10117SOL     OW34138   8.325   4.951   9.433  0.1645 -0.1185 -0.4673
10117SOL    HW134139   8.290   5.018   9.374  1.2304 -1.3416 -2.6148
10117SOL    HW234140   8.416   4.977   9.447  0.7196 -1.3004 -1.6903
10118SOL     OW34141   7.288   7.372   3.575  0.1168 -0.2419 -0.2247
10118SOL    HW134142   7.337   7.451   3.601  0.4517  1.0696 -4.1832
10118SOL    HW234143   7.347   7.300   3.598  2.0702  1.0277 -0.9293
10119SOL     OW34144   1.662   4.191   5.980 -0.0363  0.6549  0.0211
10119SOL    HW134145   1.604   4.239   6.039 -1.2193  1.6550 -1.8551
10119SOL    HW234146   1.749   4.229   5.994 -0.2348  0.6612  1.2912
10120SOL     OW34147   9.567   7.486   4.611 -0.4924 -0.3910  0.5930
10120SOL    HW134148   9.637   7.497   4.547 -0.4766 -1.5014  0.4031
10120SOL    HW234149   9.599   7.417   4.669 -1.5756 -1.1743  0.2809
10121SOL     OW34150   5.533   1.554   3.966  0.3238  0.1563 -0.0940
10121SOL    HW134151   5.538   1.461   3.944  0.5340  0.0050  0.5501
10121SOL    HW234152   5.443   1.579   3.945  0.4909  0.0067 -1.0136
10122SOL     OW34153   4.435   4.925   4.683  0.7850 -0.1455  0.1182
10122SOL    HW134154   4.440   4.906   4.777 -1.1062  0.6460  0.4096
10122SOL    HW234155   4.348   4.895   4.657  0.0232  2.4974 -0.6684
10123SOL     OW34156   5.043   5.889   5.564  0.1795  0.1220 -0.3592
10123SOL    HW134157   5.059   5.935   5.481  0.2039  2.0657  0.6605
10123SOL    HW234158   5.040   5.959   5.629 -1.1425 -1.2391  1.1112
10124SOL     OW34159   5.175   8.987   5.860 -0.4255 -0.5503 -0.2384
10124SOL    HW134160   5.208   8.999   5.949 -1.9922 -0.7487  0.4226
10124SOL    HW234161   5.084   9.016   5.865 -0.5090 -0.4687 -1.8143
10125SOL     OW34162   2.150   6.151   9.666  0.5624  0.3535 -0.5695
10125SOL    HW134163   2.067   6.107   9.648  0.7459  0.1684 -0.9824
10125SOL    HW234164   2.129   6.244   9.658  0.4891  0.2954 -1.1042
10126SOL     OW34165   8.354   7.117   2.433  0.2789 -0.2833 -0.4563
10126SOL    HW134166   8.288   7.187   2.432  0.3351 -0.2327 -0.9366
10126SOL    HW234167   8.358   7.089   2.524 -0.4271 -0.3006 -0.4245
10127SOL     OW34168   7.373   9.629   2.402  0.2125 -0.6289  0.7492
10127SOL    HW134169   7.374   9.549   2.455 -1.8410 -1.1965 -0.0043
10127SOL    HW234170   7.371   9.598   2.312  2.8789  0.3340  0.2502
10128SOL     OW34171   1.321   1.787   6.940 -0.4222 -0.2874 -0.1174
10128SOL    HW134172   1.312   1.878   6.912 -2.0864 -1.3452 -3.7376
10128SOL    HW234173   1.232   1.761   6.966 -0.3533 -1.2991 -0.8182
10129SOL     OW34174   8.697  10.198   3.438  0.0256  0.0440 -0.7063
10129SOL    HW134175   8.721  10.243   3.518  0.6037 -1.9501  0.3009
10129SOL    HW234176   8.766  10.222   3.376  1.1083 -0.5650  0.2349
10130SOL     OW34177  10.159   0.455   5.125  0.0910 -0.2970  0.7537
10130SOL    HW134178  10.153   0.416   5.038  0.2694 -2.4074  1.6075
10130SOL    HW234179  10.099   0.529   5.123 -0.0361 -0.4120 -1.1029
10131SOL     OW34180   6.441   9.543   1.109 -0.4848  0.1462 -0.2128
10131SOL    HW134181   6.381   9.474   1.139  1.5123 -2.0264 -0.8974
10131SOL    HW234182   6.528   9.506   1.122  0.7937  3.1563  0.7078
10132SOL     OW34183   4.328   4.820   2.147  0.5034  0.6744  0.5609
10132SOL    HW134184   4.410   4.848   2.107 -0.9984  2.4468 -1.4898
10132SOL    HW234185   4.307   4.888   2.210  1.2337 -0.4885  2.1390
10133SOL     OW34186   1.146   6.977   0.612  0.1935 -0.4559 -0.2389
10133SOL    HW134187   1.174   6.889   0.635 -2.0075 -1.3730 -0.8191
10133SOL    HW234188   1.081   6.965   0.542 -2.7190  1.2787  1.9058
10134SOL     OW34189   8.486   6.683   9.785 -0.1083  0.4745  0.1380
10134SOL    HW134190   8.445   6.735   9.715  2.3706  0.4630 -1.4270
10134SOL    HW234191   8.560   6.736   9.814  0.1243 -0.4625  1.3137
10135SOL     OW34192   7.349   3.783   3.358  0.0801  0.0259  0.1024
10135SOL    HW134193   7.334   3.848   3.427 -0.7240  0.3589 -0.3690
10135SOL    HW234194   7.267   3.733   3.354 -0.1984  0.5502 -1.1597
10136SOL     OW34195   4.593   7.097   4.192 -0.3712  0.1262 -0.3619
10136SOL    HW134196   4.594   7.077   4.098 -0.0882  0.1992 -0.3744
10136SOL    HW234197   4.545   7.024   4.231 -1.7592  0.8076 -0.7271
10137SOL     OW34198   6.352  10.275   1.920  0.0645 -0.2200  0.4650
10137SOL    HW134199   6.353  10.336   1.994 -1.6808 -1.5935  1.7019
10137SOL    HW234200   6.266  10.286   1.880  0.5878 -0.2759 -0.7180
10138SOL     OW34201   9.351   4.240   8.727  0.2055  1.0073  0.4495
10138SOL    HW134202   9.387   4.155   8.750 -1.4585 -0.1737 -1.0418
10138SOL    HW234203   9.418   4.280   8.671 -0.3576 -0.8190 -1.6438
10139SOL     OW34204   1.218   9.009   0.554  0.0187  0.1761  0.2953
10139SOL    HW134205   1.225   9.087   0.609 -0.6478  0.6501 -0.2739
10139SOL    HW234206   1.123   8.995   0.544  0.1339 -0.1415 -0.4016
10140SOL     OW34207   6.529   2.798   7.042  0.0947  0.5915  0.2088
10140SOL    HW134208   6.584   2.853   6.986  1.5584 -0.4569  0.5590
10140SOL    HW234209   6.464   2.762   6.982  1.5945 -0.4648 -0.8773
10141SOL     OW34210   7.816   0.975   0.135 -1.0180 -0.6762 -0.3229
10141SOL    HW134211   7.815   0.941   0.045 -0.7207 -0.9115 -0.2400
10141SOL    HW234212   7.829   1.069   0.125  1.7632 -0.9699 -0.4786
10142SOL     OW34213   6.847   8.984   8.375  0.4258  0.1815  0.4877
10142SOL    HW134214   6.803   9.067   8.396  0.0761  0.0322  0.3462
10142SOL    HW234215   6.900   8.966   8.452 -0.5873 -0.1828  1.1196
10143SOL     OW34216   1.022   2.373   5.289  0.2098 -0.0059  0.6801
10143SOL    HW134217   0.995   2.409   5.204 -2.2987 -2.6399  0.2225
10143SOL    HW234218   0.985   2.433   5.354  0.9906  1.2750  0.0064
10144SOL     OW34219   3.095   6.878   2.339 -0.4737  0.3932 -0.3097
10144SOL    HW134220   3.160   6.947   2.345  1.8881 -1.4813 -2.3003
10144SOL    HW234221   3.041   6.902   2.264 -0.3167  0.5494 -0.3725
10145SOL     OW34222   1.163   4.804   1.837 -0.0511 -0.8122  0.0019
10145SOL    HW134223   1.110   4.726   1.821  0.7323 -1.0544 -1.5982
10145SOL    HW234224   1.253   4.776   1.824  0.4600 -0.1977  1.8380
10146SOL     OW34225   2.079   7.284   3.919 -0.0302  0.0759  0.4721
10146SOL    HW134226   2.112   7.201   3.953 -1.4855 -1.1271 -0.9166
10146SOL    HW234227   2.012   7.259   3.855  0.1054  2.3023 -0.6249
10147SOL     OW34228   3.911   2.780   7.246 -0.1329 -0.0650  0.5503
10147SOL    HW134229   3.964   2.737   7.313 -0.2750 -0.7932  0.2103
10147SOL    HW234230   3.973   2.835   7.198  0.2793 -0.7504  0.2861
10148SOL     OW34231   6.176   3.280   4.442  0.3194  0.0314 -0.7808
10148SOL    HW134232   6.094   3.329   4.433  0.3078 -0.0298 -1.0158
10148SOL    HW234233   6.197   3.285   4.535  0.2719  0.4081 -0.7892
10149SOL     OW34234   9.392   4.689   0.913  0.0219  0.4941 -0.0796
10149SOL    HW134235   9.413   4.781   0.927  0.1033  0.5269 -0.4105
10149SOL    HW234236   9.461   4.641   0.959 -0.1205  0.5971  0.2417
10150SOL     OW34237   3.548   0.933  10.225 -0.3555  0.2485 -0.1623
10150SOL    HW134238   3.470   0.891  10.189 -0.4381  1.3722 -1.3779
10150SOL    HW234239   3.517   1.016  10.261  0.4167  1.4259 -2.0146
10151SOL     OW34240   8.477   3.079   4.028  0.5290 -0.0495 -0.6775
10151SOL    HW134241   8.479   3.134   3.949  1.8423  0.8084 -0.0765
10151SOL    HW234242   8.536   3.006   4.008  0.8473  0.1581 -0.4993
10152SOL     OW34243   1.042   8.538   5.653  0.9521  0.2631  0.4851
10152SOL    HW134244   1.043   8.576   5.741  1.2159  0.0902  0.5567
10152SOL    HW234245   1.116   8.478   5.651  0.6607 -0.1034  0.3080
10153SOL     OW34246   5.392   6.166   9.427  0.0925 -0.1777  0.4076
10153SOL    HW134247   5.305   6.157   9.390  0.3970 -0.3288 -0.2971
10153SOL    HW234248   5.381   6.224   9.503 -0.2305  1.9876 -1.1786
10154SOL     OW34249   8.100  10.167   2.870 -0.1121 -0.1681  0.2031
10154SOL    HW134250   8.126  10.075   2.874 -0.9115 -0.3556  1.5704
10154SOL    HW234251   8.174  10.215   2.906  0.2257 -0.2791 -0.3293
10155SOL     OW34252   9.351   9.564   7.532  0.0443 -0.0966 -0.1947
10155SOL    HW134253   9.394   9.640   7.572 -0.5205  0.0175  0.2151
10155SOL    HW234254   9.337   9.504   7.604 -1.2573  0.2365 -0.1521
10156SOL     OW34255   2.688   2.725   1.168  0.6828  0.1365  0.0098
10156SOL    HW134256   2.740   2.789   1.120  0.1653  0.3838 -0.2381
10156SOL    HW234257   2.730   2.719   1.254  1.4446 -0.0999 -0.3734
10157SOL     OW34258   1.362   1.217   3.805 -0.4092 -0.0356 -0.1150
10157SOL    HW134259   1.312   1.174   3.874 -0.7273 -0.3662 -0.5499
10157SOL    HW234260   1.426   1.151   3.777  0.7813  0.6236  0.9428
10158SOL     OW34261   3.771   3.579   9.477  0.3972 -0.2572 -0.2747
10158SOL    HW134262   3.793   3.663   9.518 -1.2986  0.2821 -0.4027
10158SOL    HW234263   3.675   3.576   9.478  0.2893 -0.6784 -3.2735
10159SOL     OW34264   0.502   4.244   7.629 -0.4047 -0.1338  0.2237
10159SOL    HW134265   0.581   4.295   7.611 -0.8878  0.3853 -0.4595
10159SOL    HW234266   0.515   4.163   7.581 -0.4409  0.0885 -0.1589
10160SOL     OW34267   8.844   8.012   8.440 -0.5788  0.2778  0.0620
10160SOL    HW134268   8.935   7.997   8.411 -1.0617  0.4320 -1.6453
10160SOL    HW234269   8.841   8.106   8.458 -0.5094  0.3631 -0.3465
10161SOL     OW34270   7.482   5.440   9.827 -0.6548 -0.1035 -0.2132
10161SOL    HW134271   7.500   5.346   9.820 -0.1878  0.0558 -1.4555
10161SOL    HW234272   7.469   5.455   9.920 -4.0087 -2.0094 -0.1660
10162SOL     OW34273   6.883   5.675   1.426 -0.4340 -0.0225  0.0080
10162SOL    HW134274   6.804   5.683   1.372 -1.6713 -0.4415  1.6791
10162SOL    HW234275   6.887   5.582   1.449 -0.4307  0.2797  1.3038
10163SOL     OW34276   5.847   6.897   1.480 -0.1521 -0.3226  0.3684
10163SOL    HW134277   5.940   6.904   1.457 -0.0850  0.0260  0.7356
10163SOL    HW234278   5.801   6.897   1.396  0.0563  1.4173  0.2312
10164SOL     OW34279  10.141   8.885   9.919  0.5692 -0.3995 -0.0759
10164SOL    HW134280  10.168   8.896  10.010  0.6204  0.8980 -0.2373
10164SOL    HW234281  10.220   8.852   9.875  0.6557 -0.6613  0.2766
10165SOL     OW34282   1.414   4.467   3.379  0.1192 -0.0156  0.3808
10165SOL    HW134283   1.389   4.414   3.455 -0.8267 -0.6495 -0.3379
10165SOL    HW234284   1.364   4.548   3.388 -0.8494 -0.5420 -0.1154
10166SOL     OW34285   2.415   0.539   5.165 -0.3343 -0.0581  0.5153
10166SOL    HW134286   2.452   0.628   5.166  0.6324 -0.4237 -0.4247
10166SOL    HW234287   2.407   0.516   5.257 -1.4132  1.3243  0.7971
10167SOL     OW34288   1.523   4.820   7.995 -0.3271 -0.2294 -0.3554
10167SOL    HW134289   1.509   4.891   8.057 -1.2636  0.7928 -1.6714
10167SOL    HW234290   1.466   4.750   8.026  1.8006 -1.0835  1.8728
10168SOL     OW34291   0.948   8.998   0.537 -0.5262  0.5790 -0.2040
10168SOL    HW134292   0.879   9.017   0.473 -1.2872  0.3295  0.5320
10168SOL    HW234293   0.915   8.924   0.587  0.8426 -0.3932 -0.6693
10169SOL     OW34294   2.489   7.514   2.626 -0.2045 -0.0657  0.3761
10169SOL    HW134295   2.405   7.476   2.602 -1.1640  3.4217 -2.6602
10169SOL    HW234296   2.547   7.439   2.638 -2.9208 -2.5092 -0.6211
10170SOL     OW34297   4.216   9.424   3.493 -0.0462 -0.2947  0.0699
10170SOL    HW134298   4.267   9.381   3.562 -0.0320 -1.3667 -0.5902
10170SOL    HW234299   4.154   9.358   3.465 -0.5633  0.3905 -0.4332
10171SOL     OW34300   0.124   6.012   3.075  0.0190 -0.0801  0.6022
10171SOL    HW134301   0.168   6.061   3.145  2.7902 -3.0168  1.1385
10171SOL    HW234302   0.067   5.950   3.120 -1.4639  0.7933  0.0173
10172SOL     OW34303   0.517   2.120   8.242 -0.9149  0.3730 -0.2212
10172SOL    HW134304   0.432   2.118   8.286 -1.6233  1.9927 -1.3868
10172SOL    HW234305   0.537   2.028   8.222 -1.8434 -0.1255  1.0601
10173SOL     OW34306   1.143   9.633   1.079 -0.6152 -0.1946 -0.1322
10173SOL    HW134307   1.150   9.601   1.169 -0.0856  1.2997  0.3922
10173SOL    HW234308   1.216   9.693   1.069 -1.5217  0.8050 -1.0737
10174SOL     OW34309   7.561   0.955   7.862 -0.0063 -0.0047  0.0513
10174SOL    HW134310   7.618   0.935   7.788 -0.7746 -2.6470  0.0605
10174SOL    HW234311   7.541   1.048   7.853 -0.7107 -0.3385 -3.5575
10175SOL     OW34312   7.168   0.172   7.853  0.4479  0.3940 -0.1184
10175SOL    HW134313   7.181   0.232   7.927 -0.5198  0.0521  0.3470
10175SOL    HW234314   7.231   0.102   7.867  2.2564  1.7366 -1.1747
10176SOL     OW34315   9.250   7.955   0.416  0.6364  0.0998  0.0673
10176SOL    HW134316   9.294   7.891   0.472  1.5056  1.7240  1.3518
10176SOL    HW234317   9.302   8.035   0.426  0.0364  0.8223 -2.0735
10177SOL     OW34318   0.149   8.979   0.769 -0.1326 -0.0455  0.0553
10177SOL    HW134319   0.164   8.887   0.745 -0.6094  0.3091 -1.7166
10177SOL    HW234320   0.060   8.980   0.804 -0.1918 -0.2287 -0.0872
10178SOL     OW34321   3.929   6.861   4.704 -0.7149  0.4314 -0.9109
10178SOL    HW134322   3.987   6.785   4.712 -0.0735  0.6173 -3.2589
10178SOL    HW234323   3.852   6.827   4.658 -1.7683  0.5783  0.6641
10179SOL     OW34324   6.179   1.796   6.869 -0.2681  0.1631  0.0563
10179SOL    HW134325   6.236   1.867   6.840 -2.1066  2.0712  0.8199
10179SOL    HW234326   6.100   1.840   6.901 -1.7611 -2.2818  0.0139
10180SOL     OW34327   1.743   8.625   2.559  0.3054  0.6482 -0.1594
10180SOL    HW134328   1.658   8.645   2.597  0.3514 -3.2933  2.5964
10180SOL    HW234329   1.805   8.674   2.612 -0.0134 -0.0463  0.8682
10181SOL     OW34330   2.853   3.736   5.329 -0.1238  0.1911  0.3704
10181SOL    HW134331   2.772   3.697   5.362 -0.0463  0.1204  0.4802
10181SOL    HW234332   2.829   3.826   5.306 -0.0398  0.4367  1.2091
10182SOL     OW34333   9.378   9.915   0.455  0.4395  0.3113  0.0110
10182SOL    HW134334   9.324   9.976   0.506  0.5625  1.7945 -1.5408
10182SOL    HW234335   9.319   9.884   0.386  0.9384  0.1821 -0.3598
10183SOL     OW34336   2.886   4.378   9.624  0.7196 -0.3839  0.2786
10183SOL    HW134337   2.822   4.361   9.555  1.4537  0.8881 -0.7644
10183SOL    HW234338   2.867   4.313   9.691  1.0059 -2.7536 -1.7968
10184SOL     OW34339   4.355   5.079   3.905  0.4171 -0.2148 -0.7380
10184SOL    HW134340   4.269   5.043   3.887  0.5863 -0.8648 -0.2764
10184SOL    HW234341   4.415   5.027   3.853  0.4080  1.1870 -2.2233
10185SOL     OW34342   1.198   5.728  10.107  0.5986  0.8378 -0.4174
10185SOL    HW134343   1.292   5.740  10.117  0.9364 -0.9972 -1.0296
10185SOL    HW234344   1.188   5.687  10.021 -0.7505  0.8816 -0.3079
10186SOL     OW34345   2.043   5.894   5.116 -0.2897  0.5219  0.5823
10186SOL    HW134346   2.093   5.964   5.158  0.7113  0.3007 -0.1940
10186SOL    HW234347   2.025   5.926   5.027  2.5279 -1.1726 -0.7493
10187SOL     OW34348   3.044   2.446   3.908 -0.2705  0.2149  0.1219
10187SOL    HW134349   2.971   2.495   3.871 -0.1295  1.5715  1.5740
10187SOL    HW234350   3.010   2.410   3.990  0.3918 -0.0026  0.3034
10188SOL     OW34351   6.532   1.935   0.043  0.3092 -1.0172 -0.2361
10188SOL    HW134352   6.485   1.883  -0.022  0.7451 -0.3617 -1.1055
10188SOL    HW234353   6.611   1.965  -0.003 -0.0491  0.6130  0.1425
10189SOL     OW34354   9.902   7.396   6.009  0.1892 -0.0746 -0.1233
10189SOL    HW134355   9.887   7.467   6.071  1.6145 -1.4956  1.9770
10189SOL    HW234356   9.824   7.396   5.953 -2.3859 -0.2055  3.1713
10190SOL     OW34357   6.174   4.653   8.312 -0.5082  0.5077 -0.7525
10190SOL    HW134358   6.146   4.562   8.300 -0.1035 -0.0825  1.9556
10190SOL    HW234359   6.202   4.682   8.225 -0.2424 -2.1071 -1.6231
10191SOL     OW34360   6.734   9.066   1.251  0.9248  0.1482 -0.2646
10191SOL    HW134361   6.642   9.042   1.239  0.8039  0.5377 -0.1166
10191SOL    HW234362   6.782   9.002   1.198  0.6476 -0.8937  0.7010
10192SOL     OW34363   6.607   6.266   3.409 -0.3131 -0.0975 -0.9928
10192SOL    HW134364   6.601   6.204   3.336  1.0716 -1.8779  0.3209
10192SOL    HW234365   6.603   6.212   3.487  1.2611  1.4341  0.2332
10193SOL     OW34366   9.532   3.860   4.888  0.1866  0.1472 -0.0075
10193SOL    HW134367   9.592   3.901   4.826  1.6405 -0.8753  0.6807
10193SOL    HW234368   9.504   3.779   4.845  0.9713 -0.4213  0.5371
10194SOL     OW34369   7.630   2.562   6.134 -0.0250 -0.1922  0.3858
10194SOL    HW134370   7.646   2.468   6.145 -0.8078 -0.3232  0.4423
10194SOL    HW234371   7.716   2.598   6.110  0.3453 -0.8704  0.6552
10195SOL     OW34372   1.100   5.034   5.093 -0.3426 -0.1795 -0.3406
10195SOL    HW134373   1.025   4.990   5.053 -2.7358  1.0271  2.4820
10195SOL    HW234374   1.124   4.979   5.167  0.9508 -0.0300 -0.6230
10196SOL     OW34375   4.924   9.678   9.944  0.0109  0.1687  0.4522
10196SOL    HW134376   4.862   9.664   9.873 -0.4728  0.1149  0.8818
10196SOL    HW234377   4.974   9.596   9.948 -0.5069 -0.1441  0.7011
10197SOL     OW34378   4.556   7.148   4.972  0.2105 -0.1017  0.3176
10197SOL    HW134379   4.502   7.226   4.967 -1.7773 -1.1764  2.6715
10197SOL    HW234380   4.541   7.102   4.889 -1.7364  0.1501  0.4955
10198SOL     OW34381   0.448   2.693   5.256 -0.4255  0.3728  0.2189
10198SOL    HW134382   0.434   2.644   5.337 -0.3563 -0.2575 -0.1470
10198SOL    HW234383   0.451   2.784   5.284 -3.0423  0.4137  0.6167
10199SOL     OW34384   9.864   1.931   7.090 -0.3671 -0.4605  0.0771
10199SOL    HW134385   9.876   1.864   7.023 -2.1796 -0.3847 -0.3826
10199SOL    HW234386   9.935   1.916   7.152  1.6195 -0.2882 -2.0262
10200SOL     OW34387   1.937   8.674   1.520  0.0520  0.3808 -0.0590
10200SOL    HW134388   1.987   8.692   1.600  1.7995 -2.3339 -0.4104
10200SOL    HW234389   2.000   8.684   1.450 -0.6437 -0.3426 -0.8082
10201SOL     OW34390   9.989  10.294   3.480  0.1568  0.3186 -0.0936
10201SOL    HW134391  10.007  10.365   3.418 -0.1607  2.5807  2.2449
10201SOL    HW234392  10.075  10.262   3.507  0.2990 -0.5940 -1.4913
10202SOL     OW34393   1.818   4.304   2.079  0.0543 -0.1582 -0.4538
10202SOL    HW134394   1.733   4.267   2.104  0.0061  0.0631 -0.2838
10202SOL    HW234395   1.822   4.294   1.984 -0.8843  1.3228 -0.6727
10203SOL     OW34396   2.526   5.095   1.099 -0.4312  0.4865 -0.5107
10203SOL    HW134397   2.615   5.096   1.065 -0.2626  0.2713 -0.0883
10203SOL    HW234398   2.521   5.017   1.154 -1.0961  0.1166 -1.0730
10204SOL     OW34399  10.209   5.943   1.925 -0.3533  0.3721  0.2343
10204SOL    HW134400  10.287   5.895   1.952 -0.9470 -0.2644  0.8590
10204SOL    HW234401  10.197   6.011   1.992  0.2013  1.0902 -0.3799
10205SOL     OW34402   4.555   5.520   7.506  0.1273  0.1233 -0.2078
10205SOL    HW134403   4.469   5.495   7.470  0.6984 -0.6120 -1.1001
10205SOL    HW234404   4.550   5.494   7.598 -0.2738 -0.8107 -0.4781
10206SOL     OW34405   3.110   1.250   7.931  0.2614  0.0551 -0.2082
10206SOL    HW134406   3.176   1.240   7.862 -0.9219  0.8439 -1.5100
10206SOL    HW234407   3.159   1.278   8.008  1.3273  1.9035 -1.4772
10207SOL     OW34408   0.976   6.240   1.983 -0.0448 -0.4367  0.6072
10207SOL    HW134409   0.937   6.191   2.055 -2.3400  1.3212  0.6910
10207SOL    HW234410   0.924   6.215   1.906  0.7701 -0.4503  0.0558
10208SOL     OW34411   8.035   9.902   2.603 -0.1869  0.2957 -0.0265
10208SOL    HW134412   7.977   9.845   2.552  1.2962 -0.5295 -0.8343
10208SOL    HW234413   8.015   9.990   2.570 -0.6355 -0.0206 -0.6370
10209SOL     OW34414   0.264   3.230   7.763 -0.3619 -0.2740 -0.1373
10209SOL    HW134415   0.182   3.189   7.791 -0.6253  0.8513  0.8298
10209SOL    HW234416   0.260   3.318   7.800  1.8967 -0.6189  1.1280
10210SOL     OW34417   4.844   7.855   9.448 -0.6087 -0.2245  0.2485
10210SOL    HW134418   4.852   7.801   9.526 -0.9367 -1.3361 -0.4647
10210SOL    HW234419   4.912   7.824   9.389 -0.5040  0.4499  0.0004
10211SOL     OW34420   8.427   7.527   5.474  0.5576  0.5409  0.3506
10211SOL    HW134421   8.374   7.487   5.543  0.3179  0.4696  0.1265
10211SOL    HW234422   8.433   7.461   5.406  1.3016  0.3859  0.5527
10212SOL     OW34423   6.682   7.149   7.839 -0.1276  0.1493 -0.5187
10212SOL    HW134424   6.721   7.075   7.885 -0.9299  0.3133  0.4748
10212SOL    HW234425   6.725   7.226   7.877  0.5968  0.2076 -1.4403
10213SOL     OW34426   3.698   3.854   6.594 -0.2542 -0.3768 -0.1266
10213SOL    HW134427   3.655   3.905   6.662  1.8117  0.2720  0.7646
10213SOL    HW234428   3.636   3.852   6.522 -1.1271  1.8566  0.5053
10214SOL     OW34429  10.232   4.781   0.859  0.0981 -0.3360 -0.5121
10214SOL    HW134430  10.146   4.772   0.902  1.5687  0.4930  2.9594
10214SOL    HW234431  10.286   4.712   0.899  1.4583  0.1543 -1.4525
10215SOL     OW34432   6.874   8.584   3.885 -0.0196 -0.1455 -0.4436
10215SOL    HW134433   6.895   8.581   3.978  0.6666 -0.2319 -0.5992
10215SOL    HW234434   6.906   8.501   3.850 -0.6742 -0.3050 -0.6816
10216SOL     OW34435   3.073   1.531   8.899  0.6155  0.0974 -0.4070
10216SOL    HW134436   3.112   1.559   8.817 -0.2691  2.1846 -0.1790
10216SOL    HW234437   3.115   1.586   8.966  0.6980 -0.9494  0.4300
10217SOL     OW34438  10.006   2.487   5.922 -0.0249 -0.8351 -0.9227
10217SOL    HW134439  10.086   2.490   5.974 -0.9960  0.4629  0.5747
10217SOL    HW234440  10.035   2.455   5.836  2.4085  1.1529 -0.9713
10218SOL     OW34441   3.229   0.646   0.235  0.0421 -0.2221 -0.3425
10218SOL    HW134442   3.255   0.693   0.315 -0.6434  0.6343 -0.6031
10218SOL    HW234443   3.295   0.669   0.171  0.1895 -0.3217 -0.2279
10219SOL     OW34444   2.041   6.379   0.685 -0.3342  0.1337 -0.1647
10219SOL    HW134445   1.991   6.438   0.741  0.3989  2.1943 -1.5457
10219SOL    HW234446   1.975   6.328   0.638 -0.9821 -0.3511  1.2080
10220SOL     OW34447   3.884   2.888   2.520  0.7471  0.1181  0.4257
10220SOL    HW134448   3.908   2.981   2.514  1.3973 -0.1453 -1.9583
10220SOL    HW234449   3.936   2.845   2.452 -1.3750 -1.6181 -0.2014
10221SOL     OW34450   6.857   2.533   1.595  0.1416 -0.3528 -0.2969
10221SOL    HW134451   6.900   2.615   1.618 -0.9447 -0.2259  1.5399
10221SOL    HW234452   6.843   2.538   1.501  1.2893  0.9572 -0.4323
10222SOL     OW34453   1.039   7.261   7.593 -0.0742 -0.3723  0.2018
10222SOL    HW134454   0.975   7.318   7.635 -0.5804 -1.1425  0.5048
10222SOL    HW234455   1.117   7.315   7.583 -0.5830  0.3986  0.3712
10223SOL     OW34456   8.451   0.133   3.846 -0.0739  0.0143  0.0104
10223SOL    HW134457   8.365   0.131   3.888 -0.1963 -0.0415 -0.2385
10223SOL    HW234458   8.443   0.198   3.777 -0.4225 -1.1318 -1.0729
10224SOL     OW34459   2.671   5.725   3.042 -0.0221  0.1506  0.0822
10224SOL    HW134460   2.586   5.716   3.085  0.0788 -0.8035  0.1046
10224SOL    HW234461   2.669   5.812   3.001 -0.6913  0.4568  0.7551
10225SOL     OW34462   3.101   2.038   7.081  0.6473  0.5011  0.0993
10225SOL    HW134463   3.080   2.087   7.001 -1.2408 -0.6311 -0.1590
10225SOL    HW234464   3.018   1.999   7.108  1.8733 -1.7710  0.8374
10226SOL     OW34465   4.734   1.239   6.367  0.2791 -0.7863 -0.3768
10226SOL    HW134466   4.762   1.255   6.277 -0.2376  1.3966 -0.2011
10226SOL    HW234467   4.777   1.308   6.418 -0.7118 -1.0173  0.8132
10227SOL     OW34468  10.281   4.381  10.118 -0.2910  0.3674 -0.4463
10227SOL    HW134469  10.207   4.433  10.088 -0.0849  1.2854  0.5474
10227SOL    HW234470  10.352   4.401  10.056 -0.7477 -0.1876 -1.1536
10228SOL     OW34471   1.502   0.574   1.349 -0.0830 -0.5045  0.1066
10228SOL    HW134472   1.409   0.590   1.364 -0.1760 -0.1598 -0.7846
10228SOL    HW234473   1.539   0.661   1.335  0.3536 -0.6519  0.3337
10229SOL     OW34474   4.789   0.973   6.768  0.3966  0.8709 -0.5729
10229SOL    HW134475   4.797   1.067   6.785  0.4334  0.7232  0.2508
10229SOL    HW234476   4.829   0.931   6.843  2.3419  0.1720 -1.9223
10230SOL     OW34477   8.844   2.797   5.395 -0.3572 -0.1173 -0.1842
10230SOL    HW134478   8.779   2.756   5.452 -1.8570  0.2178 -1.5682
10230SOL    HW234479   8.794   2.823   5.317  1.2154  1.2245 -0.8035
10231SOL     OW34480   9.574   3.927   1.691 -0.0599  0.1341  0.0572
10231SOL    HW134481   9.655   3.974   1.673  0.6271 -1.2964 -0.7821
10231SOL    HW234482   9.505   3.981   1.653  0.4030  1.6756  1.3251
10232SOL     OW34483   3.583   7.557   5.534  0.2224  0.1103  0.0389
10232SOL    HW134484   3.509   7.530   5.587 -0.4312  0.8419 -0.4781
10232SOL    HW234485   3.626   7.476   5.509 -0.9860 -0.3907 -0.4817
10233SOL     OW34486   2.982   0.126   6.978 -0.1885 -0.4634  0.4700
10233SOL    HW134487   3.061   0.113   7.031 -0.2565 -1.2118  0.3972
10233SOL    HW234488   2.991   0.064   6.905 -1.9525 -2.3321  1.7286
10234SOL     OW34489   0.359   3.043   8.364  0.2476 -0.1141 -0.8112
10234SOL    HW134490   0.453   3.022   8.368  0.6736  0.8941 -3.5069
10234SOL    HW234491   0.334   3.026   8.274 -1.0279  3.8684 -1.4086
10235SOL     OW34492   0.487   5.095   6.505  0.0410 -0.1158 -0.1493
10235SOL    HW134493   0.516   5.158   6.439 -0.0182  0.6160  0.5041
10235SOL    HW234494   0.403   5.062   6.473  0.3514 -0.3081 -0.7816
10236SOL     OW34495   4.545   6.258   4.947  0.5619 -0.1646 -0.0154
10236SOL    HW134496   4.457   6.265   4.910 -0.1972  0.5753  1.7935
10236SOL    HW234497   4.584   6.182   4.903 -0.6233  0.0362 -1.5073
10237SOL     OW34498   8.100   0.334   7.587 -0.4210  0.1806  0.0819
10237SOL    HW134499   8.080   0.407   7.647  0.4190 -0.5502  1.2928
10237SOL    HW234500   8.055   0.259   7.626 -0.3720 -0.1751 -0.5488
10238SOL     OW34501   3.904   1.485   8.574 -0.4536 -0.4432 -0.1156
10238SOL    HW134502   3.959   1.562   8.564 -0.3869  0.0941  3.0730
10238SOL    HW234503   3.964   1.411   8.569  0.2699  0.0178  1.1459
10239SOL     OW34504   6.182   9.744   1.937  0.1168 -0.1722 -0.1052
10239SOL    HW134505   6.152   9.654   1.953  1.4450 -0.5554  0.3527
10239SOL    HW234506   6.247   9.736   1.867  1.4422  0.1819  1.0390
10240SOL     OW34507   4.349   1.410   9.974  0.2962 -0.5453  0.0354
10240SOL    HW134508   4.399   1.462  10.036  1.5742 -0.6717 -0.8353
10240SOL    HW234509   4.259   1.417  10.003  0.8418 -0.5119  1.8143
10241SOL     OW34510  10.126   1.161   8.796  0.1491 -0.0678 -0.1125
10241SOL    HW134511  10.074   1.085   8.823  0.3309  0.1010  0.7495
10241SOL    HW234512  10.193   1.124   8.738  1.1545 -0.8325  1.4647
10242SOL     OW34513   8.562   2.100   4.297  0.5568 -0.2339  0.0154
10242SOL    HW134514   8.630   2.113   4.231  0.5623 -0.7746 -0.0877
10242SOL    HW234515   8.481   2.125   4.253  0.8643  2.4569  0.7550
10243SOL     OW34516   9.206   7.758   4.867 -0.1495  0.9656  0.1554
10243SOL    HW134517   9.252   7.823   4.919 -0.4325  0.7182  0.7296
10243SOL    HW234518   9.151   7.808   4.808 -0.5514  1.2585  0.7614
10244SOL     OW34519   2.234   9.618   5.626  0.3618  0.2161 -0.6651
10244SOL    HW134520   2.296   9.566   5.676 -0.2256 -0.6470 -0.8052
10244SOL    HW234521   2.181   9.663   5.692 -1.0062 -1.6195 -0.4408
10245SOL     OW34522   4.137   1.936   4.899  0.3397 -0.1575  0.2438
10245SOL    HW134523   4.068   1.947   4.963 -0.3409  0.6173 -0.5917
10245SOL    HW234524   4.148   1.842   4.891  0.7743 -0.2611  1.8269
10246SOL     OW34525   8.848   0.224   1.714  0.0240 -0.2980  0.6614
10246SOL    HW134526   8.936   0.188   1.706 -0.5110 -1.2726 -1.9773
10246SOL    HW234527   8.841   0.286   1.641 -1.2835  0.1895  1.1674
10247SOL     OW34528   9.839   6.373   8.820 -0.7480 -0.2548  0.5003
10247SOL    HW134529   9.810   6.324   8.897 -0.2517  0.8364  1.4109
10247SOL    HW234530   9.894   6.311   8.772  0.2708 -0.4587  1.8814
10248SOL     OW34531   8.489   0.844   6.159  0.9143 -0.3809  0.4603
10248SOL    HW134532   8.489   0.834   6.254 -0.7103 -3.0380  0.2650
10248SOL    HW234533   8.401   0.873   6.137  1.4255  0.7262 -0.2410
10249SOL     OW34534   6.180   7.685   4.321  0.3887  0.1469  0.0852
10249SOL    HW134535   6.194   7.622   4.392  0.5581 -0.2787 -0.3202
10249SOL    HW234536   6.268   7.709   4.293  0.3665 -1.3792 -1.4562
10250SOL     OW34537   8.881   4.167   9.064 -0.2523  0.1331 -0.1573
10250SOL    HW134538   8.863   4.231   8.995  0.6524  2.1221  1.3522
10250SOL    HW234539   8.927   4.096   9.019 -2.1929 -0.0274 -2.0816
10251SOL     OW34540   0.522   2.958   5.780 -0.1375 -0.3624  0.5429
10251SOL    HW134541   0.558   2.901   5.712  0.8049 -1.2302  1.7293
10251SOL    HW234542   0.559   3.044   5.760  1.0146 -0.8335  0.5676
10252SOL     OW34543   3.810   7.332   4.350  0.1621 -0.7839 -0.1962
10252SOL    HW134544   3.886   7.302   4.400 -1.0126 -0.7450  1.7208
10252SOL    HW234545   3.829   7.424   4.330 -0.2983 -0.1004  2.2399
10253SOL     OW34546   2.402   7.680   9.983 -0.7736  0.0218 -0.0578
10253SOL    HW134547   2.483   7.702  10.029 -0.7509 -0.7465  0.2814
10253SOL    HW234548   2.396   7.745   9.912 -0.6369  1.0055  0.8075
10254SOL     OW34549   1.636   7.475   8.548  0.6978  0.0775  0.3926
10254SOL    HW134550   1.557   7.420   8.548  0.8415 -0.1928 -1.5292
10254SOL    HW234551   1.690   7.439   8.618  0.5364 -1.8916 -0.4306
10255SOL     OW34552   3.580   7.451   2.314  0.5926 -0.0432  0.5096
10255SOL    HW134553   3.594   7.357   2.307  2.2495  0.1562  0.8087
10255SOL    HW234554   3.485   7.462   2.309  0.3341 -1.7778  1.1358
10256SOL     OW34555   0.934   3.554   6.653 -0.5378 -0.0783 -0.1407
10256SOL    HW134556   0.876   3.529   6.582 -0.7214 -2.5401  0.7997
10256SOL    HW234557   1.003   3.605   6.610 -2.0202  0.7633 -1.6414
10257SOL     OW34558   4.705   7.358   7.211 -0.7282  0.2634  0.2584
10257SOL    HW134559   4.649   7.410   7.268 -0.2924 -1.4344  2.3281
10257SOL    HW234560   4.644   7.309   7.155 -1.2498 -0.0667  1.1098
10258SOL     OW34561   9.274   8.084   8.591 -0.3538  0.3029  0.2150
10258SOL    HW134562   9.368   8.066   8.585 -0.3246  0.4727  0.1755
10258SOL    HW234563   9.268   8.168   8.637 -0.5461 -0.6716  2.0724
10259SOL     OW34564   1.814   6.986   2.680 -0.4640  0.0526 -0.2260
10259SOL    HW134565   1.762   7.008   2.758 -0.5355 -1.9362  0.3463
10259SOL    HW234566   1.903   6.974   2.713 -0.6070 -1.3912 -0.3063
10260SOL     OW34567   9.644   3.281   2.363 -0.0933  0.3751  0.3434
10260SOL    HW134568   9.645   3.370   2.326 -0.1210  0.1724 -0.1598
10260SOL    HW234569   9.667   3.293   2.455 -0.4927  0.9487  0.3765
10261SOL     OW34570   7.104   0.032   2.451 -0.1175 -0.0811 -0.8166
10261SOL    HW134571   7.044  -0.037   2.421 -1.4855  0.6697  0.0633
10261SOL    HW234572   7.144   0.066   2.371 -1.1987 -0.3272 -1.4807
10262SOL     OW34573   3.941   6.508   6.999  0.2701  0.4576 -0.6236
10262SOL    HW134574   3.993   6.487   7.076  2.2926 -0.9725 -2.2462
10262SOL    HW234575   3.995   6.571   6.951 -2.1622  3.5187  0.3142
10263SOL     OW34576   1.575   9.726   3.749 -0.1664 -0.0129  0.4434
10263SOL    HW134577   1.577   9.725   3.654  0.7286 -0.7711  0.4587
10263SOL    HW234578   1.531   9.645   3.774  1.2147 -0.7043  0.6901
10264SOL     OW34579   4.793   8.139   9.461  0.5598 -0.0579  0.5274
10264SOL    HW134580   4.698   8.142   9.444  0.8512 -1.1019 -1.5319
10264SOL    HW234581   4.814   8.045   9.461  1.8529  0.2097 -0.7335
10265SOL     OW34582   8.337   6.460   2.592 -0.2962  0.3179  0.9010
10265SOL    HW134583   8.313   6.544   2.554 -0.9352  0.0155  0.6147
10265SOL    HW234584   8.411   6.479   2.650  0.2848  0.8807 -0.0126
10266SOL     OW34585   5.703   3.211   6.659 -0.2967  0.0711  0.1832
10266SOL    HW134586   5.694   3.116   6.648  1.4538 -0.2105  0.7352
10266SOL    HW234587   5.742   3.241   6.577 -0.9032  0.3410 -0.0134
10267SOL     OW34588   8.639   3.036   2.684 -0.4513 -0.1125 -0.0750
10267SOL    HW134589   8.554   3.069   2.656  0.2928  0.7359 -1.4681
10267SOL    HW234590   8.700   3.108   2.666  0.5401 -0.6114  1.0993
10268SOL     OW34591   2.894   8.306   4.987  1.1480  0.1839 -0.3886
10268SOL    HW134592   2.929   8.236   5.043  0.6082 -0.6892 -1.1174
10268SOL    HW234593   2.824   8.265   4.938 -0.2019  1.6310  0.2328
10269SOL     OW34594   6.087   0.833   6.298  0.2271  0.5877 -0.7931
10269SOL    HW134595   6.145   0.819   6.373  1.0798 -0.6344 -1.6436
10269SOL    HW234596   6.109   0.920   6.266  1.1705  0.3769 -0.7423
10270SOL     OW34597   1.304   7.796   3.406 -0.3073 -0.1784 -0.6726
10270SOL    HW134598   1.209   7.809   3.404 -0.1585  1.2654  0.1281
10270SOL    HW234599   1.328   7.778   3.315 -0.9625  2.8420 -1.5816
10271SOL     OW34600   2.921   5.280   1.638  0.6154  0.3996 -0.3663
10271SOL    HW134601   2.978   5.221   1.588  1.4637  0.2748  0.6946
10271SOL    HW234602   2.981   5.326   1.697 -0.1072  1.9506 -0.7969
10272SOL     OW34603   4.184   6.295   0.295  0.6165  0.3372  0.2816
10272SOL    HW134604   4.113   6.323   0.353  1.3206  1.1036  0.7963
10272SOL    HW234605   4.232   6.229   0.346 -0.0147 -0.5686 -0.2662
10273SOL     OW34606   8.893   6.115   2.743 -0.0169 -0.9816  0.1891
10273SOL    HW134607   8.893   6.086   2.652 -0.8880  2.0463 -0.9115
10273SOL    HW234608   8.801   6.109   2.769 -0.6325  2.1443 -0.7281
10274SOL     OW34609   8.588   8.141   8.699 -0.1727  0.2280 -0.2281
10274SOL    HW134610   8.627   8.054   8.709 -0.2698  0.1723 -0.3332
10274SOL    HW234611   8.561   8.166   8.787  2.5680  1.4263  0.3801
10275SOL     OW34612   5.308   6.953   2.539  0.4149  0.2127  0.1071
10275SOL    HW134613   5.355   6.887   2.591  0.8204  1.5228  1.4604
10275SOL    HW234614   5.351   7.036   2.561  0.8991  0.8053 -2.6701
10276SOL     OW34615   4.493   6.529   1.601 -0.0460 -0.4241 -0.2736
10276SOL    HW134616   4.577   6.516   1.644 -0.7258  1.6972  1.9451
10276SOL    HW234617   4.429   6.527   1.673 -1.5511  0.7436 -1.5108
10277SOL     OW34618   6.779   9.813   5.438  0.2753 -0.3401  0.3010
10277SOL    HW134619   6.793   9.908   5.436 -0.1958 -0.2215  1.5901
10277SOL    HW234620   6.773   9.788   5.346 -0.5819  1.0307 -0.0524
10278SOL     OW34621   0.688   0.415   9.522  0.8126 -0.6879 -0.0709
10278SOL    HW134622   0.752   0.447   9.459 -1.5264 -0.5475 -2.5351
10278SOL    HW234623   0.603   0.429   9.481 -0.8516 -1.3463  2.8040
10279SOL     OW34624   5.783   7.543   3.303  0.1535  0.3055  0.7809
10279SOL    HW134625   5.778   7.450   3.324  1.3516 -0.3041 -1.3370
10279SOL    HW234626   5.839   7.580   3.372  0.1090 -0.6597  1.3404
10280SOL     OW34627   1.941   5.047   0.761 -0.3090  0.9008  0.4749
10280SOL    HW134628   1.846   5.041   0.753 -0.3485  2.1745 -0.1928
10280SOL    HW234629   1.959   5.020   0.851 -1.1624 -0.5521  0.2477
10281SOL     OW34630  10.115   3.952   0.355 -0.0359  0.2244 -0.2156
10281SOL    HW134631  10.029   3.992   0.365 -0.9407 -1.7529  0.1860
10281SOL    HW234632  10.122   3.933   0.262 -1.2506 -2.1294  0.1184
10282SOL     OW34633  10.351   6.393   3.362 -0.1187 -0.2908 -0.3380
10282SOL    HW134634  10.397   6.332   3.420 -1.1545 -1.2678 -0.5193
10282SOL    HW234635  10.282   6.341   3.322 -0.4426  0.7781 -1.2219
10283SOL     OW34636   1.068   9.233   1.188 -0.6004  0.2967  0.2085
10283SOL    HW134637   1.061   9.320   1.229 -2.0172 -0.1417  0.9491
10283SOL    HW234638   1.029   9.244   1.102 -0.7708  0.3905  0.2978
10284SOL     OW34639   4.598   7.598   4.122  0.3186 -0.4025 -0.1872
10284SOL    HW134640   4.677   7.553   4.092  1.3610  0.6346  0.8727
10284SOL    HW234641   4.586   7.669   4.059 -0.3316 -1.1171 -0.8836
10285SOL     OW34642   5.984   0.300   3.982 -0.4176 -0.8116 -0.0061
10285SOL    HW134643   5.945   0.369   4.036  0.7371  0.1151 -0.2962
10285SOL    HW234644   6.053   0.263   4.036  0.4049 -0.2335 -0.6311
10286SOL     OW34645   8.527   3.035   9.161  0.4076 -0.1549  0.0704
10286SOL    HW134646   8.560   2.985   9.085  0.4709  0.0879 -0.0636
10286SOL    HW234647   8.563   3.123   9.149  0.7884 -0.2266  0.6210
10287SOL     OW34648   9.766   5.553   6.769 -0.1824 -0.4741 -0.1334
10287SOL    HW134649   9.787   5.476   6.716 -0.1499 -0.1474 -0.6016
10287SOL    HW234650   9.672   5.545   6.785 -0.3078 -0.2809 -0.7306
10288SOL     OW34651   8.002   4.590   6.356  0.0954 -0.7289  0.3484
10288SOL    HW134652   7.981   4.659   6.293 -1.4160  0.3936  1.9793
10288SOL    HW234653   8.077   4.544   6.318  0.9069  1.5628 -0.9882
10289SOL     OW34654   4.227  10.123   6.099 -0.5285  0.1862  0.4059
10289SOL    HW134655   4.247  10.031   6.117 -1.6521  0.0053  0.7698
10289SOL    HW234656   4.224  10.128   6.003  0.3464  0.0282  0.3665
10290SOL     OW34657   9.561   4.622   1.478  0.8704 -0.5627  0.1700
10290SOL    HW134658   9.482   4.666   1.510 -0.5599 -0.8049 -2.7379
10290SOL    HW234659   9.535   4.530   1.469  1.3118 -0.5728 -1.1883
10291SOL     OW34660   8.675   5.022   6.245 -0.2125 -0.2663  0.3410
10291SOL    HW134661   8.580   5.025   6.239 -0.1249 -0.0540 -1.4298
10291SOL    HW234662   8.692   4.954   6.310 -1.5713 -0.2149  0.7812
10292SOL     OW34663   9.711   1.497   4.621 -0.4393  0.2053 -0.0429
10292SOL    HW134664   9.734   1.462   4.707 -0.1180  1.1910  0.2885
10292SOL    HW234665   9.662   1.577   4.640 -0.0207  0.6471 -0.7689
10293SOL     OW34666   2.155   1.836   2.895 -1.0320  0.3342  0.1079
10293SOL    HW134667   2.082   1.783   2.929 -1.9824  1.9389  0.6759
10293SOL    HW234668   2.164   1.807   2.804  0.0648 -2.4382  0.9926
10294SOL     OW34669  10.113   4.398   7.092  0.1758 -0.2980 -0.4943
10294SOL    HW134670  10.102   4.493   7.090 -1.1183 -0.4387 -0.8772
10294SOL    HW234671  10.099   4.374   7.184 -1.5459 -0.3116 -0.7274
10295SOL     OW34672   7.786   3.130   4.611  0.3791 -0.2167  0.1278
10295SOL    HW134673   7.755   3.142   4.700  0.7214  1.3927  0.0528
10295SOL    HW234674   7.862   3.072   4.619  0.3912 -0.0964  0.8776
10296SOL     OW34675   4.544   1.489   2.489 -0.0871  0.1087 -0.2300
10296SOL    HW134676   4.496   1.406   2.484  0.0725 -0.1987  2.1188
10296SOL    HW234677   4.635   1.465   2.472 -0.2292  0.0434 -0.9088
10297SOL     OW34678   2.108   9.112   7.595 -0.3931 -0.0292  0.0433
10297SOL    HW134679   2.148   9.133   7.511 -0.2399  2.6999  0.6995
10297SOL    HW234680   2.022   9.077   7.573 -0.2090  0.3016 -1.2612
10298SOL     OW34681   5.013   5.743   3.464 -0.0995 -0.2795  0.2718
10298SOL    HW134682   4.955   5.813   3.434  0.6943  0.3563  0.1807
10298SOL    HW234683   5.002   5.673   3.400 -0.6723 -0.1223  0.1926
10299SOL     OW34684  10.331   3.548   5.731  0.2229  0.3300 -0.7431
10299SOL    HW134685  10.356   3.575   5.642 -0.2979 -0.0189 -1.0026
10299SOL    HW234686  10.249   3.596   5.748  1.1613  1.6848  0.2079
10300SOL     OW34687   8.060   0.007   5.724  0.6811 -0.3705 -0.3634
10300SOL    HW134688   8.053   0.051   5.639  1.3576 -0.2557 -0.3652
10300SOL    HW234689   8.074  -0.085   5.701  0.2946 -0.4304 -0.3676
10301SOL     OW34690   6.662   2.100   6.549  0.5010 -0.5876  0.8547
10301SOL    HW134691   6.725   2.165   6.580 -0.5271  0.8389  0.0462
10301SOL    HW234692   6.613   2.145   6.480  0.1776 -2.4361 -0.1690
10302SOL     OW34693   7.461   5.083   0.380 -0.4606  0.4109 -0.4218
10302SOL    HW134694   7.476   5.160   0.436  0.9113 -0.3575  0.3142
10302SOL    HW234695   7.441   5.012   0.441 -2.4311  0.2982 -1.1366
10303SOL     OW34696   2.357   0.862   8.406  0.0486 -0.2095  0.1515
10303SOL    HW134697   2.300   0.802   8.357  0.2628  0.0033 -0.3704
10303SOL    HW234698   2.300   0.935   8.430  0.4328  0.7863 -1.7742
10304SOL     OW34699   9.268   6.081   0.652  0.6749 -0.2182 -0.2379
10304SOL    HW134700   9.293   6.044   0.737  0.8680  0.8231  0.1741
10304SOL    HW234701   9.189   6.034   0.628 -0.0203  0.2355  1.0572
10305SOL     OW34702   5.666   7.994   7.518  0.5340 -0.5369  0.3134
10305SOL    HW134703   5.711   7.929   7.572 -0.4347 -0.1536  1.6301
10305SOL    HW234704   5.695   8.078   7.552  0.5009 -0.2754 -0.2821
10306SOL     OW34705   6.605   5.859   2.140  0.5119 -0.3594  0.1994
10306SOL    HW134706   6.535   5.827   2.197  0.0724  0.9777  0.4301
10306SOL    HW234707   6.642   5.779   2.102 -1.0342 -1.1151  0.1810
10307SOL     OW34708   4.290   2.819   7.518  0.2157 -0.3225 -0.1650
10307SOL    HW134709   4.343   2.832   7.597  0.2621  1.7663 -0.4731
10307SOL    HW234710   4.234   2.896   7.515 -1.0057 -1.2258 -1.2632
10308SOL     OW34711   2.844  10.136   7.876 -0.6236 -0.2925 -0.0171
10308SOL    HW134712   2.814  10.180   7.796  0.0175  0.5118  0.1761
10308SOL    HW234713   2.891  10.059   7.844 -1.6683 -0.8050 -0.3630
10309SOL     OW34714   2.381   0.341   1.952  0.6775  0.2195 -0.0555
10309SOL    HW134715   2.345   0.302   1.872 -1.5081  0.0500  0.9276
10309SOL    HW234716   2.431   0.270   1.992 -1.3105 -0.9488  0.5293
10310SOL     OW34717   1.660   8.401   7.914  0.4122 -0.4693 -0.2669
10310SOL    HW134718   1.746   8.415   7.954  0.4362  3.1037 -1.2575
10310SOL    HW234719   1.606   8.474   7.946 -2.4133 -2.7111  0.5123
10311SOL     OW34720   7.573   1.076   9.600 -0.3896 -0.0493  0.5723
10311SOL    HW134721   7.603   1.004   9.543  0.5896  1.6343 -1.1621
10311SOL    HW234722   7.631   1.071   9.676 -0.8983 -1.5955  0.9006
10312SOL     OW34723   7.450   2.701   4.942  0.0618 -0.0375  0.4254
10312SOL    HW134724   7.523   2.757   4.918 -0.2501  0.1964  0.0140
10312SOL    HW234725   7.381   2.721   4.878  0.4895 -2.0239 -0.7680
10313SOL     OW34726   1.428   3.903   2.902  0.0873 -0.0672  0.8514
10313SOL    HW134727   1.410   3.814   2.932  0.6042 -0.5021 -0.0740
10313SOL    HW234728   1.475   3.944   2.975 -0.5208 -0.4111  1.4430
10314SOL     OW34729   3.270   6.091   4.214 -0.0451  0.0543  0.1917
10314SOL    HW134730   3.191   6.122   4.258  0.1608 -0.7315  1.1657
10314SOL    HW234731   3.243   6.077   4.123 -0.8763  0.3223  0.3873
10315SOL     OW34732   9.947   9.988   2.840  0.1017  0.1128 -0.2748
10315SOL    HW134733   9.974   9.914   2.896  0.3165  1.2710  1.2179
10315SOL    HW234734  10.018  10.051   2.848 -1.1608  1.5038  0.4642
10316SOL     OW34735   7.658   7.283   7.425  0.0367 -0.0385 -0.1624
10316SOL    HW134736   7.709   7.265   7.346 -0.2926 -1.1976 -0.1278
10316SOL    HW234737   7.570   7.304   7.392 -0.1056 -0.5414 -0.1070
10317SOL     OW34738   4.471   9.651   8.637  0.1800 -0.6208  0.3253
10317SOL    HW134739   4.526   9.574   8.622  0.5262 -0.6628  1.7147
10317SOL    HW234740   4.458   9.653   8.732 -0.3265  0.6999  0.2400
10318SOL     OW34741   9.672   3.473  10.126 -0.1499  0.1608 -0.2314
10318SOL    HW134742   9.642   3.551  10.172  1.0345  1.5109 -1.6781
10318SOL    HW234743   9.591   3.430  10.097 -0.8131  0.7060  0.7547
10319SOL     OW34744   9.317   3.672   5.500 -0.0451 -0.0256 -0.2226
10319SOL    HW134745   9.391   3.712   5.453 -0.4991 -0.7294 -1.5813
10319SOL    HW234746   9.256   3.646   5.431 -0.8843 -0.8283  0.7914
10320SOL     OW34747   9.665   2.916   3.857 -0.2875 -0.1226 -0.1362
10320SOL    HW134748   9.648   3.010   3.861 -0.7009 -0.1371 -1.0731
10320SOL    HW234749   9.578   2.877   3.843  0.0648 -0.4813 -1.5562
10321SOL     OW34750   1.088   6.202   9.304  0.0064 -0.0141 -0.0297
10321SOL    HW134751   1.102   6.130   9.242  2.4373  0.8670 -0.6269
10321SOL    HW234752   1.172   6.211   9.350 -0.9408  1.0116  1.6134
10322SOL     OW34753   0.920   1.801   0.291  0.1129  0.5315  0.1789
10322SOL    HW134754   0.884   1.781   0.204 -0.2788 -1.0235  0.6620
10322SOL    HW234755   1.011   1.773   0.286 -0.5580 -2.0942  1.0047
10323SOL     OW34756  10.349   5.732   7.622  0.2822 -0.6142 -0.0342
10323SOL    HW134757  10.273   5.693   7.578 -0.0689  2.1148 -2.1116
10323SOL    HW234758  10.315   5.763   7.706  0.0666 -2.6566  0.6917
10324SOL     OW34759   7.584   7.894   7.529  0.4588  0.1535 -0.0134
10324SOL    HW134760   7.627   7.910   7.613  0.9992  0.5760 -0.3590
10324SOL    HW234761   7.656   7.885   7.466  0.0819 -0.8860 -0.3179
10325SOL     OW34762   9.095   3.379   8.788 -0.5924 -0.0393 -0.2327
10325SOL    HW134763   9.046   3.414   8.714 -0.6213 -0.2170 -0.3004
10325SOL    HW234764   9.175   3.430   8.791 -0.3957 -0.3133 -0.6543
10326SOL     OW34765   5.604   8.471   7.408  0.2216 -0.4642  0.2728
10326SOL    HW134766   5.675   8.494   7.468  0.7579 -0.6092 -0.2951
10326SOL    HW234767   5.645   8.467   7.322 -0.4930 -0.4780 -0.0781
10327SOL     OW34768   9.504   4.226   1.063  0.0685 -0.1966  0.2875
10327SOL    HW134769   9.410   4.221   1.082  0.3350 -0.1608  1.7087
10327SOL    HW234770   9.511   4.200   0.971 -1.3193 -0.2970  0.1864
10328SOL     OW34771   7.678   0.170   8.326  0.5307  0.7052  0.4036
10328SOL    HW134772   7.709   0.169   8.416  1.7659  2.5588  0.0637
10328SOL    HW234773   7.583   0.165   8.332  0.6471 -3.4895  1.5742
10329SOL     OW34774   3.333   5.883   4.757 -0.5051 -0.6913  0.5283
10329SOL    HW134775   3.287   5.814   4.806  0.3127 -1.0634  0.7853
10329SOL    HW234776   3.285   5.889   4.674  0.2295 -2.5676 -0.0866
10330SOL     OW34777   8.221   3.113   2.897 -0.2764 -0.0922 -0.3822
10330SOL    HW134778   8.274   3.069   2.964 -1.3234  0.6422  0.9911
10330SOL    HW234779   8.151   3.156   2.947 -2.7682 -1.8238 -2.1576
10331SOL     OW34780   6.923   2.203   3.213 -0.3421 -0.0362 -0.0529
10331SOL    HW134781   6.986   2.222   3.282 -0.6119 -0.4593  0.3161
10331SOL    HW234782   6.891   2.288   3.186 -0.6186  0.1146  0.7153
10332SOL     OW34783   0.949   3.104   6.558 -0.6172  0.4575  0.8828
10332SOL    HW134784   1.013   3.098   6.629  0.8712  0.9414 -0.3840
10332SOL    HW234785   0.968   3.187   6.515 -1.7899  0.3807  0.1807
10333SOL     OW34786  10.074   4.053   8.769 -0.0884  0.1779 -0.0431
10333SOL    HW134787   9.979   4.061   8.767 -0.1376 -0.4531 -0.8737
10333SOL    HW234788  10.104   4.106   8.695  0.2581  0.9084  0.6122
10334SOL     OW34789   1.240   7.903   5.098  0.0403 -0.0361 -0.1167
10334SOL    HW134790   1.197   7.848   5.033  2.3653  1.9884 -3.7382
10334SOL    HW234791   1.176   7.970   5.119 -0.5585 -0.3668 -0.8457
10335SOL     OW34792   2.345   5.843   1.625 -0.1618  0.7016  0.5232
10335SOL    HW134793   2.335   5.828   1.531 -0.8494  0.2357  0.6668
10335SOL    HW234794   2.311   5.932   1.638  0.5711  1.0319  0.2324
10336SOL     OW34795   1.062   0.078   3.896  0.0210 -0.4009  0.0873
10336SOL    HW134796   1.051  -0.015   3.874 -3.4326 -0.0991  0.0022
10336SOL    HW234797   1.011   0.089   3.977 -0.8060  1.6556 -0.6547
10337SOL     OW34798   3.369   6.864   6.932  0.0430  0.6397 -0.3797
10337SOL    HW134799   3.461   6.840   6.917  0.4601  2.5638 -1.3138
10337SOL    HW234800   3.371   6.920   7.009 -0.1928  1.3909 -0.9034
10338SOL     OW34801   0.251   0.733   5.797 -0.2271 -0.2526  0.0740
10338SOL    HW134802   0.250   0.793   5.872 -1.9468 -1.5816  1.1943
10338SOL    HW234803   0.329   0.758   5.747  0.1804  1.6031  1.5363
10339SOL     OW34804   4.270   8.066   4.705 -0.3622  0.0688 -0.0124
10339SOL    HW134805   4.202   8.133   4.706 -0.5045 -0.0071 -1.7288
10339SOL    HW234806   4.240   8.003   4.639  1.9561  0.6984 -1.7741
10340SOL     OW34807   7.737   4.594   8.151 -0.5444 -0.0478  0.4656
10340SOL    HW134808   7.815   4.649   8.145  0.6552 -1.7813 -0.9842
10340SOL    HW234809   7.665   4.656   8.164  0.9897  1.6502  1.3820
10341SOL     OW34810   3.713   9.525   3.047  0.1852 -0.6886 -0.1032
10341SOL    HW134811   3.672   9.513   3.133 -0.4338 -1.3373 -0.4640
10341SOL    HW234812   3.755   9.610   3.051  0.4782 -0.8714  0.9661
10342SOL     OW34813   2.448  10.357   6.804  0.5939  0.1399  0.1887
10342SOL    HW134814   2.489  10.440   6.829 -0.7110  0.8143  0.1721
10342SOL    HW234815   2.357  10.380   6.783 -0.1209 -1.4366  1.2736
10343SOL     OW34816   4.248   8.626   2.530  0.5079 -0.0309 -0.0386
10343SOL    HW134817   4.245   8.530   2.531 -0.1867 -0.0117  0.1656
10343SOL    HW234818   4.227   8.649   2.440 -1.3872 -0.0232  0.3787
10344SOL     OW34819   0.999   3.421   4.746 -0.3425 -0.1339  0.5771
10344SOL    HW134820   1.084   3.378   4.758 -0.5110 -0.4708  0.5684
10344SOL    HW234821   0.994   3.438   4.651  0.3629  1.2394  0.7564
10345SOL     OW34822   6.987   3.931   5.845  0.2925  0.3020  0.0412
10345SOL    HW134823   6.977   3.846   5.802  1.3406  0.7850 -1.2343
10345SOL    HW234824   7.013   3.991   5.774  1.6962  1.2195  1.2780
10346SOL     OW34825   2.954   7.999   1.583  0.3576  0.4216  0.0824
10346SOL    HW134826   2.942   7.978   1.675  0.4399  0.3713  0.0816
10346SOL    HW234827   3.049   8.007   1.572  0.6802 -2.8044 -0.6888
10347SOL     OW34828   6.452   8.178   9.129  0.1940 -0.0806  0.6209
10347SOL    HW134829   6.496   8.185   9.214  0.5099 -2.1631  0.6619
10347SOL    HW234830   6.493   8.104   9.086  0.8991  1.6405 -1.9314
10348SOL     OW34831  10.215   1.020   0.141  0.5764 -0.2609  0.4942
10348SOL    HW134832  10.195   1.083   0.210 -1.7602 -0.2590 -0.1104
10348SOL    HW234833  10.180   0.937   0.174  0.0738 -0.4023 -0.3603
10349SOL     OW34834   9.873   3.828   2.974  0.2662  0.0842 -0.3460
10349SOL    HW134835   9.897   3.799   3.063  2.9824 -0.9837 -1.3256
10349SOL    HW234836   9.930   3.903   2.957 -1.0415  0.9995 -0.8208
10350SOL     OW34837   7.662   8.708   8.364  0.0736  0.2621 -0.2937
10350SOL    HW134838   7.706   8.648   8.424  0.3426  2.2128  1.5598
10350SOL    HW234839   7.732   8.761   8.327 -0.2264 -0.1213 -1.4917
10351SOL     OW34840   2.391   0.491   4.077 -0.1435  0.0538 -0.0878
10351SOL    HW134841   2.465   0.441   4.041 -0.6776 -0.8713  0.0672
10351SOL    HW234842   2.356   0.539   4.002  0.7100  0.6427 -0.1275
10352SOL     OW34843   8.446   9.320   2.169  0.2969 -0.4710  0.2139
10352SOL    HW134844   8.484   9.262   2.235  0.9954  0.9944  1.1323
10352SOL    HW234845   8.411   9.394   2.218 -0.8901 -0.2475 -0.9120
10353SOL     OW34846   7.320   7.231   7.610  0.3850  0.4540  0.1762
10353SOL    HW134847   7.359   7.242   7.523  0.7525  0.3091  0.3208
10353SOL    HW234848   7.237   7.186   7.594  0.8543 -0.3630 -0.0215
10354SOL     OW34849   3.621   9.148   0.206  0.0031  0.6488  0.6858
10354SOL    HW134850   3.687   9.090   0.242 -0.1904 -0.7048 -1.0328
10354SOL    HW234851   3.670   9.218   0.163  0.2498  1.0894  1.6591
10355SOL     OW34852   0.493   7.197   4.803  0.2192 -0.1543 -0.4607
10355SOL    HW134853   0.544   7.272   4.772 -1.4514  0.4247 -1.9186
10355SOL    HW234854   0.512   7.128   4.740  0.1202 -0.3126 -0.3164
10356SOL     OW34855   0.486   0.784   3.537 -0.0897 -0.0632  0.4065
10356SOL    HW134856   0.484   0.723   3.611 -1.2175 -0.7751 -0.1752
10356SOL    HW234857   0.418   0.752   3.478 -0.6890  1.7592  0.0565
10357SOL     OW34858   7.516   2.121   9.808  0.1032 -0.2205 -0.1955
10357SOL    HW134859   7.574   2.056   9.769 -0.8607 -0.4226 -1.3539
10357SOL    HW234860   7.514   2.192   9.744 -0.6248 -0.0530  0.0072
10358SOL     OW34861   4.736   0.888   4.018  0.1035 -0.0933  0.1608
10358SOL    HW134862   4.803   0.933   4.069 -0.9523  0.6947  0.8951
10358SOL    HW234863   4.663   0.950   4.014 -0.7107 -1.0579 -0.3243
10359SOL     OW34864   7.016   1.063   2.781  0.7252 -0.0957 -0.2524
10359SOL    HW134865   7.088   1.044   2.840 -0.0987 -1.7404  0.2613
10359SOL    HW234866   7.039   1.148   2.742  2.2934  0.0144  0.8370
10360SOL     OW34867   7.772   7.016   0.985  0.2739  0.0984 -0.0684
10360SOL    HW134868   7.739   7.096   0.945  0.9690 -0.1125 -1.1043
10360SOL    HW234869   7.780   6.954   0.913  0.4414 -0.6813  0.5966
10361SOL     OW34870   5.677   5.962   2.795  0.6297 -0.1158  0.1989
10361SOL    HW134871   5.638   5.935   2.878  1.1010  0.1035  0.4970
10361SOL    HW234872   5.771   5.960   2.811  0.7736 -1.1908 -0.6846
10362SOL     OW34873   3.170   4.661   7.482  0.0835  0.1496 -0.0431
10362SOL    HW134874   3.248   4.677   7.536  0.5632 -0.3177 -0.5783
10362SOL    HW234875   3.143   4.573   7.505 -1.3116  0.8990  1.3728
10363SOL     OW34876   7.980   1.766   4.645 -0.2750  0.2643  0.0371
10363SOL    HW134877   8.069   1.798   4.627 -1.3459  2.3410 -2.0674
10363SOL    HW234878   7.931   1.844   4.670 -2.6517  0.2645 -3.8153
10364SOL     OW34879   5.213   5.972   1.139  0.1588 -0.4044  0.1779
10364SOL    HW134880   5.273   6.037   1.104  0.1147  0.3649  1.4337
10364SOL    HW234881   5.161   6.020   1.204 -1.9559 -0.9803 -0.9658
10365SOL     OW34882   0.711   6.664   5.774 -0.7247 -1.0102  0.6939
10365SOL    HW134883   0.705   6.636   5.683 -2.1389  1.0436  0.0789
10365SOL    HW234884   0.653   6.740   5.780  0.0493 -0.5030  3.0879
10366SOL     OW34885   2.857   2.546   6.241 -0.5659 -0.3690 -0.4383
10366SOL    HW134886   2.861   2.454   6.267 -2.7197 -0.7637 -1.2751
10366SOL    HW234887   2.908   2.550   6.160  0.0630 -0.6773 -0.0660
10367SOL     OW34888   5.205   6.703   5.515 -0.2137  0.0178 -0.3868
10367SOL    HW134889   5.136   6.761   5.548 -0.5638 -0.7310  0.2228
10367SOL    HW234890   5.232   6.742   5.432 -0.1365  1.2990  0.2205
10368SOL     OW34891   5.380   1.552   9.976  0.5460  0.3764 -0.2637
10368SOL    HW134892   5.410   1.642   9.967  0.0494  0.9894  2.8142
10368SOL    HW234893   5.452   1.507  10.020  0.6462 -0.6714 -1.4378
10369SOL     OW34894   6.432   7.293   0.125  0.1792 -0.4195  0.1748
10369SOL    HW134895   6.416   7.215   0.178 -0.5448 -2.2443 -2.4961
10369SOL    HW234896   6.519   7.277   0.086 -0.3985 -0.4204 -1.1646
10370SOL     OW34897   5.305   7.977   0.091  0.0932 -0.3614  0.3235
10370SOL    HW134898   5.244   7.960   0.163 -1.5187 -0.8028 -1.0844
10370SOL    HW234899   5.293   7.903   0.032 -0.7998  1.3658 -1.8061
10371SOL     OW34900   7.026   8.278   8.637 -0.0151 -0.3885 -0.2775
10371SOL    HW134901   7.026   8.186   8.666 -0.6270 -0.0640  0.8158
10371SOL    HW234902   7.119   8.299   8.624  0.6144  0.0899  3.7665
10372SOL     OW34903   8.982   0.123   3.963  0.4421 -0.2033 -0.4209
10372SOL    HW134904   8.903   0.159   3.923  0.1512  0.5332  0.7879
10372SOL    HW234905   9.041   0.197   3.972 -0.6425  0.3812  3.2724
10373SOL     OW34906   2.937   9.736   9.873  0.2270 -0.3485 -0.6792
10373SOL    HW134907   2.845   9.712   9.876 -0.3037  1.6342 -0.4568
10373SOL    HW234908   2.964   9.743   9.965  0.6038 -0.8750 -0.7421
10374SOL     OW34909   5.630   7.459   8.336  0.5347 -0.4376 -0.0001
10374SOL    HW134910   5.600   7.546   8.308  2.7584  0.6399  0.7582
10374SOL    HW234911   5.579   7.398   8.282 -1.2691  1.2970 -0.3782
10375SOL     OW34912   4.965   9.963   9.944  0.3189 -0.0900  0.3136
10375SOL    HW134913   4.955   9.868   9.934 -2.6169  0.0025  1.4032
10375SOL    HW234914   5.003   9.973  10.032 -2.6665 -0.2845  1.7344
10376SOL     OW34915  10.114   0.773   4.394  0.0940 -0.3332  0.1568
10376SOL    HW134916  10.040   0.735   4.441 -0.1181 -1.2478 -0.8819
10376SOL    HW234917  10.183   0.707   4.399  0.0537 -0.4714 -0.8262
10377SOL     OW34918   0.533   0.315   3.905  0.3508  0.3759  0.0471
10377SOL    HW134919   0.453   0.264   3.889 -0.2629  0.4055  2.5982
10377SOL    HW234920   0.600   0.249   3.924  0.7869  0.3854 -1.3440
10378SOL     OW34921   6.457   0.976   8.570  0.4336  0.1004  0.3004
10378SOL    HW134922   6.423   0.896   8.532  0.9284  0.4212 -0.8618
10378SOL    HW234923   6.487   1.028   8.495 -1.5068  2.1679  0.8370
10379SOL     OW34924   3.443   3.079   9.008  0.4370  0.0501  0.3553
10379SOL    HW134925   3.349   3.072   8.991  0.5937 -1.4568 -0.0097
10379SOL    HW234926   3.453   3.162   9.055 -1.3954 -0.8876  2.5613
10380SOL     OW34927   1.143   5.273   6.186  0.4501 -0.3983 -0.0187
10380SOL    HW134928   1.208   5.236   6.127 -1.0247  0.8278 -2.5850
10380SOL    HW234929   1.147   5.367   6.170 -0.0892 -0.0208  1.8238
10381SOL     OW34930   6.987   0.081   6.367 -0.0544 -0.5731 -0.1487
10381SOL    HW134931   7.042   0.024   6.419  0.4597  0.7819  0.8554
10381SOL    HW234932   7.049   0.128   6.310 -0.5087 -1.3081 -1.2745
10382SOL     OW34933   5.872   9.058   1.619  0.2121  0.0181  0.8719
10382SOL    HW134934   5.840   9.071   1.530  0.7623  0.9405  0.7928
10382SOL    HW234935   5.807   9.001   1.661 -1.1904  1.3138  0.5316
10383SOL     OW34936   8.613   9.406   5.230 -0.0308 -0.1725 -0.5018
10383SOL    HW134937   8.524   9.390   5.199 -0.5766  0.9203  0.4106
10383SOL    HW234938   8.602   9.458   5.309  1.4220 -0.2128 -0.2393
10384SOL     OW34939   5.816   5.908   8.864 -0.4487  0.3071  0.3208
10384SOL    HW134940   5.742   5.901   8.924  0.2760  2.9736  1.6684
10384SOL    HW234941   5.891   5.876   8.915 -0.2288  0.2613 -0.0314
10385SOL     OW34942   3.441   4.441   8.661  0.2024 -0.2464 -0.3465
10385SOL    HW134943   3.521   4.460   8.611 -0.8934  3.2824 -1.0478
10385SOL    HW234944   3.473   4.415   8.747  2.1821  1.0292 -0.6095
10386SOL     OW34945   4.408   3.595   5.580  0.0885 -0.0681  0.2610
10386SOL    HW134946   4.338   3.574   5.518  0.1231  0.6889 -0.0468
10386SOL    HW234947   4.375   3.567   5.665 -0.6820  0.5006  0.1482
10387SOL     OW34948   6.875   2.843   0.861 -0.3062  0.1245  0.5623
10387SOL    HW134949   6.932   2.807   0.930  0.8657 -0.7886 -0.8243
10387SOL    HW234950   6.931   2.903   0.813 -0.3447 -1.0857 -1.0748
10388SOL     OW34951   0.637   6.112   0.210  0.3138  0.5885  0.2166
10388SOL    HW134952   0.629   6.093   0.303 -1.7361  1.9793  0.3977
10388SOL    HW234953   0.727   6.089   0.188 -0.1080 -3.1439  1.7098
10389SOL     OW34954   6.139   4.637   5.005  0.5707 -0.5167 -0.0832
10389SOL    HW134955   6.132   4.632   5.101 -1.9291 -0.8430 -0.2267
10389SOL    HW234956   6.149   4.730   4.987  1.4541 -0.4854  0.4968
10390SOL     OW34957   5.044   1.447   8.526 -0.8735 -0.4938  0.2805
10390SOL    HW134958   5.064   1.522   8.469 -0.4271 -1.4711 -0.8835
10390SOL    HW234959   5.011   1.487   8.607 -0.1618  0.9734 -0.1198
10391SOL     OW34960   9.057   8.930   3.434  0.1485  0.5327  0.1987
10391SOL    HW134961   9.096   8.908   3.350 -0.1572 -1.0776  0.4280
10391SOL    HW234962   9.130   8.960   3.488  1.0682 -1.9549  0.4699
10392SOL     OW34963   2.965   9.921   3.447  0.4529  0.1004 -0.4086
10392SOL    HW134964   3.023   9.878   3.384 -0.8941 -1.4349 -0.6592
10392SOL    HW234965   2.883   9.872   3.442 -0.0885  0.6891  1.6741
10393SOL     OW34966   1.672   2.846   9.743 -0.4415  0.3800 -0.2986
10393SOL    HW134967   1.603   2.823   9.805  0.4859  1.7316  1.3081
10393SOL    HW234968   1.684   2.941   9.754  1.6684  0.1903 -0.5206
10394SOL     OW34969   5.780   9.902   6.313 -0.1250 -0.3635 -0.3928
10394SOL    HW134970   5.723   9.977   6.298 -2.1130 -1.8939 -1.0941
10394SOL    HW234971   5.772   9.884   6.407 -0.5918 -0.3714 -0.4296
10395SOL     OW34972   2.598   8.855   3.215 -0.0936 -0.1541  0.2136
10395SOL    HW134973   2.511   8.834   3.249 -0.2118 -0.0596 -0.0325
10395SOL    HW234974   2.595   8.830   3.123  0.3939 -0.8980  0.3911
10396SOL     OW34975   8.137   5.727   9.903  0.5983  0.4293 -0.0999
10396SOL    HW134976   8.116   5.690   9.817  0.8736  0.5981 -0.2422
10396SOL    HW234977   8.215   5.781   9.887  1.3787 -0.4995  0.4899
10397SOL     OW34978   0.348   4.162   3.620 -0.1018  0.4890  0.1464
10397SOL    HW134979   0.425   4.114   3.651 -0.1245  0.5374  0.2771
10397SOL    HW234980   0.342   4.140   3.527  1.0028  1.7270 -0.2560
10398SOL     OW34981   2.973   6.915   6.317  0.8587 -0.3166  0.3313
10398SOL    HW134982   3.037   6.933   6.386  0.8254 -1.3156  0.6389
10398SOL    HW234983   3.018   6.854   6.259  1.3380  1.4590 -1.2359
10399SOL     OW34984   2.091   8.710   9.524  0.3003  0.0683  0.2376
10399SOL    HW134985   2.183   8.704   9.496  0.4521  0.0052  0.7318
10399SOL    HW234986   2.059   8.620   9.518 -0.4398  0.4253 -2.2139
10400SOL     OW34987   4.324   5.099   3.175 -0.0789  0.6889  0.6655
10400SOL    HW134988   4.390   5.158   3.139  0.7943 -0.2770  0.5991
10400SOL    HW234989   4.356   5.079   3.263  0.6182 -1.0226  0.0850
10401SOL     OW34990   7.103   3.520   6.670  0.5327  0.0743  0.1148
10401SOL    HW134991   7.043   3.595   6.672  0.7835  0.2754  0.1915
10401SOL    HW234992   7.188   3.559   6.652  1.2876  0.2196  3.3571
10402SOL     OW34993   0.094   6.947   4.980  0.2013 -0.5636  0.3159
10402SOL    HW134994   0.044   7.028   4.988  0.6829 -0.2076 -0.2503
10402SOL    HW234995   0.044   6.883   5.031  1.4452  0.8124  3.4915
10403SOL     OW34996   0.009   5.481   4.983  0.1803  0.1798 -0.7345
10403SOL    HW134997  -0.010   5.403   5.035  0.9820  0.8208  0.5594
10403SOL    HW234998   0.079   5.453   4.923 -0.2195 -0.3506 -0.9647
10404SOL     OW34999   7.895   8.840   3.492 -0.1260 -0.1906  0.2002
10404SOL    HW135000   7.835   8.869   3.560 -0.2705  0.0164 -0.0139
10404SOL    HW235001   7.932   8.759   3.526  0.4928  0.3863  0.9244
10405SOL     OW35002   2.487   2.960   0.065  0.5918  0.1525 -0.3657
10405SOL    HW135003   2.429   3.028   0.100  0.2783  0.8652 -2.1471
10405SOL    HW235004   2.543   3.006   0.003  0.8270 -1.1179 -1.1270
10406SOL     OW35005   2.188   3.224   8.854  0.2465  0.3460 -0.2149
10406SOL    HW135006   2.186   3.130   8.838  1.0787  0.1711  0.6097
10406SOL    HW235007   2.280   3.245   8.864  0.0661  1.2408 -0.3141
10407SOL     OW35008   6.791   3.772   2.423 -0.0110  0.1434  1.0782
10407SOL    HW135009   6.778   3.846   2.365  2.3349  0.4985  0.9280
10407SOL    HW235010   6.758   3.697   2.374 -0.2126  0.7589  0.2574
10408SOL     OW35011   5.563   0.746   9.196  0.5350  0.3734  0.0772
10408SOL    HW135012   5.598   0.749   9.285 -0.1535  0.6879  0.3417
10408SOL    HW235013   5.506   0.823   9.190 -1.2156 -0.8585  0.1257
10409SOL     OW35014   1.985   0.137   2.689  0.8560 -0.2264  0.3261
10409SOL    HW135015   2.027   0.222   2.681  1.1743 -0.2121  1.8252
10409SOL    HW235016   1.912   0.151   2.749 -2.3625  0.0745 -3.3541
10410SOL     OW35017   8.387   3.673   6.107  0.8458  0.0987 -0.5082
10410SOL    HW135018   8.416   3.721   6.030  0.9896 -0.6852 -0.9529
10410SOL    HW235019   8.458   3.613   6.126  1.9949  2.0188  1.8215
10411SOL     OW35020   4.650   6.148   3.094  0.2206  0.3095  0.1873
10411SOL    HW135021   4.558   6.173   3.087 -0.3661 -1.7630 -0.2079
10411SOL    HW235022   4.698   6.218   3.050 -1.3056  0.6906 -0.9263
10412SOL     OW35023   1.831   2.347   8.739 -0.3803  0.1920 -0.2435
10412SOL    HW135024   1.898   2.404   8.702  0.6089 -0.4939  0.4488
10412SOL    HW235025   1.810   2.286   8.669  1.0403 -0.7129  0.0641
10413SOL     OW35026   1.757   3.420   3.745  0.4267  0.2797 -0.2241
10413SOL    HW135027   1.739   3.369   3.666 -2.1146  0.7992 -0.0710
10413SOL    HW235028   1.758   3.511   3.714  3.8463  0.3192 -0.3158
10414SOL     OW35029   6.107   0.618   2.927 -0.1308  0.5861 -0.0136
10414SOL    HW135030   6.168   0.594   2.856  2.0683  0.9983  1.6297
10414SOL    HW235031   6.120   0.712   2.939  1.4709  0.1437  2.5278
10415SOL     OW35032   1.239   2.121   8.005  0.6070 -0.1396  0.3299
10415SOL    HW135033   1.260   2.079   7.921 -0.4160  1.4550 -0.8043
10415SOL    HW235034   1.145   2.137   8.000  0.5248 -0.0165  1.8219
10416SOL     OW35035   0.986   6.203   0.280  0.6610  0.4651  0.1676
10416SOL    HW135036   1.030   6.269   0.227 -0.0975  0.6100 -0.2989
10416SOL    HW235037   0.996   6.122   0.230  2.3067  0.0327  1.1347
10417SOL     OW35038   1.361   1.475   0.449  0.2437 -0.2392  0.1031
10417SOL    HW135039   1.433   1.435   0.402 -0.9722 -0.4065 -1.7256
10417SOL    HW235040   1.335   1.410   0.513  0.7096 -0.8229 -0.2914
10418SOL     OW35041   9.591   7.179   2.412  1.0973  0.0938 -0.7355
10418SOL    HW135042   9.569   7.269   2.436 -0.1491 -0.3849 -0.0026
10418SOL    HW235043   9.565   7.127   2.488  1.5544 -0.9235 -1.2622
10419SOL     OW35044   2.854   3.645   9.428  0.4975 -0.0826  0.0060
10419SOL    HW135045   2.798   3.651   9.505  2.0074  0.0122  1.1365
10419SOL    HW235046   2.814   3.705   9.365 -0.6164  0.0284  0.7872
10420SOL     OW35047   4.202   3.657   4.003 -0.4217  0.1364  0.1909
10420SOL    HW135048   4.180   3.641   3.911  1.6983 -1.1804 -0.1659
10420SOL    HW235049   4.151   3.591   4.051 -1.3343  0.6571 -0.0351
10421SOL     OW35050   5.058   3.220   9.571 -0.1746  0.0004 -0.0414
10421SOL    HW135051   5.141   3.189   9.534  0.5581 -0.8752  2.1904
10421SOL    HW235052   4.991   3.185   9.513  0.9576  0.5326 -1.7716
10422SOL     OW35053   4.446   2.127   4.087  0.0193  1.0291 -0.3225
10422SOL    HW135054   4.449   2.172   4.003  3.5301  1.3328 -0.1609
10422SOL    HW235055   4.498   2.048   4.074 -0.3802  0.4642  1.2613
10423SOL     OW35056   7.702   8.911   5.047 -0.1596  0.2715  0.5378
10423SOL    HW135057   7.673   8.981   4.989  1.3340  0.6501  0.2181
10423SOL    HW235058   7.794   8.899   5.026 -0.3950 -1.8603  0.5266
10424SOL     OW35059   5.604   3.171   7.974 -0.1548  0.4716  0.6372
10424SOL    HW135060   5.523   3.121   7.982  0.1156 -0.2265 -0.6913
10424SOL    HW235061   5.619   3.207   8.062 -1.0137 -0.7546  1.3155
10425SOL     OW35062   9.992   9.102   2.674  0.1941  0.1399 -0.5435
10425SOL    HW135063   9.904   9.133   2.696  0.0424 -1.3749  1.1709
10425SOL    HW235064   9.983   9.007   2.668  1.7865 -0.0675 -0.0423
10426SOL     OW35065   5.048   2.894   4.836 -0.5523 -0.1375  0.1827
10426SOL    HW135066   5.069   2.971   4.782 -0.2417  0.0886  0.6210
10426SOL    HW235067   5.088   2.821   4.790  0.2133  0.1364  0.4055
10427SOL     OW35068   5.245   6.113   2.049 -0.3038 -0.2768  1.0210
10427SOL    HW135069   5.174   6.173   2.026  0.3077 -0.0898 -0.5126
10427SOL    HW235070   5.204   6.049   2.107 -1.7112 -0.1017  0.2752
10428SOL     OW35071   5.417   5.628   0.507 -0.6075  0.1153  0.4494
10428SOL    HW135072   5.356   5.594   0.441 -0.1075 -1.7067  0.8893
10428SOL    HW235073   5.424   5.558   0.571  3.5250 -0.6700 -0.5944
10429SOL     OW35074   7.532   4.185   3.660  0.7052 -0.2818 -0.2748
10429SOL    HW135075   7.526   4.269   3.705  0.7001 -1.3710  1.8361
10429SOL    HW235076   7.441   4.162   3.640  0.7231  0.3020 -1.0936
10430SOL     OW35077   2.256   1.142   7.796  0.0066 -0.0777  0.5749
10430SOL    HW135078   2.166   1.139   7.830 -0.3193 -2.3233 -0.3496
10430SOL    HW235079   2.250   1.105   7.708  1.8410 -0.1629  0.4542
10431SOL     OW35080   1.341   0.553   0.880 -0.6844  0.0980  0.0568
10431SOL    HW135081   1.325   0.462   0.857 -0.3393 -0.4638  1.9442
10431SOL    HW235082   1.428   0.554   0.918 -1.3150  0.8991  1.5721
10432SOL     OW35083   5.640  10.186   3.173 -0.2496  0.8000  0.5195
10432SOL    HW135084   5.726  10.203   3.135  0.0706  0.3568  1.0302
10432SOL    HW235085   5.638  10.238   3.253  0.7381 -1.4153  2.1029
10433SOL     OW35086   9.961   0.644   0.790 -0.7698  0.1291 -0.0331
10433SOL    HW135087  10.014   0.609   0.862  1.0008 -0.3908 -1.5041
10433SOL    HW235088  10.024   0.683   0.731 -1.9952 -0.6733 -1.9774
10434SOL     OW35089   1.523   1.201   5.654  0.4276 -0.5818 -0.3479
10434SOL    HW135090   1.438   1.162   5.636  0.1797  0.0859 -0.6636
10434SOL    HW235091   1.572   1.133   5.701  0.0900 -1.3410 -1.0733
10435SOL     OW35092   4.837   8.699   8.433 -0.5534  0.4711 -0.3023
10435SOL    HW135093   4.742   8.703   8.443 -0.5577  0.3473 -0.3004
10435SOL    HW235094   4.868   8.779   8.475 -0.5067 -0.4170  1.4296
10436SOL     OW35095   8.578   8.800   0.669 -0.7829 -0.1435  0.0724
10436SOL    HW135096   8.526   8.722   0.653 -0.3898 -0.8340  2.0027
10436SOL    HW235097   8.597   8.799   0.763  1.0444  1.1301 -0.2194
10437SOL     OW35098   9.363   0.662   9.218  0.3587 -0.2267 -0.7544
10437SOL    HW135099   9.394   0.596   9.155  1.4023  0.0017 -0.5044
10437SOL    HW235100   9.407   0.640   9.300  1.3205  1.1877 -0.8405
10438SOL     OW35101   3.927   7.755   2.518 -0.3976  0.2998 -0.7872
10438SOL    HW135102   3.834   7.775   2.531 -0.7606 -1.2207 -0.7719
10438SOL    HW235103   3.927   7.665   2.485  1.0568  0.4350 -1.2280
10439SOL     OW35104   9.429  10.147   4.784 -0.3010 -0.5593  0.0384
10439SOL    HW135105   9.382  10.148   4.701  0.4766 -1.1406 -0.4164
10439SOL    HW235106   9.361  10.129   4.850 -1.0639  0.7139 -0.3488
10440SOL     OW35107   1.233   5.658   1.158  0.0159  0.0323  0.0276
10440SOL    HW135108   1.318   5.683   1.196  0.2274  1.1391 -1.1044
10440SOL    HW235109   1.233   5.563   1.161  0.1038  0.0486  2.5578
10441SOL     OW35110   8.062   6.379   2.731  0.2128  0.5247 -0.0739
10441SOL    HW135111   8.138   6.397   2.675  0.8133  3.5401  1.5011
10441SOL    HW235112   8.080   6.292   2.767  1.6520  0.1080 -1.6245
10442SOL     OW35113   0.411   7.400   1.839  0.1113 -0.4622  0.3206
10442SOL    HW135114   0.390   7.371   1.928 -0.4281 -0.0967  0.3143
10442SOL    HW235115   0.400   7.321   1.786  0.6715 -0.7400  0.6095
10443SOL     OW35116   7.342   3.553   5.091 -0.0465  0.0828  0.3176
10443SOL    HW135117   7.398   3.623   5.056 -0.3597  0.2565  0.1581
10443SOL    HW235118   7.403   3.493   5.134  0.5310 -0.8384 -1.6603
10444SOL     OW35119   9.876   8.152  10.037 -0.0611  0.5571  0.7089
10444SOL    HW135120   9.840   8.173  10.123  0.7555  2.9794  0.5473
10444SOL    HW235121   9.856   8.229   9.984  3.1772  1.0094 -0.0523
10445SOL     OW35122   7.841   4.903   8.312 -0.1892 -0.2366  0.2268
10445SOL    HW135123   7.780   4.968   8.278 -0.9512 -0.1479  1.7007
10445SOL    HW235124   7.842   4.918   8.406  2.3721 -0.0243  0.2395
10446SOL     OW35125   3.937   2.253   2.282  0.0819  0.0039  0.0048
10446SOL    HW135126   3.846   2.255   2.311 -0.1199  0.5525 -0.6608
10446SOL    HW235127   3.956   2.160   2.268  0.2215 -0.3213  1.9717
10447SOL     OW35128   2.644   1.519   1.910 -0.6764 -0.2696  0.1288
10447SOL    HW135129   2.624   1.465   1.986 -0.2516  1.8570  1.8620
10447SOL    HW235130   2.733   1.495   1.886  0.2712  0.9403  2.1455
10448SOL     OW35131   5.587  10.149   6.015 -0.3256  0.0964  0.3686
10448SOL    HW135132   5.509  10.159   5.961  0.3590  0.7909 -0.5252
10448SOL    HW235133   5.635  10.077   5.975 -0.1649  0.1377  0.4860
10449SOL     OW35134   4.568   2.068   7.909 -1.0410 -0.3572 -0.1908
10449SOL    HW135135   4.488   2.106   7.871 -1.9318  0.1128  2.0173
10449SOL    HW235136   4.580   2.114   7.992  2.4989  0.7549 -1.1448
10450SOL     OW35137   5.185  10.034   9.749  0.1585 -0.3246  0.8146
10450SOL    HW135138   5.140  10.010   9.668  2.4291 -0.1237 -0.6005
10450SOL    HW235139   5.203   9.950   9.792 -0.3940 -0.4903  0.7261
10451SOL     OW35140   3.494   6.658   1.704  0.5361 -0.2452 -0.8797
10451SOL    HW135141   3.439   6.737   1.700  0.0692 -0.5910 -3.7227
10451SOL    HW235142   3.584   6.692   1.703  0.3550  0.2634 -0.4582
10452SOL     OW35143   8.000   2.313   1.742 -0.3008  0.0476 -0.2722
10452SOL    HW135144   7.989   2.270   1.826 -1.1448  2.0457  0.7066
10452SOL    HW235145   8.094   2.331   1.736 -0.3168  0.5110  0.6055
10453SOL     OW35146   6.622   8.570   8.222  0.5916 -0.3025 -0.0383
10453SOL    HW135147   6.699   8.617   8.256 -0.3439  0.2453  1.3975
10453SOL    HW235148   6.547   8.614   8.262 -0.5121 -0.6754 -1.5963
10454SOL     OW35149   6.159   4.307   9.785 -0.1786  0.3105 -0.2933
10454SOL    HW135150   6.097   4.377   9.806 -0.2227  0.5130 -1.0987
10454SOL    HW235151   6.167   4.257   9.867  0.5115  1.7444  0.5464
10455SOL     OW35152   1.304   8.682   1.893 -0.6288  0.0440  0.0972
10455SOL    HW135153   1.394   8.704   1.869  0.8815 -1.6820  3.3825
10455SOL    HW235154   1.267   8.763   1.927  0.6234  0.2657  1.0126
10456SOL     OW35155   0.090   8.379   0.729 -0.2842  0.2044 -0.0876
10456SOL    HW135156   0.008   8.384   0.778  0.0911 -1.3206  0.7602
10456SOL    HW235157   0.070   8.327   0.652  0.1259 -1.2418  0.7420
10457SOL     OW35158   4.423   2.245   5.594  0.2113  0.2429 -0.8763
10457SOL    HW135159   4.341   2.199   5.614  0.3694  0.4652  0.3261
10457SOL    HW235160   4.396   2.316   5.535 -0.5769  0.6573 -0.0551
10458SOL     OW35161   2.749   3.883   3.076  0.1144 -0.5699  0.4089
10458SOL    HW135162   2.654   3.873   3.088 -0.2501  1.0123 -0.8520
10458SOL    HW235163   2.766   3.976   3.091  1.4351 -0.7842  0.3718
10459SOL     OW35164   8.352   7.404   2.119  0.2048 -0.0981  0.2851
10459SOL    HW135165   8.437   7.388   2.079  1.1742  0.6081  1.9694
10459SOL    HW235166   8.354   7.495   2.146 -0.7540 -0.2949  1.0982
10460SOL     OW35167   4.202   5.394   9.125 -0.0203 -0.2485 -0.4961
10460SOL    HW135168   4.281   5.448   9.130 -0.8603  0.9797  0.2360
10460SOL    HW235169   4.196   5.368   9.033  0.5807  0.6658 -0.8089
10461SOL     OW35170   3.873   2.541   0.018  0.3891  0.4596  0.0144
10461SOL    HW135171   3.799   2.551  -0.042 -0.2516  0.9842  0.8490
10461SOL    HW235172   3.875   2.624   0.067 -0.1243 -0.5190  1.7944
10462SOL     OW35173   0.316   5.107  10.032  0.0504  0.4283 -0.1769
10462SOL    HW135174   0.225   5.082  10.020  0.4168 -2.0101  1.4257
10462SOL    HW235175   0.352   5.112   9.943 -1.3417  0.3317 -0.7691
10463SOL     OW35176   8.704   6.867   7.218  0.1619  0.3975  0.3322
10463SOL    HW135177   8.735   6.785   7.180  1.5541  0.4365  1.3235
10463SOL    HW235178   8.610   6.853   7.229 -0.0207 -0.2114 -1.5589
10464SOL     OW35179   2.400   2.742   0.293 -0.4757 -0.3773  0.2514
10464SOL    HW135180   2.480   2.725   0.343 -0.1245 -1.0901 -0.5343
10464SOL    HW235181   2.428   2.802   0.224 -0.6944 -0.3726  0.1685
10465SOL     OW35182   0.790   3.303   6.904 -0.1697 -0.0378 -0.8186
10465SOL    HW135183   0.783   3.228   6.845 -0.2762 -0.6620 -0.0395
10465SOL    HW235184   0.775   3.265   6.991  1.1804  0.6471 -0.2689
10466SOL     OW35185   9.718   2.972   1.479 -0.3541 -0.3506  0.1151
10466SOL    HW135186   9.811   2.985   1.466 -0.0772 -1.2029  1.0544
10466SOL    HW235187   9.696   2.897   1.424 -0.3181 -0.6126  0.4524
10467SOL     OW35188   2.207   0.345   1.409 -0.4397 -0.0623 -0.0426
10467SOL    HW135189   2.148   0.418   1.391 -0.4503  0.0341  0.3654
10467SOL    HW235190   2.164   0.269   1.370 -1.1491 -0.1056  0.7858
10468SOL     OW35191   6.193   1.661   2.524 -0.0861  0.4211  0.0043
10468SOL    HW135192   6.193   1.743   2.476 -0.2355  0.7881  0.6276
10468SOL    HW235193   6.126   1.608   2.481 -0.3678  0.8271 -0.0612
10469SOL     OW35194   4.633   9.417   8.643 -0.7287 -0.3506  0.1929
10469SOL    HW135195   4.720   9.377   8.651 -1.0623 -1.3611 -0.8217
10469SOL    HW235196   4.577   9.364   8.699 -0.9919 -0.7215 -0.4132
10470SOL     OW35197   8.968   6.484   7.892 -0.4274 -0.0215  0.2214
10470SOL    HW135198   9.026   6.515   7.961 -1.6959  0.1370  1.2439
10470SOL    HW235199   9.028   6.456   7.822  0.9217 -0.8206  1.6209
10471SOL     OW35200   1.171   6.833   6.064 -0.8485 -0.2648 -0.4648
10471SOL    HW135201   1.254   6.867   6.032 -0.6742  1.1134  1.2725
10471SOL    HW235202   1.116   6.826   5.986 -0.1333  1.9235 -1.2371
10472SOL     OW35203   2.941   4.431   8.812 -0.3854  0.1934 -0.5403
10472SOL    HW135204   3.020   4.424   8.758 -0.0757  0.4815 -0.1239
10472SOL    HW235205   2.953   4.367   8.882  0.1616  1.2496  0.3696
10473SOL     OW35206   2.577   1.069   7.278  0.5043  0.3726  0.1244
10473SOL    HW135207   2.496   1.065   7.329  0.1273  0.7164 -0.4521
10473SOL    HW235208   2.558   1.127   7.205  1.2219  0.3298 -0.1067
10474SOL     OW35209  10.141   4.346   2.711  0.4393  0.4002  0.1563
10474SOL    HW135210  10.155   4.409   2.640 -2.9264 -0.1300 -1.2043
10474SOL    HW235211  10.090   4.276   2.670  0.5334 -1.1949  2.5763
10475SOL     OW35212   8.210   5.308   1.537  0.2279 -0.2481 -0.4876
10475SOL    HW135213   8.254   5.237   1.586  1.7378 -0.2181 -1.7126
10475SOL    HW235214   8.200   5.378   1.601  2.2479 -0.1738 -0.1800
10476SOL     OW35215   2.880   2.049   4.303 -0.4725  0.0528  0.0590
10476SOL    HW135216   2.870   1.959   4.334 -0.8809 -0.0587 -0.3905
10476SOL    HW235217   2.975   2.059   4.289 -0.4115 -0.2638  0.2397
10477SOL     OW35218   6.787   7.349   5.079 -0.3757  0.5484  0.2141
10477SOL    HW135219   6.881   7.333   5.076 -0.0197  2.3462  0.2864
10477SOL    HW235220   6.753   7.284   5.140  0.7059 -0.5613 -0.3313
10478SOL     OW35221   8.736   5.978   8.269  0.2023  0.2334  0.2666
10478SOL    HW135222   8.765   6.060   8.309 -1.8423  1.7834 -1.1702
10478SOL    HW235223   8.811   5.949   8.217  0.4565  2.1696 -0.5497
10479SOL     OW35224   5.540   5.922   2.537  0.0297 -0.3160  0.9425
10479SOL    HW135225   5.563   5.930   2.630  0.7869 -2.5968  1.0162
10479SOL    HW235226   5.625   5.911   2.493 -0.3648  0.2006  0.0262
10480SOL     OW35227   6.196   0.718   3.248  0.0054 -0.0115  0.5435
10480SOL    HW135228   6.228   0.773   3.176  0.0810 -0.6792  0.0567
10480SOL    HW235229   6.161   0.640   3.205 -1.6799  0.3829  1.0933
10481SOL     OW35230   9.582   2.299   4.073  0.3997  0.0329 -0.2644
10481SOL    HW135231   9.557   2.211   4.101  0.9309  0.3985  1.4365
10481SOL    HW235232   9.595   2.347   4.154  0.2430  1.6593 -1.1715
10482SOL     OW35233   5.442   3.989   5.773 -0.1018 -0.3169  0.2248
10482SOL    HW135234   5.443   3.896   5.749 -0.9983 -0.2257 -0.2235
10482SOL    HW235235   5.375   3.995   5.842 -0.1121  0.0066  0.1895
10483SOL     OW35236   3.587   3.112   6.596  0.4956 -0.1101  0.0019
10483SOL    HW135237   3.579   3.161   6.514  0.9797  2.5396  1.4031
10483SOL    HW235238   3.525   3.040   6.587  0.8041 -0.1489 -2.8047
10484SOL     OW35239   6.818   1.331   6.802  0.2951 -0.1857  0.5557
10484SOL    HW135240   6.839   1.422   6.783  2.0579 -0.3089  1.6354
10484SOL    HW235241   6.775   1.333   6.888  0.8515 -0.3997  0.8465
10485SOL     OW35242  10.212   9.389   6.782  0.7040 -0.3503  0.5186
10485SOL    HW135243  10.224   9.413   6.690  1.8560 -0.3095  0.6596
10485SOL    HW235244  10.195   9.471   6.827  0.4770 -0.3293  0.3938
10486SOL     OW35245   4.382   2.545   5.179  0.5749 -0.1863 -0.0595
10486SOL    HW135246   4.308   2.559   5.119  1.8325 -1.1904 -1.9745
10486SOL    HW235247   4.383   2.450   5.194  0.5673  0.0007  1.2183
10487SOL     OW35248  10.126   5.574   7.069 -0.2067 -0.1988  0.6483
10487SOL    HW135249  10.211   5.599   7.106 -1.8282  1.4784  3.5701
10487SOL    HW235250  10.129   5.478   7.067  2.2231 -0.1933 -0.7374
10488SOL     OW35251   6.124   2.019   6.405  0.1368 -0.4706 -0.5825
10488SOL    HW135252   6.062   2.008   6.333  0.4730 -0.9861 -0.8000
10488SOL    HW235253   6.134   2.114   6.413 -1.3715 -0.3440  0.0690
10489SOL     OW35254   5.149   9.409   6.573  0.2794  0.2326  0.0407
10489SOL    HW135255   5.233   9.455   6.573  0.0033  0.7506 -0.1954
10489SOL    HW235256   5.088   9.471   6.533 -0.3776  0.1621  0.8955
10490SOL     OW35257   2.450   0.807   2.940 -0.0023 -0.5416 -0.2036
10490SOL    HW135258   2.400   0.765   2.870 -2.7010  2.5195 -0.3648
10490SOL    HW235259   2.539   0.773   2.930 -1.0381 -2.8880 -2.8277
10491SOL     OW35260   0.813   2.964   0.547  0.1414 -0.5463 -0.4520
10491SOL    HW135261   0.771   3.047   0.524  0.0756 -0.3860  0.2414
10491SOL    HW235262   0.903   2.987   0.569  0.5466 -0.8612 -1.7134
10492SOL     OW35263   9.257   8.192   9.676 -0.0942  0.0396  0.7727
10492SOL    HW135264   9.302   8.275   9.692  3.6218 -1.7579  0.7960
10492SOL    HW235265   9.271   8.142   9.756 -2.6406 -0.5403  0.9273
10493SOL     OW35266   9.718   5.924   5.894 -0.1164  0.0067 -0.2787
10493SOL    HW135267   9.629   5.899   5.870 -0.4015  0.5983  0.1442
10493SOL    HW235268   9.714   5.941   5.988  0.7601 -1.2860  0.0280
10494SOL     OW35269   6.636   8.287   1.676 -0.0598 -0.0844 -0.4221
10494SOL    HW135270   6.565   8.228   1.701 -0.4217  0.4213 -0.2424
10494SOL    HW235271   6.705   8.229   1.643  0.4329 -0.7772  1.7267
10495SOL     OW35272   5.180   2.328   6.620  0.4371  0.6241 -0.5969
10495SOL    HW135273   5.100   2.277   6.620 -0.8240  2.4509  0.9540
10495SOL    HW235274   5.174   2.382   6.699  2.3953  2.0362 -1.3244
10496SOL     OW35275   0.206   5.423   7.937  0.5632  0.5728 -0.1553
10496SOL    HW135276   0.148   5.382   7.872  1.2226 -1.5328  0.5089
10496SOL    HW235277   0.169   5.510   7.951 -2.0862 -0.4574 -0.2165
10497SOL     OW35278   2.974   6.365   2.956 -0.1957  0.0192 -0.0162
10497SOL    HW135279   2.894   6.344   2.907  0.0598 -0.5884 -0.1785
10497SOL    HW235280   2.961   6.326   3.042  0.8905 -2.1435 -0.7788
10498SOL     OW35281   2.055   5.915   5.434  0.0310  0.7660 -0.7969
10498SOL    HW135282   2.101   5.959   5.362  3.2269 -1.2812 -0.2301
10498SOL    HW235283   1.999   5.982   5.472  0.9918  2.9022 -2.9103
10499SOL     OW35284   1.777   0.770   2.035 -0.1928 -0.4628 -0.3208
10499SOL    HW135285   1.861   0.762   1.990 -0.1192 -0.1425 -0.2380
10499SOL    HW235286   1.792   0.834   2.104  0.0864 -1.9424  1.0683
10500SOL     OW35287   1.188   2.671   5.437  0.2310  0.3914  0.0532
10500SOL    HW135288   1.148   2.754   5.463 -0.0614  0.6456 -1.1467
10500SOL    HW235289   1.240   2.645   5.512 -1.4463  0.5201  1.3220
10501SOL     OW35290   8.837   5.414   7.513  0.5875  0.2168 -0.1503
10501SOL    HW135291   8.803   5.450   7.595  1.6750  0.3537  0.2528
10501SOL    HW235292   8.791   5.463   7.445 -0.0930  0.3272  0.3768
10502SOL     OW35293   0.986   9.727   4.112  0.2524 -0.1103 -0.5666
10502SOL    HW135294   1.021   9.658   4.169 -0.5870 -0.3406 -0.3136
10502SOL    HW235295   0.931   9.780   4.169  0.4536  0.4519 -0.8839
10503SOL     OW35296   2.407   1.911   4.954 -0.0989 -0.1205  0.6586
10503SOL    HW135297   2.379   2.001   4.939  1.2355  0.3150  0.5898
10503SOL    HW235298   2.386   1.894   5.046 -0.9163  0.0322  0.5082
10504SOL     OW35299   5.030   2.485   9.617 -0.1092  0.5888  0.0453
10504SOL    HW135300   5.050   2.455   9.707 -0.4667 -0.2841 -0.1533
10504SOL    HW235301   4.955   2.543   9.627 -2.8231 -2.6005 -0.0364
10505SOL     OW35302   7.092   9.711   8.645  0.1292  0.6556 -0.0120
10505SOL    HW135303   7.137   9.779   8.696  0.8948 -0.1359  0.3931
10505SOL    HW235304   7.155   9.639   8.640 -0.7023 -0.0691 -0.3689
10506SOL     OW35305   7.912   6.199   4.094 -0.2702  0.6723  0.9720
10506SOL    HW135306   7.884   6.123   4.145 -0.4090 -0.5274 -0.8005
10506SOL    HW235307   7.872   6.274   4.139 -2.0573 -0.5060  1.4625
10507SOL     OW35308   1.250   8.225   4.316 -0.4158  0.1663  0.1653
10507SOL    HW135309   1.202   8.282   4.255  0.1375 -1.1129 -1.5457
10507SOL    HW235310   1.209   8.242   4.401 -1.3305  1.9100 -0.5626
10508SOL     OW35311   9.079   2.554   5.234  0.0589  0.1858  0.0537
10508SOL    HW135312   8.994   2.529   5.269  0.8590  0.0739  2.0115
10508SOL    HW235313   9.114   2.617   5.297  0.5755  1.8824 -1.7889
10509SOL     OW35314   2.228   6.583   6.518 -0.4488  0.3209  0.2158
10509SOL    HW135315   2.167   6.516   6.551 -0.1276 -0.2456 -0.3165
10509SOL    HW235316   2.313   6.539   6.517 -0.0437  1.0715  0.8435
10510SOL     OW35317   5.684   0.490   4.944  0.0077  0.9625 -0.1579
10510SOL    HW135318   5.660   0.556   5.010 -0.7849 -0.5606  1.1392
10510SOL    HW235319   5.638   0.411   4.972 -0.5720  0.3142 -2.7298
10511SOL     OW35320   1.181   2.531   8.904 -0.0365  0.0452 -0.4227
10511SOL    HW135321   1.152   2.446   8.935  1.8810  0.1458  1.9086
10511SOL    HW235322   1.114   2.559   8.842 -2.8762 -1.2949  1.8525
10512SOL     OW35323   8.909   4.214   3.473 -0.1942 -0.3452  0.1517
10512SOL    HW135324   8.916   4.231   3.567  0.5271 -0.5135  0.1378
10512SOL    HW235325   8.859   4.132   3.467  1.1001 -1.1954  0.4764
10513SOL     OW35326   6.589   6.386   9.220 -0.2105  0.3039  0.8113
10513SOL    HW135327   6.505   6.365   9.181  0.4406 -0.4220 -0.2358
10513SOL    HW235328   6.612   6.472   9.185 -0.5135  0.5127  1.1160
10514SOL     OW35329   2.104   8.975   3.581 -0.1598 -0.1851 -0.2094
10514SOL    HW135330   2.063   8.894   3.552 -0.0961 -0.1554 -0.3893
10514SOL    HW235331   2.116   8.965   3.675  0.1446 -0.5129 -0.2824
10515SOL     OW35332   5.838   1.568   2.552 -0.5316 -0.4633 -0.1852
10515SOL    HW135333   5.880   1.583   2.467 -1.6357  0.8935 -0.5221
10515SOL    HW235334   5.904   1.594   2.616  0.5700 -2.1632 -0.5758
10516SOL     OW35335   4.163   6.895   9.119  0.5680  0.0095 -0.0280
10516SOL    HW135336   4.114   6.934   9.047  0.5073  1.4010  0.7412
10516SOL    HW235337   4.116   6.814   9.139  0.1957 -0.0537 -1.0847
10517SOL     OW35338   2.702   8.137   2.472  0.0150  0.0174  0.1068
10517SOL    HW135339   2.643   8.173   2.406  0.7157  2.7481  0.8461
10517SOL    HW235340   2.771   8.094   2.421 -1.4787 -1.3947 -0.8001
10518SOL     OW35341   2.511   4.687  10.275 -0.1167 -0.0868  0.3157
10518SOL    HW135342   2.479   4.730  10.196  2.7240 -1.2076 -1.6273
10518SOL    HW235343   2.551   4.757  10.327  0.9099  0.2589 -0.8854
10519SOL     OW35344   8.582   6.958   0.801 -0.3103  0.2739  0.2214
10519SOL    HW135345   8.537   6.887   0.848  0.7990 -0.1914  0.6229
10519SOL    HW235346   8.532   6.969   0.721 -0.8341 -0.5970  0.4130
10520SOL     OW35347   4.914   0.838   6.977 -0.3592 -0.2806  0.2036
10520SOL    HW135348   4.870   0.754   6.985 -3.4088  0.9201 -1.9129
10520SOL    HW235349   4.880   0.891   7.049 -0.7234 -0.0137 -0.1567
10521SOL     OW35350   4.858   6.966   4.092  0.8218 -0.1421  0.2100
10521SOL    HW135351   4.883   6.940   4.003  1.4848 -0.8773  0.5999
10521SOL    HW235352   4.787   6.906   4.115 -0.4227  1.0493 -0.3806
10522SOL     OW35353   0.540   0.237   6.339  0.1289  0.2254 -0.3383
10522SOL    HW135354   0.576   0.154   6.370 -0.1111 -0.5206 -1.9541
10522SOL    HW235355   0.478   0.212   6.270  2.0511  1.8405 -2.8207
10523SOL     OW35356   0.416   9.554   7.318 -0.0178  0.6707 -0.3688
10523SOL    HW135357   0.487   9.558   7.382 -0.7584  0.9278  0.4668
10523SOL    HW235358   0.385   9.644   7.311 -0.4879  0.5100 -0.4458
10524SOL     OW35359   1.739   6.228   8.712  0.2204  0.1134 -0.1905
10524SOL    HW135360   1.835   6.228   8.719  0.2396  0.8578 -0.2815
10524SOL    HW235361   1.710   6.272   8.793  0.0153  0.7830 -0.6182
10525SOL     OW35362   0.438   9.071   4.725 -0.0270  0.4601  0.7258
10525SOL    HW135363   0.434   9.110   4.812  0.2185  1.8772  0.1187
10525SOL    HW235364   0.501   9.124   4.677  0.7210 -0.9994  0.0080
10526SOL     OW35365   9.232   9.536   2.157  0.2363 -0.0037 -0.0918
10526SOL    HW135366   9.178   9.459   2.143 -1.1203  0.9823 -0.4231
10526SOL    HW235367   9.296   9.508   2.223 -1.5096 -0.8279  1.3568
10527SOL     OW35368   2.489   1.453   8.339  0.1663  0.4424 -0.0039
10527SOL    HW135369   2.428   1.413   8.401  2.2068  0.4609  2.1761
10527SOL    HW235370   2.492   1.392   8.265 -0.5534 -0.8706  1.0146
10528SOL     OW35371   3.285   6.451   1.642  0.5353  0.0944  0.3124
10528SOL    HW135372   3.347   6.385   1.611 -0.1536 -0.1689 -0.5407
10528SOL    HW235373   3.339   6.528   1.659  0.8179  0.8921 -3.3076
10529SOL     OW35374   7.519   9.437   3.997 -0.3777 -0.0471 -0.0975
10529SOL    HW135375   7.514   9.347   3.966  0.8302 -0.0695 -0.2763
10529SOL    HW235376   7.512   9.430   4.093 -1.5132 -0.2047 -0.1802
10530SOL     OW35377   9.552   6.270   8.236  0.0614  1.2485 -0.5003
10530SOL    HW135378   9.578   6.257   8.327 -1.3373 -0.9187 -0.3499
10530SOL    HW235379   9.630   6.308   8.195  1.7492 -0.3607  0.9938
10531SOL     OW35380   1.174   1.364   5.727 -0.2355 -0.2564 -0.2122
10531SOL    HW135381   1.196   1.351   5.819 -0.2076 -0.4848 -0.2497
10531SOL    HW235382   1.224   1.297   5.681 -1.1878 -0.9593 -0.2713
10532SOL     OW35383   6.191   9.043   8.554 -0.2463 -0.5767 -0.2883
10532SOL    HW135384   6.189   8.982   8.479 -0.1502 -0.5889 -0.2816
10532SOL    HW235385   6.121   9.105   8.536  0.2209 -0.1731 -0.7350
10533SOL     OW35386   6.183   4.733   6.045  0.5156  0.0208 -0.4047
10533SOL    HW135387   6.208   4.738   5.952 -0.8414  0.0263 -0.7918
10533SOL    HW235388   6.111   4.669   6.047 -0.7251  1.3859  0.3471
10534SOL     OW35389   5.911   0.856   3.746 -1.0125 -0.0663  0.2240
10534SOL    HW135390   5.869   0.897   3.670 -0.0796  0.7583  0.1243
10534SOL    HW235391   5.896   0.918   3.818  1.5038  1.1840 -0.2140
10535SOL     OW35392  10.259   6.770   5.844  0.8517  0.0604  0.1045
10535SOL    HW135393  10.327   6.718   5.886  2.8857  1.4309 -1.3317
10535SOL    HW235394  10.284   6.861   5.858 -1.8159  0.7344  1.2444
10536SOL     OW35395   9.164   6.680   6.482  0.1640  0.7133 -0.1171
10536SOL    HW135396   9.224   6.730   6.426  0.6208  0.6289  0.2906
10536SOL    HW235397   9.203   6.593   6.485 -1.1280  0.0380 -1.5990
10537SOL     OW35398   4.006   9.959   0.826  0.1746  0.1076  0.5640
10537SOL    HW135399   4.073   9.893   0.842  0.2064  0.3459  1.4981
10537SOL    HW235400   3.997  10.005   0.910 -0.2669  0.8971  0.0995
10538SOL     OW35401   5.388   0.970   7.628  0.0090  0.1488  0.6207
10538SOL    HW135402   5.405   1.011   7.713 -0.4995 -1.3740  1.5169
10538SOL    HW235403   5.298   0.996   7.607  0.1134  0.4797  0.5874
10539SOL     OW35404   3.465   8.720   3.071 -0.3124  0.5207 -0.1104
10539SOL    HW135405   3.546   8.772   3.069 -0.0839  0.1531 -1.6840
10539SOL    HW235406   3.441   8.717   3.164  1.8573  0.0738  0.5048
10540SOL     OW35407   9.845   6.434   3.908  0.1025 -0.3227  0.3043
10540SOL    HW135408   9.896   6.476   3.838 -2.0709  0.9290 -0.6192
10540SOL    HW235409   9.835   6.343   3.880  0.3339 -0.1450 -0.3655
10541SOL     OW35410   4.332   4.995   2.862 -0.0379 -0.0601 -0.3505
10541SOL    HW135411   4.306   4.999   2.954 -0.8407 -1.6228 -0.4824
10541SOL    HW235412   4.251   5.011   2.814  0.2967  0.3228 -0.7916
10542SOL     OW35413   0.448   0.046   3.390 -0.1132  0.1144  0.2028
10542SOL    HW135414   0.487   0.024   3.475 -1.2631 -1.9323  0.2451
10542SOL    HW235415   0.516   0.026   3.326  0.3605  0.6129  0.5339
10543SOL     OW35416   5.096   3.925   9.378  0.0603 -0.0924 -0.2605
10543SOL    HW135417   5.034   3.856   9.358 -1.6439  1.7122 -1.6409
10543SOL    HW235418   5.071   3.998   9.321  0.1891  2.5643  2.7548
10544SOL     OW35419  10.002   8.917   4.176  0.4101  0.2318 -0.5439
10544SOL    HW135420  10.065   8.971   4.223 -0.2357  0.9827 -0.5371
10544SOL    HW235421  10.008   8.831   4.219 -0.1817  0.9083  0.9362
10545SOL     OW35422   8.094   4.188   5.858 -0.1920 -0.0060  0.5755
10545SOL    HW135423   8.174   4.176   5.807 -0.6085  1.7730 -0.5833
10545SOL    HW235424   8.076   4.101   5.894  2.2463 -0.4339  0.9044
10546SOL     OW35425   6.430   5.610   3.509  0.0399  0.3995 -0.1065
10546SOL    HW135426   6.371   5.656   3.568  0.5089  0.9693 -0.0756
10546SOL    HW235427   6.445   5.525   3.551 -0.5249  0.3615  0.0236
10547SOL     OW35428   6.927   6.443   2.012  0.3619  0.2828  0.8913
10547SOL    HW135429   6.930   6.519   2.070  2.1744  1.2452 -0.3489
10547SOL    HW235430   6.893   6.478   1.929 -0.6402 -0.7044  0.8685
10548SOL     OW35431   4.874   4.850   0.495 -0.1705  0.6038  0.4429
10548SOL    HW135432   4.788   4.892   0.491  0.0751  1.1867  1.0338
10548SOL    HW235433   4.932   4.918   0.529  0.8450  0.7193 -1.3834
10549SOL     OW35434   7.809   2.390   3.535  0.2381 -0.5196 -0.0799
10549SOL    HW135435   7.787   2.378   3.628  1.8427 -1.4915  0.2314
10549SOL    HW235436   7.737   2.348   3.488 -0.6014 -0.0129  0.7245
10550SOL     OW35437   6.382   3.655   8.018 -0.7026  0.1895  0.2996
10550SOL    HW135438   6.450   3.693   7.963 -0.3791 -1.4773 -0.5167
10550SOL    HW235439   6.428   3.628   8.097 -0.4518 -0.6499 -0.1211
10551SOL     OW35440   2.914   1.140   9.432  0.7361 -0.1254 -0.7170
10551SOL    HW135441   2.980   1.117   9.366  0.5640 -0.4394 -0.7841
10551SOL    HW235442   2.936   1.229   9.459  2.1368 -0.7630  0.3880
10552SOL     OW35443   1.049   4.394   8.789  0.1348 -0.0909 -0.0865
10552SOL    HW135444   1.144   4.406   8.777  0.5130 -2.4964  0.0684
10552SOL    HW235445   1.010   4.448   8.720  1.6407  0.2235 -0.7520
10553SOL     OW35446   4.090   4.581   5.245  0.8770 -0.1163 -0.2406
10553SOL    HW135447   4.020   4.516   5.250  0.9029 -0.3969 -2.5389
10553SOL    HW235448   4.049   4.663   5.272  0.6286 -0.8784  1.8814
10554SOL     OW35449   4.912   0.573   7.074  0.2612  0.3949 -0.5542
10554SOL    HW135450   4.903   0.579   6.979 -1.6867  0.4989 -0.3988
10554SOL    HW235451   4.995   0.527   7.087  2.0453  2.8468 -2.2345
10555SOL     OW35452   0.026   1.236   9.767  0.1833  0.1225  0.0862
10555SOL    HW135453   0.091   1.217   9.834  1.3307  2.0627 -0.3891
10555SOL    HW235454   0.024   1.332   9.762 -2.2932  0.1244 -0.3548
10556SOL     OW35455   0.441   9.165   2.058  0.5373 -0.5897  0.2403
10556SOL    HW135456   0.351   9.133   2.062  0.6691 -1.0171 -0.1982
10556SOL    HW235457   0.433   9.254   2.024  0.3889 -1.1313 -1.1732
10557SOL     OW35458   1.761   7.226   6.341 -0.0441  0.1211  0.3267
10557SOL    HW135459   1.716   7.142   6.332  1.8518 -1.1470  1.7327
10557SOL    HW235460   1.854   7.203   6.337  0.5248  2.3141 -0.2269
10558SOL     OW35461   3.257   3.316   9.373  0.5013  0.5417  0.1298
10558SOL    HW135462   3.229   3.407   9.378  0.3595  0.5746 -0.9518
10558SOL    HW235463   3.203   3.271   9.437  0.6794  1.2359  0.7841
10559SOL     OW35464   3.436   2.752   7.954  0.0772  1.0512 -0.1503
10559SOL    HW135465   3.477   2.667   7.969  0.9466  1.0879 -2.0634
10559SOL    HW235466   3.492   2.814   8.000 -0.9954  0.5603  1.9189
10560SOL     OW35467   9.718   0.499   7.391  0.2469 -0.9486  0.3300
10560SOL    HW135468   9.767   0.558   7.448  1.2496 -0.3732 -1.0726
10560SOL    HW235469   9.688   0.429   7.449  1.8043 -0.7480  1.4392
10561SOL     OW35470   5.523   1.687   6.947  0.1030 -0.1804 -0.3555
10561SOL    HW135471   5.568   1.631   7.010 -0.0780 -0.7098 -0.6898
10561SOL    HW235472   5.472   1.747   7.001 -0.4545 -0.9583  0.0113
10562SOL     OW35473   4.991   3.170   2.900  0.2131  0.4331  0.0291
10562SOL    HW135474   4.964   3.242   2.957 -0.9674 -0.7367  1.0266
10562SOL    HW235475   5.050   3.117   2.955 -0.8883 -0.6742  0.1779
10563SOL     OW35476   8.818   5.851   1.485 -0.2036  0.0851 -0.0352
10563SOL    HW135477   8.870   5.900   1.422 -1.0588 -0.3496 -1.1079
10563SOL    HW235478   8.825   5.901   1.567  1.2934  0.4106 -0.3356
10564SOL     OW35479   9.116   9.567   8.401 -0.1505 -0.1033 -0.2089
10564SOL    HW135480   9.206   9.545   8.378 -0.6181 -0.9312 -1.3567
10564SOL    HW235481   9.087   9.627   8.333 -0.6594 -0.3522 -0.2191
10565SOL     OW35482   4.990   1.643   0.951  0.2473  0.0919  0.0230
10565SOL    HW135483   4.955   1.709   1.011 -0.2728  0.9758 -1.2242
10565SOL    HW235484   5.057   1.689   0.901  1.3674 -0.8906  0.5540
10566SOL     OW35485  10.195   9.275   8.168 -0.0564  0.0002  0.1819
10566SOL    HW135486  10.205   9.369   8.158  0.0741 -0.2060 -1.9232
10566SOL    HW235487  10.123   9.266   8.231 -2.1198  1.5714 -1.7653
10567SOL     OW35488   5.017   1.869   7.895 -1.0757  0.1516  0.1567
10567SOL    HW135489   4.998   1.867   7.801  0.0599  1.3329 -0.1242
10567SOL    HW235490   4.994   1.958   7.923 -2.2677 -0.4553  1.2102
10568SOL     OW35491   2.998   1.882   9.509  0.4346 -0.0229 -0.1247
10568SOL    HW135492   2.989   1.886   9.414 -0.6323 -0.4244 -0.0483
10568SOL    HW235493   3.087   1.915   9.526  1.4009 -1.7737 -1.4135
10569SOL     OW35494   3.433   7.407   0.279  0.4442 -0.4403  0.5727
10569SOL    HW135495   3.399   7.405   0.190 -1.2892 -0.2821  1.1942
10569SOL    HW235496   3.414   7.319   0.314  0.1958 -0.1797  1.1058
10570SOL     OW35497   5.775   9.564   4.129 -0.4391 -0.0691  0.0393
10570SOL    HW135498   5.696   9.600   4.089 -0.2642 -1.2489 -1.4349
10570SOL    HW235499   5.782   9.476   4.094  0.2618 -0.8441  1.9939
10571SOL     OW35500   3.285   5.741   1.751  0.0208  0.3472  0.1852
10571SOL    HW135501   3.284   5.717   1.843 -1.6360  0.3475  0.1985
10571SOL    HW235502   3.200   5.712   1.718 -0.0638  1.7854 -0.9514
10572SOL     OW35503   9.008   2.859   9.674 -0.5661 -0.2746  0.9420
10572SOL    HW135504   9.093   2.827   9.703 -0.3443 -0.1500  0.4511
10572SOL    HW235505   9.027   2.945   9.636 -0.8469 -0.4121  0.4779
10573SOL     OW35506   2.385   8.807   1.490 -0.4924  0.0808 -0.0586
10573SOL    HW135507   2.436   8.839   1.416 -0.3350 -0.8395 -0.3718
10573SOL    HW235508   2.421   8.720   1.508 -1.8608 -0.5516 -0.2198
10574SOL     OW35509   2.827   6.510   2.455  0.2493 -0.6985 -0.8010
10574SOL    HW135510   2.758   6.551   2.403 -0.5491 -1.9169 -0.7433
10574SOL    HW235511   2.794   6.423   2.475  1.4116 -0.9790  0.0397
10575SOL     OW35512   3.114   7.470   4.026  0.3257 -0.1527  0.5517
10575SOL    HW135513   3.136   7.386   4.068 -1.7338 -0.4275  1.1757
10575SOL    HW235514   3.063   7.446   3.949 -0.6191  0.5065  0.9475
10576SOL     OW35515   8.866   0.471   1.864  0.2664 -0.0550  0.4692
10576SOL    HW135516   8.856   0.396   1.807  0.5002  0.8703 -0.8361
10576SOL    HW235517   8.958   0.497   1.855  0.1736  0.4287  0.8304
10577SOL     OW35518   9.710   3.076   4.674 -0.0912 -0.2096  0.0150
10577SOL    HW135519   9.700   3.106   4.584 -1.5498 -1.7208 -0.3838
10577SOL    HW235520   9.646   3.126   4.724 -3.1690 -2.9334 -0.7992
10578SOL     OW35521   3.069   6.456   2.322 -0.8982 -0.3606 -0.2341
10578SOL    HW135522   2.986   6.474   2.365  0.0370  1.6711  0.8699
10578SOL    HW235523   3.124   6.532   2.342  2.1260 -2.7075  1.3235
10579SOL     OW35524   2.888   9.918   4.089  0.0692  0.1976  0.1128
10579SOL    HW135525   2.901  10.011   4.106  1.0279  0.1588 -0.3664
10579SOL    HW235526   2.837   9.915   4.008  1.6663  0.3084 -0.9401
10580SOL     OW35527   8.497   1.299  10.183  0.0947 -0.5682 -0.0309
10580SOL    HW135528   8.423   1.250  10.221  1.0411 -2.3578 -0.4165
10580SOL    HW235529   8.537   1.343  10.258 -0.1704 -1.2136  0.4991
10581SOL     OW35530   8.944   7.266   7.091 -0.5126  0.0430 -0.0790
10581SOL    HW135531   8.853   7.252   7.117 -0.9243  0.9890 -0.9443
10581SOL    HW235532   8.979   7.178   7.079 -1.1852 -0.3457  0.6706
10582SOL     OW35533   6.263   8.347   9.025  0.2821 -0.2219 -0.4100
10582SOL    HW135534   6.312   8.274   9.063 -0.0943 -0.2466  0.0358
10582SOL    HW235535   6.221   8.310   8.948  0.3229 -0.3989 -0.3471
10583SOL     OW35536   5.886   4.652   6.081 -0.2937 -0.0214  0.3857
10583SOL    HW135537   5.857   4.629   6.169 -0.2007 -2.6117 -0.1673
10583SOL    HW235538   5.805   4.662   6.031 -0.3618 -1.3965  0.1716
10584SOL     OW35539   8.908   8.083   7.216 -0.1397  0.8687  0.2729
10584SOL    HW135540   8.864   8.008   7.255  0.8189  0.4326  0.5294
10584SOL    HW235541   8.839   8.149   7.208 -0.4105  0.9255  2.5439
10585SOL     OW35542   0.664   6.275   0.641 -0.1913 -0.6840 -0.5356
10585SOL    HW135543   0.742   6.320   0.673 -0.5018 -0.8446  0.4616
10585SOL    HW235544   0.592   6.316   0.688 -0.4607 -2.3458  0.5638
10586SOL     OW35545   7.861   9.637   9.514  0.4286 -0.0889 -0.2383
10586SOL    HW135546   7.935   9.665   9.568  0.5226 -3.5064  1.6778
10586SOL    HW235547   7.871   9.686   9.432  3.9362  0.6750  0.4798
10587SOL     OW35548   2.631   9.086   6.748  0.1653 -0.6561 -0.2488
10587SOL    HW135549   2.609   9.111   6.838  0.6134  0.4970 -0.4498
10587SOL    HW235550   2.548   9.058   6.710 -0.7295  2.0816 -0.4938
10588SOL     OW35551   7.901   6.539   9.665 -0.1637 -0.0322  0.0591
10588SOL    HW135552   7.995   6.520   9.662 -0.2617 -0.6449  0.8609
10588SOL    HW235553   7.860   6.465   9.620 -0.2734  0.2315 -0.2850
10589SOL     OW35554   2.449   9.919   3.275  0.1209 -0.0212 -0.1731
10589SOL    HW135555   2.476  10.009   3.294 -0.0834  0.3226 -1.4193
10589SOL    HW235556   2.423   9.883   3.360  2.1657  0.4040  0.7094
10590SOL     OW35557   6.860   7.602   4.289 -0.9124  0.2579 -0.1546
10590SOL    HW135558   6.825   7.522   4.250  0.7022 -0.8736  0.5879
10590SOL    HW235559   6.883   7.657   4.214  1.6188 -1.6497 -0.9265
10591SOL     OW35560   3.700  10.343   4.601 -0.2350 -0.5482 -0.5504
10591SOL    HW135561   3.613  10.307   4.613 -0.9225  0.9430 -0.8348
10591SOL    HW235562   3.722  10.383   4.685 -0.0107 -0.5411 -0.6101
10592SOL     OW35563   4.353   2.779   9.906 -0.6531  0.0127 -0.1904
10592SOL    HW135564   4.408   2.706   9.934 -1.1593 -0.2068  0.2377
10592SOL    HW235565   4.416   2.849   9.883 -0.2047 -0.0883  0.6821
10593SOL     OW35566  10.097   7.886   4.756  0.4880  0.1017  0.4212
10593SOL    HW135567  10.186   7.871   4.723 -0.0081  3.4684 -3.1850
10593SOL    HW235568  10.041   7.846   4.689 -0.7152  0.1908  1.3630
10594SOL     OW35569   4.009   3.407   7.620 -0.3310 -0.0956  0.0388
10594SOL    HW135570   3.924   3.368   7.636 -1.4291  0.3521 -3.7362
10594SOL    HW235571   3.992   3.479   7.560  2.4247  1.9405  1.4547
10595SOL     OW35572   8.453   0.834   4.557  0.5412  0.3982  0.0958
10595SOL    HW135573   8.452   0.745   4.591 -2.8406  0.3987  0.3064
10595SOL    HW235574   8.407   0.886   4.623  0.7490  1.9403 -0.9143
10596SOL     OW35575   2.827   4.057   5.389  0.1067  0.0468 -0.1811
10596SOL    HW135576   2.748   4.035   5.340  0.5023 -0.7395 -0.4798
10596SOL    HW235577   2.841   4.150   5.371 -0.7304  0.1883 -0.1412
10597SOL     OW35578   9.907   4.038   1.902  0.3561  0.6115 -0.2824
10597SOL    HW135579   9.924   4.128   1.928  0.1440 -0.0061  2.3647
10597SOL    HW235580   9.821   4.041   1.860  0.8913  1.7789 -1.3438
10598SOL     OW35581   4.210   3.825   5.615 -0.1468  0.1925  0.1685
10598SOL    HW135582   4.183   3.800   5.526  0.7037 -0.4015  0.0671
10598SOL    HW235583   4.157   3.902   5.635  0.5417  1.1341 -1.3699
10599SOL     OW35584   6.063   8.192   6.382  0.4262 -0.5190 -0.2037
10599SOL    HW135585   6.122   8.193   6.457  1.9059  2.2320 -1.2518
10599SOL    HW235586   5.975   8.200   6.419  1.1674  1.5801  1.2764
10600SOL     OW35587   4.068   0.278   6.532  0.2698 -0.4358 -0.1942
10600SOL    HW135588   4.003   0.219   6.570  0.7939 -0.4413  0.7466
10600SOL    HW235589   4.114   0.314   6.608  0.9023  0.0948 -0.8142
10601SOL     OW35590   5.626   3.301   0.119 -0.2656 -0.7530 -0.8265
10601SOL    HW135591   5.691   3.363   0.152 -0.6013 -1.1995  0.7471
10601SOL    HW235592   5.676   3.242   0.062  0.1729  0.5279 -1.8299
10602SOL     OW35593   3.904   4.183   7.782 -0.3051  0.1807  0.4543
10602SOL    HW135594   3.915   4.263   7.833  0.9861  0.2463  0.1152
10602SOL    HW235595   3.911   4.212   7.691 -3.5299  0.2197  0.1130
10603SOL     OW35596   1.923   9.125   1.577 -0.2801  0.4769 -0.5692
10603SOL    HW135597   1.859   9.091   1.639 -1.3283 -1.3225 -2.5089
10603SOL    HW235598   1.999   9.146   1.630 -0.0557 -3.6604  1.1216
10604SOL     OW35599  10.018   9.604   4.165  0.0930 -0.9725 -0.4503
10604SOL    HW135600   9.972   9.532   4.123  1.0672 -2.5988  1.1215
10604SOL    HW235601  10.044   9.662   4.094  0.3444 -2.8112 -1.9088
10605SOL     OW35602   4.717   6.045   8.981 -0.0893 -0.5967  0.1391
10605SOL    HW135603   4.651   6.111   8.960  0.8228  0.6397  1.0012
10605SOL    HW235604   4.671   5.980   9.035 -0.5504  0.3989  0.9789
10606SOL     OW35605   2.827   6.320   1.058 -0.0962 -0.7635  0.3734
10606SOL    HW135606   2.822   6.226   1.043  0.5412 -0.9484  1.2350
10606SOL    HW235607   2.802   6.359   0.974  2.1864 -1.7303 -0.8477
10607SOL     OW35608   3.305   4.903   2.098  0.0049 -0.0708  0.1247
10607SOL    HW135609   3.340   4.848   2.168  3.1062 -0.9279 -1.9297
10607SOL    HW235610   3.321   4.853   2.018  1.9988  3.2461 -1.7708
10608SOL     OW35611   3.977   9.108   1.114 -0.3010  0.9269 -0.4566
10608SOL    HW135612   3.881   9.099   1.119 -0.3145  1.4629  0.4370
10608SOL    HW235613   3.993   9.200   1.134  0.5704  0.2609  2.3433
10609SOL     OW35614   9.495   2.987   6.184  0.8696 -0.1008  0.0956
10609SOL    HW135615   9.523   2.898   6.205 -0.7505 -0.6386  0.1309
10609SOL    HW235616   9.480   2.985   6.089 -0.2343 -0.2232  0.2514
10610SOL     OW35617   8.942   2.326  10.090  0.0769  0.1031 -0.1430
10610SOL    HW135618   8.923   2.401  10.147  0.1852  0.4399 -0.5456
10610SOL    HW235619   9.005   2.360  10.026 -1.1233  0.1240 -1.3398
10611SOL     OW35620   8.170   1.097   3.834 -0.6382  0.0690 -0.5590
10611SOL    HW135621   8.227   1.107   3.758 -0.9404 -1.5002 -1.0269
10611SOL    HW235622   8.154   1.003   3.840 -0.3735  0.1091  1.6451
10612SOL     OW35623   8.375   3.737   3.485  0.0341  0.5140  0.5002
10612SOL    HW135624   8.349   3.687   3.407 -0.9762  0.0876  1.0887
10612SOL    HW235625   8.469   3.751   3.474  0.0711 -0.3029 -0.3719
10613SOL     OW35626   4.369   1.679   1.151 -0.6782 -0.2076 -0.0430
10613SOL    HW135627   4.276   1.657   1.155 -0.8372  0.3869 -0.3932
10613SOL    HW235628   4.407   1.612   1.094 -0.5707 -1.4745  1.4434
10614SOL     OW35629   4.197   5.522   0.813  0.1420  0.7355  0.0155
10614SOL    HW135630   4.259   5.581   0.769 -0.6833  0.8043 -1.1162
10614SOL    HW235631   4.133   5.581   0.853 -0.6472  0.6427 -1.0615
10615SOL     OW35632   6.080   5.925   8.360 -0.5108  0.0473  0.4720
10615SOL    HW135633   6.126   5.844   8.381 -1.7149 -0.3821  1.5331
10615SOL    HW235634   5.996   5.897   8.324  0.3890  0.8102 -2.5067
10616SOL     OW35635   4.786  10.008   1.522  0.1161  0.0304  0.1229
10616SOL    HW135636   4.847   9.961   1.580  0.9153 -0.0036 -0.7183
10616SOL    HW235637   4.699   9.982   1.553  0.4960  0.4379  1.6523
10617SOL     OW35638   4.924   5.425   4.782  0.3504  0.2151 -0.4861
10617SOL    HW135639   4.996   5.369   4.755  0.3034  0.3786 -0.9669
10617SOL    HW235640   4.845   5.374   4.761  0.3108  0.3971 -0.7845
10618SOL     OW35641   3.425   4.907   7.172  0.4201  0.0513  0.2697
10618SOL    HW135642   3.353   4.844   7.165  0.5640 -0.0189 -0.8830
10618SOL    HW235643   3.433   4.944   7.084  2.1692 -0.3607  0.2049
10619SOL     OW35644   2.877   4.216   4.041  0.0121 -0.2293  0.1785
10619SOL    HW135645   2.797   4.163   4.034  0.2940 -0.6439  0.0175
10619SOL    HW235646   2.878   4.268   3.961 -0.6402  0.5645  0.6679
10620SOL     OW35647   9.851   5.735   0.738 -0.6251  0.1375  0.6141
10620SOL    HW135648   9.920   5.714   0.676  0.4753  0.8494  1.5472
10620SOL    HW235649   9.770   5.718   0.691  0.1547  1.0878 -1.1691
10621SOL     OW35650   1.438   3.506   2.203 -0.5921  0.8554 -0.1174
10621SOL    HW135651   1.349   3.500   2.168 -0.4188  0.9566 -0.5896
10621SOL    HW235652   1.491   3.453   2.143 -0.5909 -0.5515  1.0855
10622SOL     OW35653   4.799   3.897   2.433 -0.4575  0.5183  0.5259
10622SOL    HW135654   4.888   3.915   2.404 -0.1420  1.2622  1.8438
10622SOL    HW235655   4.744   3.955   2.380 -0.1483  0.2484 -0.1043
10623SOL     OW35656   4.182   1.220   2.604 -0.5786  0.4140 -0.0517
10623SOL    HW135657   4.234   1.240   2.682  1.9163  2.0708 -1.9638
10623SOL    HW235658   4.096   1.195   2.638  0.0625  2.0530  3.1684
10624SOL     OW35659   1.957   7.898   7.877 -0.1091 -0.2518  0.4311
10624SOL    HW135660   2.047   7.881   7.849  0.6145 -1.7214  3.2644
10624SOL    HW235661   1.908   7.821   7.850 -0.6499  0.6363 -1.2944
10625SOL     OW35662   5.334   1.592   5.677 -0.1608  0.3581  0.1123
10625SOL    HW135663   5.324   1.674   5.726 -0.5029 -0.4993  1.5061
10625SOL    HW235664   5.415   1.554   5.711  0.7445  0.7466 -1.5096
10626SOL     OW35665   2.152   3.469   5.869 -0.2746 -0.1457 -0.5594
10626SOL    HW135666   2.140   3.398   5.933 -4.2733  1.7616  1.1709
10626SOL    HW235667   2.182   3.543   5.921  0.5266  0.3730 -1.7224
10627SOL     OW35668   1.355   6.167   2.445  0.2559 -0.5703 -0.0529
10627SOL    HW135669   1.266   6.157   2.412 -0.4619  0.2689  1.4890
10627SOL    HW235670   1.362   6.101   2.514  0.0596  0.6847  1.2272
10628SOL     OW35671   7.241   7.212   2.836  0.2450  1.1147  0.2887
10628SOL    HW135672   7.315   7.211   2.776 -0.0488  2.3396 -0.1245
10628SOL    HW235673   7.201   7.126   2.826 -0.0572  1.4347 -1.5951
10629SOL     OW35674   7.073   1.688   5.874  0.3115 -0.5915 -0.3719
10629SOL    HW135675   7.093   1.724   5.787  0.8480  0.3436  0.1314
10629SOL    HW235676   7.155   1.697   5.923 -1.1785  3.4246  1.7951
10630SOL     OW35677   7.478  10.324   0.489  0.5068 -0.1428  0.0457
10630SOL    HW135678   7.528  10.404   0.472  2.4778 -1.4067 -0.3080
10630SOL    HW235679   7.393  10.340   0.447  1.3490  1.2035 -1.2187
10631SOL     OW35680   2.047   2.574   3.257  0.1676 -0.4558  0.2241
10631SOL    HW135681   1.966   2.525   3.273 -0.2784 -0.1607 -1.0272
10631SOL    HW235682   2.026   2.664   3.281  0.8313 -0.7204  2.0181
10632SOL     OW35683   5.481   7.445   3.619  0.0792  0.1093 -0.5949
10632SOL    HW135684   5.576   7.451   3.611  0.4389 -1.0637  1.7132
10632SOL    HW235685   5.452   7.536   3.628  0.7344  0.6041 -2.9183
10633SOL     OW35686   1.142   7.226   6.366 -0.1361 -0.0181 -0.0041
10633SOL    HW135687   1.083   7.278   6.420 -1.3199 -0.9113 -0.3885
10633SOL    HW235688   1.221   7.280   6.357 -0.5518  0.8381  1.2300
10634SOL     OW35689   5.975   8.066  10.199  0.3545 -0.2224 -0.5028
10634SOL    HW135690   6.001   8.023  10.118  0.8757 -0.1866 -0.3556
10634SOL    HW235691   5.929   8.145  10.170  2.2087  0.8070 -0.7920
10635SOL     OW35692  10.176   1.973   4.345  1.0089 -0.8059 -0.0828
10635SOL    HW135693  10.166   1.880   4.326  0.0780 -0.6760 -0.2426
10635SOL    HW235694  10.264   1.994   4.314  0.5012 -1.1905 -1.8841
10636SOL     OW35695   9.606   9.041   1.549 -1.3000  0.2821 -0.0363
10636SOL    HW135696   9.536   9.038   1.615 -0.8746  0.1768  0.4102
10636SOL    HW235697   9.604   8.954   1.509 -2.4188  0.7492 -1.0754
10637SOL     OW35698   7.869   0.760   6.609  0.1363  0.1188 -0.0096
10637SOL    HW135699   7.903   0.839   6.567 -0.8052  0.3643 -0.3359
10637SOL    HW235700   7.795   0.734   6.554  0.4775 -1.0298  0.0591
10638SOL     OW35701   2.117   9.916   8.613  0.1283  0.3472  0.6029
10638SOL    HW135702   2.040   9.963   8.647  0.5604  0.5650  1.2920
10638SOL    HW235703   2.160   9.881   8.691 -0.0643 -1.0231  0.1184
10639SOL     OW35704  10.299   6.310   3.671  0.1665 -0.8515 -0.1432
10639SOL    HW135705  10.385   6.296   3.631  1.0302  0.9077  0.9886
10639SOL    HW235706  10.293   6.242   3.738  0.4240 -1.3207 -0.5873
10640SOL     OW35707   8.498   1.457   6.549  0.3941  0.0098 -0.4288
10640SOL    HW135708   8.506   1.493   6.460 -0.3337  0.7221 -0.2149
10640SOL    HW235709   8.513   1.532   6.607 -0.2253 -0.2197  0.0359
10641SOL     OW35710   2.477   9.950   0.237 -0.4905 -0.0748 -0.1366
10641SOL    HW135711   2.474  10.040   0.270  0.5246 -0.2700  0.5292
10641SOL    HW235712   2.453   9.896   0.313  2.3687 -0.5655  0.5366
10642SOL     OW35713   9.503   4.132   4.087  0.4933  0.6517  0.0290
10642SOL    HW135714   9.439   4.084   4.140 -1.2566  1.4361 -1.2924
10642SOL    HW235715   9.547   4.065   4.035  0.2504  0.1776  0.4321
10643SOL     OW35716  10.341  10.218   3.633 -0.4697 -0.0082 -0.5686
10643SOL    HW135717  10.299  10.303   3.650 -0.1170  0.2684 -1.0646
10643SOL    HW235718  10.435  10.236   3.639 -0.3352 -0.0165 -2.1809
10644SOL     OW35719  10.062   6.859   2.824 -0.5840 -0.3225 -0.1612
10644SOL    HW135720  10.135   6.847   2.885  0.6112  1.5186 -1.1510
10644SOL    HW235721  10.054   6.774   2.780  0.3595 -0.8184  0.5732
10645SOL     OW35722   0.022   4.617   8.188  0.1866 -0.0722 -0.1418
10645SOL    HW135723  -0.017   4.540   8.148 -0.0436 -0.5489  0.9529
10645SOL    HW235724   0.045   4.674   8.114 -1.1258 -0.4616 -0.8824
10646SOL     OW35725   2.871   4.179   7.515  0.2525 -0.0879  0.0017
10646SOL    HW135726   2.932   4.133   7.457  2.2087 -0.1303  1.9532
10646SOL    HW235727   2.860   4.265   7.475  1.1141 -0.2948 -0.7208
10647SOL     OW35728   5.874   1.229   3.211  0.4747 -0.0240  0.0985
10647SOL    HW135729   5.881   1.135   3.227  1.0990 -0.2694 -1.4198
10647SOL    HW235730   5.792   1.240   3.163  0.9680  0.0377 -0.7464
10648SOL     OW35731   0.500   8.579   4.504  0.2292  0.1118  0.3569
10648SOL    HW135732   0.540   8.664   4.527  1.4394 -0.2810 -0.2038
10648SOL    HW235733   0.452   8.553   4.582  0.4088  1.0021  0.7750
10649SOL     OW35734   4.079   4.307   6.635  0.4701  0.0429 -0.5997
10649SOL    HW135735   3.993   4.267   6.646 -0.0517  0.9479 -1.2603
10649SOL    HW235736   4.095   4.354   6.716 -0.0904  0.6437 -0.8271
10650SOL     OW35737   6.793   3.949   6.681  0.0104 -0.4946  0.4035
10650SOL    HW135738   6.757   4.032   6.715 -0.2909 -0.5719  0.2782
10650SOL    HW235739   6.833   3.907   6.758 -0.3574 -0.5054  0.5931
10651SOL     OW35740   4.441   2.293   1.375  0.1096  0.2458  0.0038
10651SOL    HW135741   4.466   2.386   1.380  0.6950  0.1685 -1.1933
10651SOL    HW235742   4.474   2.264   1.290  0.3784 -1.2046  0.5842
10652SOL     OW35743   9.590   7.959   5.870 -0.0204  0.1969 -0.3525
10652SOL    HW135744   9.526   7.999   5.811 -0.3746  1.0614  0.5941
10652SOL    HW235745   9.549   7.963   5.956  0.1500 -1.7780 -0.1339
10653SOL     OW35746   1.603   8.546   9.299 -0.2371  0.0979  0.1048
10653SOL    HW135747   1.644   8.600   9.231 -0.7812  0.1968 -0.1545
10653SOL    HW235748   1.621   8.456   9.273  0.8195  0.1518  0.6267
10654SOL     OW35749   3.871   7.325   9.514 -0.9899 -0.1129  0.0909
10654SOL    HW135750   3.804   7.392   9.502  0.2788  1.1387 -0.2387
10654SOL    HW235751   3.954   7.370   9.499 -0.0280 -1.5130  0.9133
10655SOL     OW35752   5.140   1.159   3.265 -0.2303  0.0795  0.4596
10655SOL    HW135753   5.137   1.155   3.361 -1.9560  0.5745  0.4655
10655SOL    HW235754   5.179   1.076   3.239  0.4506  0.0214  1.5916
10656SOL     OW35755   4.982   3.044  10.227  0.0350 -0.8916  0.1563
10656SOL    HW135756   4.935   3.020  10.146 -0.9792 -1.8945  1.0084
10656SOL    HW235757   4.964   3.137  10.238 -0.6111 -0.9564 -0.2749
10657SOL     OW35758   0.674   4.504   7.605  0.1866  0.0003  0.1723
10657SOL    HW135759   0.675   4.474   7.514 -1.1387 -1.1012  0.4916
10657SOL    HW235760   0.726   4.439   7.652  1.9948  1.2748  0.0507
10658SOL     OW35761   9.870   4.742   6.770  0.7991  0.0268 -0.1318
10658SOL    HW135762   9.919   4.819   6.799 -1.5145  0.6821  2.5327
10658SOL    HW235763   9.802   4.730   6.837 -0.5830 -2.7893 -1.8228
10659SOL     OW35764   9.161   3.398   0.336 -0.4405 -0.4464 -0.3345
10659SOL    HW135765   9.183   3.332   0.271  0.7484 -0.4615  0.0661
10659SOL    HW235766   9.090   3.359   0.387 -2.2468  0.0250 -2.3196
10660SOL     OW35767   9.322   7.013   6.963  0.2051  0.0347  0.8278
10660SOL    HW135768   9.369   7.029   7.045  0.4363 -0.5146  0.8077
10660SOL    HW235769   9.304   6.919   6.963  0.5123 -0.0383  0.0951
10661SOL     OW35770   5.776   4.390   4.781 -0.4104 -0.0221  0.8683
10661SOL    HW135771   5.816   4.412   4.866 -0.4504  2.2194  0.3659
10661SOL    HW235772   5.844   4.343   4.734 -0.6275 -1.9887  2.3561
10662SOL     OW35773   8.114   5.925   6.655  0.2013  0.4181 -0.3570
10662SOL    HW135774   8.045   5.990   6.639 -1.1686 -0.6777  0.7701
10662SOL    HW235775   8.074   5.863   6.717  1.1595 -1.9154 -1.9277
10663SOL     OW35776   3.779   6.483   3.313 -0.6433  0.4695 -0.4407
10663SOL    HW135777   3.726   6.404   3.323 -0.0725  0.1702  0.3948
10663SOL    HW235778   3.845   6.476   3.383 -0.7084  1.7830 -0.2221
10664SOL     OW35779   0.087   5.693   9.309 -0.1221 -0.0509  0.6450
10664SOL    HW135780   0.023   5.637   9.354 -1.4743  2.0973  1.5176
10664SOL    HW235781   0.139   5.731   9.380  0.5462  0.0872  0.0905
10665SOL     OW35782  10.161   7.120   2.646 -0.5504 -0.2067 -0.2595
10665SOL    HW135783  10.182   7.096   2.555  3.2140  0.4200  0.2771
10665SOL    HW235784  10.218   7.065   2.699  2.0965  3.6372  1.3438
10666SOL     OW35785   5.071  10.040   6.807 -0.1740 -0.4345  0.6342
10666SOL    HW135786   5.090  10.127   6.842 -0.6335  0.2904 -0.8134
10666SOL    HW235787   5.150   9.989   6.825  0.7336  0.7408  0.1499
10667SOL     OW35788   2.199   3.676   6.096 -0.6640 -0.2059 -0.8587
10667SOL    HW135789   2.207   3.730   6.175  1.5992 -1.1991 -0.3407
10667SOL    HW235790   2.218   3.735   6.024  5.4349 -0.6899 -0.1549
10668SOL     OW35791   9.509   0.266   6.865  0.1946 -0.0073  0.5948
10668SOL    HW135792   9.513   0.176   6.835 -0.9171  0.0343  0.2945
10668SOL    HW235793   9.417   0.292   6.855  0.5395  1.2483  0.4120
10669SOL     OW35794   7.055   2.103  10.014 -0.4234  0.7184 -0.1321
10669SOL    HW135795   6.970   2.075   9.982 -0.3719  1.8993 -1.4102
10669SOL    HW235796   7.059   2.070  10.104 -0.2622 -3.3978 -1.4586
10670SOL     OW35797   8.695   9.001   7.552  0.7987 -0.5737 -0.0735
10670SOL    HW135798   8.702   9.074   7.613 -1.1356  1.1924 -1.8016
10670SOL    HW235799   8.780   8.999   7.508  0.7350  0.9641 -0.3141
10671SOL     OW35800   9.815   4.202   6.413  0.5271 -0.6329  1.2008
10671SOL    HW135801   9.831   4.199   6.508  0.1429 -0.6111  1.2685
10671SOL    HW235802   9.764   4.282   6.400  1.1243 -0.2994  0.8897
10672SOL     OW35803  10.336   9.013   3.155  0.6345 -0.4089  0.0145
10672SOL    HW135804  10.283   9.088   3.182  1.7729  0.0001  1.1555
10672SOL    HW235805  10.288   8.937   3.188  0.1388 -0.1179 -0.0252
10673SOL     OW35806   3.722   1.045   0.135 -0.4016  0.0295  0.2089
10673SOL    HW135807   3.750   1.093   0.213 -0.8011  0.9891 -0.2252
10673SOL    HW235808   3.634   1.015   0.155 -0.6008  0.4904  0.0432
10674SOL     OW35809   8.303   8.565   5.992 -0.0961 -0.4049  0.2112
10674SOL    HW135810   8.319   8.618   6.069  0.7124 -0.8470  0.3623
10674SOL    HW235811   8.337   8.617   5.919 -0.2782 -0.2590  0.2317
10675SOL     OW35812   1.511   7.358   6.942 -0.4071 -0.2596 -0.4234
10675SOL    HW135813   1.529   7.423   6.873 -2.5568  1.8493  0.8674
10675SOL    HW235814   1.451   7.296   6.901 -1.5526  0.8953 -0.5538
10676SOL     OW35815   9.594   6.838   5.731  0.5345 -0.2992  0.2811
10676SOL    HW135816   9.631   6.921   5.761  1.3753 -1.1803  1.8085
10676SOL    HW235817   9.500   6.852   5.732  0.6557  0.5805  0.7059
10677SOL     OW35818   3.434   8.040   8.670 -0.2428  0.0691  0.3996
10677SOL    HW135819   3.477   8.033   8.755 -1.6991 -1.3947  1.0563
10677SOL    HW235820   3.348   8.076   8.690 -0.5859 -0.2651 -0.4625
10678SOL     OW35821   1.507  10.039   8.973  0.0883 -0.1305  0.2727
10678SOL    HW135822   1.502  10.001   8.885 -0.8663 -0.6393  0.5437
10678SOL    HW235823   1.592  10.010   9.006 -0.1391 -1.1030  0.0429
10679SOL     OW35824   6.113   2.557   1.176  0.0215 -0.1054  0.3506
10679SOL    HW135825   6.062   2.636   1.157  2.1326  1.1453 -0.5426
10679SOL    HW235826   6.051   2.498   1.220 -1.9389  1.5752  0.0146
10680SOL     OW35827   0.606   7.920   3.082  0.1043  0.1429  0.1047
10680SOL    HW135828   0.635   7.866   3.156  0.6846  0.8823  0.4405
10680SOL    HW235829   0.548   7.985   3.122 -0.2508  0.0317 -0.2273
10681SOL     OW35830   1.984   0.433   8.069 -0.5523  0.5483  0.0772
10681SOL    HW135831   1.905   0.484   8.088  0.1528  1.7173  0.0042
10681SOL    HW235832   2.049   0.499   8.044  0.4166 -0.3977  0.0427
10682SOL     OW35833   9.033   8.307   8.816 -0.1046 -0.3347  0.1726
10682SOL    HW135834   8.974   8.332   8.886 -0.2358 -0.0281 -0.0424
10682SOL    HW235835   9.012   8.367   8.744  0.9412  0.2601  0.3288
10683SOL     OW35836   4.142   3.756   1.183  0.1622  0.5520  0.3579
10683SOL    HW135837   4.073   3.774   1.246 -1.4229  0.8055 -1.3707
10683SOL    HW235838   4.172   3.842   1.154 -0.8916  0.4684 -1.0550
10684SOL     OW35839   5.956   9.070   3.721  0.1006  0.3533  0.1469
10684SOL    HW135840   5.867   9.083   3.689  1.1121  0.8595 -2.6837
10684SOL    HW235841   5.996   9.009   3.660  2.3417  1.8133  0.0006
10685SOL     OW35842   3.420   7.676   9.716 -0.1984 -0.4932  0.1232
10685SOL    HW135843   3.389   7.701   9.803 -0.9246  1.1268 -0.5695
10685SOL    HW235844   3.342   7.644   9.671 -0.5732  1.8990 -1.0316
10686SOL     OW35845   0.611   9.808   2.000  0.2663 -0.0490 -0.1726
10686SOL    HW135846   0.675   9.737   2.001  1.1726  0.7593  0.5875
10686SOL    HW235847   0.555   9.789   1.924  0.2525 -1.7710  0.2320
10687SOL     OW35848   6.695   1.572   0.389 -0.0212  0.2462  0.1993
10687SOL    HW135849   6.626   1.544   0.449 -0.7462  1.3820 -0.0692
10687SOL    HW235850   6.650   1.627   0.325  1.0655  0.6619 -0.2319
10688SOL     OW35851   8.414   9.582   3.870 -0.3714 -0.0029 -0.4598
10688SOL    HW135852   8.329   9.547   3.844 -0.4527  1.4704 -2.4403
10688SOL    HW235853   8.398   9.627   3.953 -1.4913  0.0766 -0.7087
10689SOL     OW35854   4.770   5.393   7.201  0.0431 -0.4222 -0.2390
10689SOL    HW135855   4.771   5.307   7.244 -1.0277 -0.6519 -0.6378
10689SOL    HW235856   4.861   5.408   7.176  0.3732 -1.0983  0.5048
10690SOL     OW35857   6.632   5.794  10.081 -0.6875  0.0956 -0.5321
10690SOL    HW135858   6.636   5.876  10.131 -0.9307  0.5152 -1.1904
10690SOL    HW235859   6.620   5.822   9.990  0.0345 -0.6485 -0.8667
10691SOL     OW35860   0.555  10.044   2.118  0.1471 -0.1844  0.0510
10691SOL    HW135861   0.502  10.090   2.052 -0.9752 -0.7646  0.5217
10691SOL    HW235862   0.594   9.972   2.069  0.2027  0.0221 -0.2188
10692SOL     OW35863   3.253   6.764   5.321  0.2713  0.0582 -0.0705
10692SOL    HW135864   3.310   6.785   5.395  0.6949 -1.5850  0.1061
10692SOL    HW235865   3.313   6.756   5.247  0.0415  0.1122 -0.2629
10693SOL     OW35866   7.840   3.891   6.769  0.0061  0.4184  0.1045
10693SOL    HW135867   7.805   3.971   6.731  0.3872  0.5851  0.0991
10693SOL    HW235868   7.840   3.907   6.863  0.3040  0.5150  0.0877
10694SOL     OW35869   3.860   5.162   6.038  0.5478 -0.0928  0.3814
10694SOL    HW135870   3.951   5.191   6.037  0.2804  0.7807 -0.0316
10694SOL    HW235871   3.812   5.235   5.998 -0.7729  0.9246  3.5596
10695SOL     OW35872   9.561   5.386   0.067  0.0722  0.1531 -0.0623
10695SOL    HW135873   9.536   5.470   0.029 -0.8386 -0.7664 -1.6123
10695SOL    HW235874   9.478   5.338   0.077  0.5670 -0.5604  0.8156
10696SOL     OW35875   8.629   9.088   2.802  0.0619  0.3626 -0.5934
10696SOL    HW135876   8.543   9.125   2.783 -0.2765 -0.5073 -0.8083
10696SOL    HW235877   8.651   9.037   2.724 -0.8200 -2.2816  0.7723
10697SOL     OW35878   9.027   3.424   7.732  0.2963  0.2049  0.1845
10697SOL    HW135879   9.090   3.426   7.660 -0.3893  0.6134 -0.4248
10697SOL    HW235880   8.962   3.359   7.705  0.3680 -0.0943  0.7266
10698SOL     OW35881   6.015   2.666  10.337 -0.6710 -0.0913  0.3365
10698SOL    HW135882   6.058   2.583  10.316 -0.4100  0.0057  0.4802
10698SOL    HW235883   5.941   2.642  10.392 -0.8200 -0.2636  0.0649
10699SOL     OW35884   3.767   6.041   3.567 -0.1344  0.3238 -0.0900
10699SOL    HW135885   3.708   6.103   3.525 -0.7363 -1.0819 -1.4267
10699SOL    HW235886   3.839   6.095   3.601 -0.1853  1.6657 -1.9512
10700SOL     OW35887   6.002   3.455   8.793  0.0060 -0.1691  0.0688
10700SOL    HW135888   5.936   3.444   8.724  0.9517 -2.3759 -0.5655
10700SOL    HW235889   6.021   3.549   8.793 -1.8952  0.2537 -0.8788
10701SOL     OW35890   1.665   7.803   8.000 -0.4282 -0.7558  0.2978
10701SOL    HW135891   1.698   7.764   7.919 -1.9772  0.0841 -0.8019
10701SOL    HW235892   1.683   7.897   7.991 -0.9065 -0.6105  0.7655
10702SOL     OW35893   9.830   6.080  10.121 -0.3433  0.3953 -0.7525
10702SOL    HW135894   9.739   6.068  10.149 -0.6350  0.7926 -1.4955
10702SOL    HW235895   9.864   6.148  10.178  0.2904 -1.4748  1.2309
10703SOL     OW35896   8.850  10.320   1.622 -0.6845 -0.4546 -0.2378
10703SOL    HW135897   8.908  10.363   1.684 -0.0427 -1.1514 -0.3308
10703SOL    HW235898   8.847  10.229   1.652 -1.4994 -0.4880 -0.4075
10704SOL     OW35899   7.804   8.488   5.608  0.0673 -0.7888  0.5638
10704SOL    HW135900   7.819   8.428   5.535 -1.0263  0.8769 -1.0910
10704SOL    HW235901   7.886   8.537   5.616 -0.0327 -0.5281  0.0124
10705SOL     OW35902   9.294   6.847   0.950 -0.2211  0.4176 -0.2486
10705SOL    HW135903   9.280   6.842   1.045 -1.0056  2.1987 -0.2384
10705SOL    HW235904   9.384   6.878   0.940  0.6648 -1.9193 -0.1709
10706SOL     OW35905   3.908   4.152   0.721 -0.3086 -0.2155 -0.0981
10706SOL    HW135906   3.908   4.248   0.713  1.7520 -0.2842 -1.6259
10706SOL    HW235907   3.817   4.127   0.704 -0.2586  1.2757 -3.0984
10707SOL     OW35908   1.205   1.210   8.121 -0.4442 -0.2736  0.0802
10707SOL    HW135909   1.264   1.284   8.108 -1.7766  0.8049 -0.0949
10707SOL    HW235910   1.150   1.236   8.196 -1.4022 -0.7595 -0.4348
10708SOL     OW35911   9.321   6.239   0.975  0.4097 -0.3486  0.1862
10708SOL    HW135912   9.404   6.234   1.022 -0.0167 -0.6109  0.9391
10708SOL    HW235913   9.258   6.197   1.034 -0.4896  0.9075  0.1655
10709SOL     OW35914   7.335   8.826   2.646  0.3385  0.5260 -0.2661
10709SOL    HW135915   7.318   8.734   2.664  0.4617  0.5183 -0.1885
10709SOL    HW235916   7.248   8.867   2.647  0.2583  0.3613 -0.5914
10710SOL     OW35917  10.272   9.846   3.600 -0.4014 -0.4762  0.5313
10710SOL    HW135918  10.260   9.851   3.505 -1.5304  2.9680  0.7221
10710SOL    HW235919  10.367   9.850   3.612 -0.2923  0.8962 -0.4783
10711SOL     OW35920   9.879   4.049   5.323  0.0596  0.3183 -0.4696
10711SOL    HW135921   9.917   4.137   5.332  1.1326 -0.0248 -1.3909
10711SOL    HW235922   9.838   4.049   5.237  0.3905 -0.2023 -0.6292
10712SOL     OW35923   9.168   9.718   4.587  0.2503 -0.3578 -0.0857
10712SOL    HW135924   9.190   9.726   4.495  0.8630 -0.3598  0.0607
10712SOL    HW235925   9.199   9.631   4.612 -1.6418 -1.1655 -0.3457
10713SOL     OW35926   5.571   9.351   1.981 -0.0119  0.7028  0.1696
10713SOL    HW135927   5.526   9.353   1.897 -1.4126 -1.6730  0.7553
10713SOL    HW235928   5.522   9.411   2.037 -1.8295 -0.9290  0.4462
10714SOL     OW35929   2.048   6.670   7.604 -0.3989  0.6655 -0.5422
10714SOL    HW135930   2.025   6.577   7.597  1.2534  0.2077 -0.3113
10714SOL    HW235931   1.995   6.702   7.676  0.9271 -0.7908  1.1697
10715SOL     OW35932   5.135   9.741   4.997 -0.2482  0.7127  0.5465
10715SOL    HW135933   5.074   9.798   5.044  0.1302 -0.6058  2.7822
10715SOL    HW235934   5.209   9.731   5.056 -0.1885 -1.8471  0.1457
10716SOL     OW35935   0.356  10.099   6.404 -0.0268 -0.2018  0.0293
10716SOL    HW135936   0.429  10.068   6.458  0.8341  0.7479 -0.5238
10716SOL    HW235937   0.385  10.083   6.314 -0.4907  0.1953 -0.1962
10717SOL     OW35938   4.781   3.527   6.343  0.3693 -0.2262 -0.4630
10717SOL    HW135939   4.863   3.548   6.298  0.4791 -1.0968 -0.7041
10717SOL    HW235940   4.785   3.432   6.356 -2.3941 -1.1160 -4.2025
10718SOL     OW35941   9.966   6.198   0.250  0.3255 -0.0274  0.0611
10718SOL    HW135942   9.934   6.284   0.275  2.1628  0.5236  0.6996
10718SOL    HW235943  10.045   6.185   0.303  0.6201 -1.6954 -0.7086
10719SOL     OW35944   6.393   0.159   4.714  0.4461  0.2404 -0.5291
10719SOL    HW135945   6.318   0.129   4.662 -1.9524  2.4538  1.3573
10719SOL    HW235946   6.465   0.165   4.652 -1.2794 -0.7455 -2.7491
10720SOL     OW35947   4.629   2.286   1.974  0.2998  0.1953  0.5772
10720SOL    HW135948   4.638   2.340   1.896  1.4082 -0.4848  0.2220
10720SOL    HW235949   4.558   2.328   2.024  0.6260  1.5279 -0.0407
10721SOL     OW35950   7.700   1.827   2.699  0.0728  0.0002 -0.4945
10721SOL    HW135951   7.619   1.822   2.749  1.0651  1.9476  1.4890
10721SOL    HW235952   7.687   1.767   2.626 -2.2695 -1.4030  0.9531
10722SOL     OW35953   7.667   6.410   4.590 -0.1420 -0.1269 -0.2522
10722SOL    HW135954   7.735   6.456   4.540  0.3013 -1.5637 -1.0263
10722SOL    HW235955   7.697   6.413   4.681  0.8754 -0.5779 -0.5619
10723SOL     OW35956   0.353   7.081   1.913  0.1345 -0.1666  0.2646
10723SOL    HW135957   0.402   6.999   1.907 -1.5237 -1.1816  0.1463
10723SOL    HW235958   0.364   7.121   1.826  0.3758 -0.5976  0.0900
10724SOL     OW35959   9.277   6.457   6.500  0.0384  0.0859 -0.1446
10724SOL    HW135960   9.293   6.362   6.504 -2.4469 -0.3527  1.2907
10724SOL    HW235961   9.347   6.495   6.554  0.1429 -1.1023  0.6072
10725SOL     OW35962   5.477   2.769   4.564  0.1632 -0.3697 -0.6552
10725SOL    HW135963   5.532   2.835   4.520  0.6142  0.0774  0.5324
10725SOL    HW235964   5.406   2.752   4.502 -0.3689  1.7734 -0.7251
10726SOL     OW35965   3.149   5.742  10.184  0.8811  0.3232  0.4346
10726SOL    HW135966   3.212   5.670  10.194  1.5830  0.9032  0.2612
10726SOL    HW235967   3.134   5.746  10.089  1.6864  1.1012  0.3271
10727SOL     OW35968   0.844   1.610   3.017 -0.4602  0.1474 -0.1337
10727SOL    HW135969   0.765   1.577   2.976 -0.4654  0.5444 -0.4532
10727SOL    HW235970   0.906   1.624   2.945 -0.3578  0.5374  0.0221
10728SOL     OW35971   8.439   9.752   6.926  0.7743  0.4190 -0.1087
10728SOL    HW135972   8.429   9.825   6.865 -0.0601  0.9605  0.6374
10728SOL    HW235973   8.442   9.674   6.871  2.3630  1.0420 -0.9714
10729SOL     OW35974  10.277   6.287   5.123  0.1089  0.3570  0.1793
10729SOL    HW135975  10.235   6.354   5.069  0.6138  0.3428 -0.2379
10729SOL    HW235976  10.287   6.211   5.065  1.4414  0.6306  0.0005
10730SOL     OW35977   9.165   8.671   8.473  0.2459  0.5664  0.0830
10730SOL    HW135978   9.151   8.697   8.382 -0.7076  2.2065  0.6596
10730SOL    HW235979   9.205   8.748   8.513  2.5839 -0.8322  0.6270
10731SOL     OW35980   7.289   8.614   8.986  0.5452 -0.5538  0.1928
10731SOL    HW135981   7.251   8.530   8.958  0.6949 -0.4268 -0.4071
10731SOL    HW235982   7.345   8.591   9.060 -0.2051 -0.8359  0.6896
10732SOL     OW35983   6.559   0.462   2.341  0.4255  0.0396  0.6489
10732SOL    HW135984   6.467   0.473   2.316  0.2723 -1.1782  0.6140
10732SOL    HW235985   6.572   0.523   2.413 -1.0952 -1.4257  2.2546
10733SOL     OW35986   2.470   6.442   6.503  0.2006  0.5535 -0.6247
10733SOL    HW135987   2.508   6.372   6.451  0.2776  0.0033  0.1477
10733SOL    HW235988   2.527   6.449   6.580 -0.4390  0.6979 -0.1519
10734SOL     OW35989   0.759   6.500   4.732  0.3053 -0.2374  0.2523
10734SOL    HW135990   0.746   6.423   4.676 -1.0956 -1.3300  1.9680
10734SOL    HW235991   0.742   6.574   4.674 -3.3840 -1.3399 -0.3452
10735SOL     OW35992   7.860   9.549   1.828 -0.0126  0.3688  0.2943
10735SOL    HW135993   7.907   9.626   1.793 -1.7940 -0.0192 -3.4608
10735SOL    HW235994   7.927   9.480   1.830  1.0099  1.3355  1.2649
10736SOL     OW35995   7.712   9.844   5.501 -0.0622 -0.0080  0.1661
10736SOL    HW135996   7.773   9.795   5.557  0.3339  1.4507  1.0820
10736SOL    HW235997   7.766   9.913   5.463 -0.5860 -0.3009 -1.1619
10737SOL     OW35998  10.017   3.470   7.964 -0.3969  0.4333  0.0523
10737SOL    HW135999  10.069   3.459   7.884  0.4384 -2.0919  0.8332
10737SOL    HW236000  10.051   3.403   8.024 -3.4652 -0.2743  1.2114
10738SOL     OW36001   4.023   1.169   6.869 -0.2910 -0.8539  0.2018
10738SOL    HW136002   4.029   1.227   6.945 -0.8427  2.5689 -2.1232
10738SOL    HW236003   4.029   1.081   6.906 -1.0529  0.5428  4.2193
10739SOL     OW36004   9.177   0.323   8.796  0.3594  0.2981 -0.0614
10739SOL    HW136005   9.216   0.405   8.824  0.4522  0.0054  0.6937
10739SOL    HW236006   9.156   0.277   8.878 -0.1448 -0.2117 -0.4668
10740SOL     OW36007   8.136   4.105   9.869  0.0932 -0.0280  0.3704
10740SOL    HW136008   8.092   4.029   9.832  1.2315 -0.4861 -0.0788
10740SOL    HW236009   8.229   4.084   9.865  0.3738  0.9584  1.2021
10741SOL     OW36010  10.263   4.474   1.139 -0.0823  0.5545 -0.1536
10741SOL    HW136011  10.188   4.429   1.100  0.1992  0.6336 -0.7972
10741SOL    HW236012  10.241   4.482   1.232 -0.8162  0.4725 -0.3169
10742SOL     OW36013   7.839   1.002   3.104  0.5633  0.5542  0.7424
10742SOL    HW136014   7.841   0.979   3.197 -0.4404  1.1093  0.9188
10742SOL    HW236015   7.784   1.081   3.100 -2.1656 -1.2556 -0.6858
10743SOL     OW36016   2.083  10.083   8.014  0.4487  0.0827 -0.4432
10743SOL    HW136017   2.147  10.090   8.085  2.1045 -1.1028 -1.7544
10743SOL    HW236018   2.063  10.173   7.990  0.8247  0.4748  0.6840
10744SOL     OW36019   3.312   5.954   6.679  0.0003 -0.0331 -0.1991
10744SOL    HW136020   3.383   5.988   6.733  0.0748 -0.7436  0.1591
10744SOL    HW236021   3.356   5.920   6.601 -0.2121  2.1248 -1.3272
10745SOL     OW36022   5.837   4.847   0.680 -0.4082  0.0191  0.2368
10745SOL    HW136023   5.909   4.885   0.629  0.1963 -1.4877 -0.0897
10745SOL    HW236024   5.865   4.757   0.697 -1.8396 -0.3329  0.8669
10746SOL     OW36025   6.796   7.328   4.452  0.1766  0.3435 -0.3012
10746SOL    HW136026   6.877   7.379   4.453 -0.0775  0.7509 -0.3512
10746SOL    HW236027   6.756   7.347   4.367  1.6617 -2.4895 -1.7898
10747SOL     OW36028   5.903   1.019  10.010  0.4523 -0.1823 -0.6015
10747SOL    HW136029   5.899   0.926  10.032 -0.2404 -0.0722 -0.2321
10747SOL    HW236030   5.996   1.037   9.998  0.6197 -0.8388 -0.3247
10748SOL     OW36031   9.350   4.812   2.948  0.6551 -0.1347  0.0244
10748SOL    HW136032   9.275   4.859   2.983 -0.1373 -0.7403 -0.8186
10748SOL    HW236033   9.423   4.836   3.005 -0.1233  0.6633  0.6940
10749SOL     OW36034   5.629   4.356   2.457 -0.4142 -0.2201 -0.5009
10749SOL    HW136035   5.620   4.261   2.465 -1.5317 -0.0339  0.9602
10749SOL    HW236036   5.712   4.376   2.501 -1.1864 -0.3476  1.1024
10750SOL     OW36037   5.660   6.326   9.948 -0.0612 -0.0386  0.0981
10750SOL    HW136038   5.588   6.380   9.917  0.8529  1.4883  0.4984
10750SOL    HW236039   5.739   6.375   9.923  0.8477 -1.5500 -0.1506
10751SOL     OW36040   9.213   7.315   9.621 -0.4461  0.8559 -0.1204
10751SOL    HW136041   9.196   7.364   9.541  3.1735 -1.8905 -2.9580
10751SOL    HW236042   9.300   7.343   9.649 -0.5691 -0.0858  1.3431
10752SOL     OW36043   9.586   7.443   9.440 -0.5200 -0.0333  0.7832
10752SOL    HW136044   9.532   7.444   9.519  0.7250  0.8720  1.6620
10752SOL    HW236045   9.576   7.531   9.403  2.2008  1.0200  2.3195
10753SOL     OW36046   3.195   4.615   0.843 -0.2204 -0.4449  0.3831
10753SOL    HW136047   3.251   4.536   0.839 -2.2267 -2.0785  2.0246
10753SOL    HW236048   3.241   4.673   0.903  1.0442 -0.5464 -0.4468
10754SOL     OW36049   1.006   2.961   8.458 -0.1174  0.0838  0.0495
10754SOL    HW136050   0.917   2.980   8.429  0.1941 -2.0604 -2.7924
10754SOL    HW236051   0.995   2.888   8.519 -0.3214  0.0685 -0.0027
10755SOL     OW36052   2.262   4.472   9.784 -0.0491  0.1904 -0.4031
10755SOL    HW136053   2.195   4.450   9.719  0.1644  2.0515 -1.3266
10755SOL    HW236054   2.334   4.507   9.733 -0.2003  2.5047  0.8420
10756SOL     OW36055   0.128   5.725   8.860 -0.4122 -0.4433  0.6269
10756SOL    HW136056   0.159   5.643   8.898  0.5763  0.0898  1.0358
10756SOL    HW236057   0.207   5.779   8.853 -0.9634  0.2982 -0.0840
10757SOL     OW36058   1.188   8.624   8.077  0.2956 -0.7438  0.0315
10757SOL    HW136059   1.144   8.708   8.068 -0.1866 -0.8290  1.4015
10757SOL    HW236060   1.117   8.561   8.090  0.4554 -1.7802 -3.1871
10758SOL     OW36061   1.116   9.585   5.880  0.7496  0.3754 -0.6548
10758SOL    HW136062   1.174   9.605   5.954  0.3986 -0.1134 -0.2318
10758SOL    HW236063   1.086   9.496   5.898  1.2688 -0.0553 -1.8016
10759SOL     OW36064   8.498   0.877   7.119  0.2652  0.4149  0.4263
10759SOL    HW136065   8.482   0.918   7.204  0.5851  1.2179  0.1149
10759SOL    HW236066   8.412   0.849   7.088 -0.3122  2.7381 -0.2784
10760SOL     OW36067   9.967   4.356   5.349  0.2002 -0.0958 -0.1064
10760SOL    HW136068  10.056   4.389   5.361  0.5412 -0.5454 -1.2645
10760SOL    HW236069   9.933   4.405   5.274 -0.0470 -0.8616 -0.5046
10761SOL     OW36070   8.933   7.097   6.845 -0.2434  0.1609  0.1695
10761SOL    HW136071   9.012   7.064   6.802  0.0740 -0.0782  0.9192
10761SOL    HW236072   8.955   7.187   6.869 -1.0140  0.8818 -1.6328
10762SOL     OW36073   2.496   1.441   3.705  0.8692  0.1823  0.5093
10762SOL    HW136074   2.575   1.436   3.651  0.6544  1.1857  0.0848
10762SOL    HW236075   2.460   1.528   3.687 -0.6933 -0.4925  0.1872
10763SOL     OW36076   2.931   7.308   0.670  0.8385  0.1657  0.1528
10763SOL    HW136077   2.941   7.225   0.717 -1.8814 -0.5534 -0.3819
10763SOL    HW236078   2.968   7.374   0.729  1.4185 -1.1933  1.3700
10764SOL     OW36079   6.417   0.577  10.204  0.4100 -0.4172 -0.0862
10764SOL    HW136080   6.361   0.514  10.159  1.7610 -1.1110 -0.8731
10764SOL    HW236081   6.506   0.542  10.194  1.1317  1.2671  0.0492
10765SOL     OW36082   7.860   3.085   9.498 -0.5143 -0.1788 -0.5436
10765SOL    HW136083   7.871   3.166   9.546 -0.0757 -0.7518  0.3391
10765SOL    HW236084   7.766   3.078   9.483 -0.7404 -0.3386  0.8542
10766SOL     OW36085   2.043  10.113   3.549 -0.4956  0.1113 -0.2223
10766SOL    HW136086   2.013  10.200   3.524 -2.0057 -0.3605 -0.1800
10766SOL    HW236087   1.984  10.087   3.620  1.7143  0.1660  1.7505
10767SOL     OW36088   4.734   2.815   4.452  0.2766 -0.0774 -0.0281
10767SOL    HW136089   4.736   2.810   4.547  1.0199 -0.2683 -0.0496
10767SOL    HW236090   4.709   2.727   4.424  2.6266 -0.8008 -0.0694
10768SOL     OW36091   1.930   2.118   6.140 -0.2569  0.5908 -0.2205
10768SOL    HW136092   1.937   2.140   6.047  0.4378  0.2241 -0.2622
10768SOL    HW236093   2.021   2.107   6.169 -0.4453  1.0073  0.5784
10769SOL     OW36094   5.097   6.808   4.141 -0.3891 -0.3403  0.4247
10769SOL    HW136095   5.044   6.887   4.133  0.5372  0.1945 -0.7596
10769SOL    HW236096   5.035   6.736   4.129 -0.8756  0.2660 -0.9612
10770SOL     OW36097   9.698   7.914   9.217  0.0667 -0.2418 -0.2382
10770SOL    HW136098   9.784   7.918   9.176  0.4400 -1.4515  0.3620
10770SOL    HW236099   9.655   7.839   9.175  0.0633 -0.8524  0.8286
10771SOL     OW36100   9.390   2.865   0.844  0.4982 -0.3632  0.1614
10771SOL    HW136101   9.433   2.784   0.870  3.5720  0.9883 -0.2527
10771SOL    HW236102   9.459   2.917   0.803 -1.4017  2.3561  0.1020
10772SOL     OW36103   3.390   2.766   5.788 -0.3885 -0.3532  0.1117
10772SOL    HW136104   3.349   2.810   5.862 -0.7585  1.6048 -1.2119
10772SOL    HW236105   3.324   2.766   5.719  0.3210 -1.1706 -0.6008
10773SOL     OW36106   8.258   7.731   6.636  0.2067 -0.1422  0.1647
10773SOL    HW136107   8.345   7.694   6.649  0.5440  0.8582  0.8898
10773SOL    HW236108   8.257   7.810   6.690 -1.0025  0.0983 -0.1710
10774SOL     OW36109   2.118   3.088   3.831 -0.1038  0.1543 -0.0610
10774SOL    HW136110   2.177   3.162   3.845 -0.8764  1.2221 -2.0555
10774SOL    HW236111   2.033   3.128   3.814 -0.6231 -1.1932 -0.7924
10775SOL     OW36112   5.386   2.889   5.977  0.2703  0.2399  0.5341
10775SOL    HW136113   5.357   2.951   5.910  0.5898 -1.1006 -0.8970
10775SOL    HW236114   5.461   2.933   6.018 -0.6701  1.5918  0.8766
10776SOL     OW36115   4.338   5.338   4.446 -1.0439 -0.0482 -0.2116
10776SOL    HW136116   4.338   5.310   4.355  0.5746 -0.4149 -0.1272
10776SOL    HW236117   4.414   5.395   4.454 -0.4876 -0.9286  1.1520
10777SOL     OW36118   6.275   4.259   1.005  0.6179 -0.2576 -0.2593
10777SOL    HW136119   6.229   4.184   1.043  1.0314 -0.4483 -0.1185
10777SOL    HW236120   6.210   4.328   1.000  0.3238 -0.5170 -0.0492
10778SOL     OW36121   3.487   1.639   0.406  0.1769 -0.2623 -0.2955
10778SOL    HW136122   3.489   1.732   0.385  0.5207  0.1041  1.2105
10778SOL    HW236123   3.397   1.612   0.387  0.1086  0.3398 -0.8528
10779SOL     OW36124   4.709   2.210   5.877 -0.3328  0.3161 -0.1637
10779SOL    HW136125   4.668   2.130   5.912 -0.4743  0.0380 -0.9554
10779SOL    HW236126   4.780   2.229   5.938 -1.3369  0.5452  0.9896
10780SOL     OW36127   8.786   9.511   0.304  0.0271  0.6025  0.1789
10780SOL    HW136128   8.841   9.436   0.325 -0.5413 -0.0334 -0.5507
10780SOL    HW236129   8.846   9.573   0.262  0.3748  0.3100  0.2363
10781SOL     OW36130   2.705  10.102   5.327 -0.0471  0.2842  0.9874
10781SOL    HW136131   2.614  10.105   5.299  0.1135 -0.7992  0.3048
10781SOL    HW236132   2.719  10.011   5.355  0.8611  0.4065  0.9568
10782SOL     OW36133   2.943   8.572   7.178  0.7590  0.3101  0.2284
10782SOL    HW136134   2.985   8.655   7.157  0.5493  0.1428 -0.8778
10782SOL    HW236135   2.979   8.510   7.115 -0.1988 -0.1169  0.0946
10783SOL     OW36136   1.914   9.571   5.219 -0.7354  0.1113  0.0691
10783SOL    HW136137   1.897   9.596   5.128 -0.7037  1.1012  0.3218
10783SOL    HW236138   1.854   9.498   5.235 -0.4252 -0.3639 -0.8739
10784SOL     OW36139   7.984   4.787   5.060 -0.1624 -0.1015  0.0852
10784SOL    HW136140   8.007   4.713   5.004  0.9237 -0.1833  0.6286
10784SOL    HW236141   7.888   4.784   5.064 -0.2378 -0.3250 -1.4380
10785SOL     OW36142   4.147   2.664   9.733 -0.1003 -0.2383 -0.2734
10785SOL    HW136143   4.189   2.734   9.782 -0.8616  1.2328 -1.5975
10785SOL    HW236144   4.213   2.595   9.726  0.8782  0.5880  0.5747
10786SOL     OW36145   0.573   9.205   2.323 -0.2594 -0.2287  0.7470
10786SOL    HW136146   0.625   9.135   2.361 -0.5852 -0.1480  1.3504
10786SOL    HW236147   0.517   9.161   2.259 -1.7881 -0.8246  2.4230
10787SOL     OW36148   2.987   5.574   4.914  0.4850 -0.4163 -0.0597
10787SOL    HW136149   2.969   5.519   4.990  2.0861 -0.7241  0.1497
10787SOL    HW236150   2.904   5.578   4.866 -0.7150  0.2557  1.9785
10788SOL     OW36151   8.894   9.354   0.793  0.4223  0.0721 -0.0623
10788SOL    HW136152   8.799   9.356   0.787  0.3738  0.2039  0.7214
10788SOL    HW236153   8.914   9.394   0.877  1.1810  0.1884 -0.2878
10789SOL     OW36154   2.865   9.718   8.831 -0.1322 -0.1224  0.5849
10789SOL    HW136155   2.927   9.774   8.784  0.3604 -0.6130  0.6415
10789SOL    HW236156   2.903   9.707   8.918 -0.1449 -0.6792  0.5211
10790SOL     OW36157   3.802   4.714   1.940  0.3156  0.4568  0.5116
10790SOL    HW136158   3.882   4.700   1.889 -1.2294 -2.9672 -1.3186
10790SOL    HW236159   3.766   4.626   1.951 -2.8007  1.7870  2.0279
10791SOL     OW36160   8.743   0.176   3.190 -0.5722  0.1561 -0.1734
10791SOL    HW136161   8.809   0.196   3.123 -0.2599 -3.4073 -1.1432
10791SOL    HW236162   8.776   0.218   3.269  2.1214 -0.2473 -0.9607
10792SOL     OW36163   5.286   4.270   3.979  0.6983  0.2054 -0.1181
10792SOL    HW136164   5.377   4.272   4.008  1.3483 -2.0580 -1.6918
10792SOL    HW236165   5.291   4.287   3.885 -0.5728  0.4869 -0.1533
10793SOL     OW36166   1.489   1.530   4.283  0.3548 -0.0832  0.4006
10793SOL    HW136167   1.428   1.480   4.229  0.0007 -1.0766  1.6822
10793SOL    HW236168   1.536   1.586   4.221 -0.0975 -1.1228 -0.9188
10794SOL     OW36169   5.117   1.744   9.506  0.1653  0.6465 -0.2797
10794SOL    HW136170   5.146   1.658   9.536 -0.2487 -0.1814 -2.1286
10794SOL    HW236171   5.131   1.742   9.411 -1.3100  2.0543 -0.5627
10795SOL     OW36172   4.323   5.308   4.112 -0.2692 -0.2403 -0.0751
10795SOL    HW136173   4.298   5.382   4.056 -0.5022 -0.9645 -0.9577
10795SOL    HW236174   4.341   5.237   4.051 -1.2782 -1.2924  0.8013
10796SOL     OW36175   0.589   2.199   4.550 -0.1189 -0.1057  1.0816
10796SOL    HW136176   0.654   2.144   4.595 -0.0668 -0.3103  0.7637
10796SOL    HW236177   0.612   2.288   4.575  1.8647  0.0664 -0.9403
10797SOL     OW36178   7.453   1.045   9.275  0.0524 -0.3978 -0.0310
10797SOL    HW136179   7.474   1.134   9.246  0.2694 -0.4869 -0.1455
10797SOL    HW236180   7.516   0.989   9.229 -0.0135 -0.5994  0.1246
10798SOL     OW36181   7.216   8.855   7.283  0.3347 -0.2965 -0.1405
10798SOL    HW136182   7.267   8.927   7.318 -0.5609  0.4793 -0.3788
10798SOL    HW236183   7.227   8.784   7.346  0.5841  0.3183  0.5222
10799SOL     OW36184   7.838   0.335   1.240  0.5168  0.0092  0.4893
10799SOL    HW136185   7.773   0.404   1.229  0.4560 -0.2685 -1.1489
10799SOL    HW236186   7.831   0.310   1.332  1.1643  2.7525  1.3781
10800SOL     OW36187   6.668   2.947   6.860  0.4616  0.1651  0.5997
10800SOL    HW136188   6.739   2.895   6.822  0.3649  0.7568 -0.4429
10800SOL    HW236189   6.613   2.971   6.785  1.4817  3.2822  0.6823
10801SOL     OW36190   4.274   9.309   0.428  0.5095 -0.2436  0.4244
10801SOL    HW136191   4.237   9.221   0.423 -0.0138 -0.0553  0.8858
10801SOL    HW236192   4.284   9.336   0.337 -1.3489  0.0453  0.2736
10802SOL     OW36193  10.049   2.863   7.777 -0.1331  0.4652  0.6972
10802SOL    HW136194  10.136   2.857   7.737 -1.1136 -0.4525 -1.4592
10802SOL    HW236195  10.011   2.942   7.740  0.2074  1.6123  2.6576
10803SOL     OW36196   8.456   5.562   7.611 -0.5006  0.1608  0.1907
10803SOL    HW136197   8.547   5.591   7.602 -0.7296  1.1315  0.9034
10803SOL    HW236198   8.463   5.468   7.628  0.2910 -0.0609 -1.2156
10804SOL     OW36199   9.676   7.415   7.787  0.7995 -0.7654  0.6811
10804SOL    HW136200   9.768   7.401   7.763  0.3436 -1.5474 -0.7152
10804SOL    HW236201   9.641   7.470   7.717 -0.1368 -1.6313  0.4474
10805SOL     OW36202   9.815   5.210   1.949 -0.3338 -0.1529  0.0128
10805SOL    HW136203   9.854   5.155   2.017 -1.2988 -1.2964 -0.3340
10805SOL    HW236204   9.727   5.174   1.936 -0.5660  0.7471 -1.0514
10806SOL     OW36205   0.106   6.153   1.666 -0.2109 -0.3132 -0.5083
10806SOL    HW136206   0.013   6.131   1.659 -0.4664  0.9530 -1.4610
10806SOL    HW236207   0.127   6.195   1.583  1.3998 -1.1815 -0.5746
10807SOL     OW36208   5.129   0.334   8.778 -0.7721  0.1117  0.9033
10807SOL    HW136209   5.070   0.377   8.717 -0.2661 -0.3002  0.1108
10807SOL    HW236210   5.103   0.368   8.864 -1.6494  0.5094  0.4936
10808SOL     OW36211   9.951   3.120   6.742  0.2429  0.3087  0.0902
10808SOL    HW136212   9.930   3.193   6.801 -1.5967 -1.0651  1.2304
10808SOL    HW236213   9.990   3.054   6.799 -0.7727 -0.7123 -0.3740
10809SOL     OW36214   6.591   4.859   0.315  0.0744 -0.0374 -0.7750
10809SOL    HW136215   6.556   4.772   0.333  0.1086 -0.1197 -1.1158
10809SOL    HW236216   6.621   4.890   0.401 -2.4305  0.7408 -0.0724
10810SOL     OW36217   9.734   1.715   7.968  0.3613  0.0988 -0.3848
10810SOL    HW136218   9.811   1.693   7.917 -0.3503 -1.3624 -0.8738
10810SOL    HW236219   9.660   1.687   7.913 -0.4965  0.7303  0.4140
10811SOL     OW36220   3.195   5.217   3.590 -0.2295 -0.0496  0.4703
10811SOL    HW136221   3.270   5.190   3.536 -0.3316  0.0953  0.2573
10811SOL    HW236222   3.171   5.137   3.637  1.0035  0.2481  1.6759
10812SOL     OW36223   7.814   5.242   6.591  0.3057  0.0337  0.3010
10812SOL    HW136224   7.837   5.334   6.601 -1.9790  0.6650  0.4286
10812SOL    HW236225   7.754   5.224   6.664 -0.1696 -1.2207 -0.3554
10813SOL     OW36226   8.216   4.107   3.757 -0.0931 -0.5275  0.3109
10813SOL    HW136227   8.211   4.043   3.687 -0.2614 -0.0506 -0.1215
10813SOL    HW236228   8.253   4.185   3.716  0.8325 -0.5863  1.0071
10814SOL     OW36229   6.645   7.011   3.819  0.3631 -0.1583  0.2157
10814SOL    HW136230   6.634   6.931   3.870  0.3387 -0.1175  0.2744
10814SOL    HW236231   6.724   6.996   3.766 -0.3045 -0.6956 -0.6579
10815SOL     OW36232   6.209   3.906   0.954  0.6716  0.1726 -0.1501
10815SOL    HW136233   6.181   3.948   1.035  1.6930  1.1262 -0.2576
10815SOL    HW236234   6.158   3.825   0.949  0.8690 -0.0974  1.6434
10816SOL     OW36235   6.790   9.708  10.299 -0.5550 -0.0737 -0.4504
10816SOL    HW136236   6.798   9.759  10.380  0.3429 -1.1792  0.1765
10816SOL    HW236237   6.699   9.677  10.299 -0.1709 -1.3076  0.9252
10817SOL     OW36238   0.888   0.711   1.193 -0.1580  0.2419 -0.0230
10817SOL    HW136239   0.930   0.784   1.239  0.1927 -0.2757  0.4830
10817SOL    HW236240   0.954   0.682   1.129  0.5318 -0.9871  1.2070
10818SOL     OW36241   6.365   2.869   5.611  0.5127 -0.7237 -0.7788
10818SOL    HW136242   6.300   2.902   5.673  2.7921  0.1768  1.3327
10818SOL    HW236243   6.328   2.888   5.525 -1.4925  0.7972  0.3267
10819SOL     OW36244   1.593   2.768   4.403  0.2978 -0.3484  0.1360
10819SOL    HW136245   1.509   2.784   4.446  0.0665  0.4386 -0.5784
10819SOL    HW236246   1.654   2.752   4.475 -0.2921 -0.0984  0.7053
10820SOL     OW36247   3.967   5.848   6.621 -0.2468  0.2996  0.0275
10820SOL    HW136248   3.880   5.878   6.596 -1.6325 -2.8264  0.5714
10820SOL    HW236249   3.985   5.774   6.564  1.6689  0.2689  0.5683
10821SOL     OW36250   9.531   8.772   1.555 -0.1842 -0.1927  0.0768
10821SOL    HW136251   9.569   8.749   1.640 -1.1714 -1.9392  0.0955
10821SOL    HW236252   9.440   8.745   1.562 -1.6158  3.8953  0.0460
10822SOL     OW36253   5.003   5.689   4.468 -0.0686 -0.0622 -0.3522
10822SOL    HW136254   5.029   5.652   4.552 -0.7984  1.2197  0.4773
10822SOL    HW236255   4.956   5.769   4.490  1.5602  1.4734 -2.0678
10823SOL     OW36256   1.742  10.166   4.887  0.2384  0.0198  0.0787
10823SOL    HW136257   1.673  10.227   4.914  0.3398  0.6509 -1.0254
10823SOL    HW236258   1.786  10.210   4.814  0.1405 -1.4864 -0.9254
10824SOL     OW36259   7.648   4.704   9.932 -0.4226  0.7891 -0.1026
10824SOL    HW136260   7.697   4.779   9.899 -1.4591  1.4610 -0.1624
10824SOL    HW236261   7.687   4.628   9.889  0.2065  1.3590 -0.5492
10825SOL     OW36262   3.226   0.355   3.229 -0.3164 -0.0573  0.7798
10825SOL    HW136263   3.145   0.360   3.280 -2.2974 -0.4555 -2.0867
10825SOL    HW236264   3.231   0.438   3.182  0.7080 -0.2190  0.5652
10826SOL     OW36265  10.296   6.633   4.857 -0.2945  0.2371  0.1046
10826SOL    HW136266  10.375   6.621   4.910 -1.1235 -1.9854  0.9370
10826SOL    HW236267  10.285   6.550   4.810 -1.1098  1.1853 -1.4791
10827SOL     OW36268   9.408   2.266   6.475  0.5662 -0.2228 -0.2216
10827SOL    HW136269   9.438   2.205   6.542 -0.0858 -0.0366  0.2473
10827SOL    HW236270   9.488   2.296   6.432  1.0450  0.2452  0.9694
10828SOL     OW36271   4.938   8.446  10.354 -0.6097  0.1250 -0.2639
10828SOL    HW136272   4.982   8.368  10.321 -1.4312  0.5359 -2.4892
10828SOL    HW236273   4.987   8.520  10.318 -0.4902  0.6523  0.9142
10829SOL     OW36274   9.433   1.546   3.568  0.2855 -0.0688 -0.1774
10829SOL    HW136275   9.378   1.468   3.571  1.6299 -1.0594 -0.6070
10829SOL    HW236276   9.433   1.572   3.476 -1.1264  1.2021  0.1253
10830SOL     OW36277   2.629   7.764   3.779  0.5871 -0.0341  0.2191
10830SOL    HW136278   2.682   7.685   3.784 -1.2967 -1.3109  1.0217
10830SOL    HW236279   2.690   7.835   3.801  1.7872 -1.4924  1.8849
10831SOL     OW36280   7.871   0.302   2.242  0.1470 -0.5112  0.9354
10831SOL    HW136281   7.867   0.388   2.283 -3.8105 -0.6034  1.0760
10831SOL    HW236282   7.838   0.242   2.310 -1.4975 -1.4254 -0.5884
10832SOL     OW36283   3.831   0.361   9.606 -0.2885 -0.0497  0.0843
10832SOL    HW136284   3.895   0.297   9.639  0.2271 -0.9578 -2.4637
10832SOL    HW236285   3.776   0.381   9.682  1.1360 -1.5652  1.5999
10833SOL     OW36286   5.010   4.692   3.661  0.2273 -0.1558 -0.0630
10833SOL    HW136287   5.089   4.695   3.715 -1.0158  1.3608  1.7906
10833SOL    HW236288   5.003   4.779   3.622 -0.3442 -0.3802 -0.4858
10834SOL     OW36289   2.147   0.045   8.084 -0.6400  0.3810 -0.3789
10834SOL    HW136290   2.203   0.108   8.127 -1.4468  0.3648  0.7602
10834SOL    HW236291   2.086   0.097   8.033  0.2115  0.4079 -1.3958
10835SOL     OW36292   3.188   3.508   1.833 -0.0703 -0.7869  0.3678
10835SOL    HW136293   3.247   3.514   1.758 -0.1060 -0.3751  0.3740
10835SOL    HW236294   3.194   3.593   1.876 -2.1545  0.0210 -0.7641
10836SOL     OW36295   8.818   6.810   4.256  0.0131 -0.2705  0.3276
10836SOL    HW136296   8.756   6.882   4.241  0.7598  0.2864 -0.1612
10836SOL    HW236297   8.796   6.745   4.189  0.1114  0.0340 -0.0032
10837SOL     OW36298   8.232   3.141  10.251  0.4117 -0.2792 -0.0542
10837SOL    HW136299   8.171   3.068  10.262 -0.2164  0.5680  2.7227
10837SOL    HW236300   8.180   3.211  10.213 -0.3631  0.3476  2.0447
10838SOL     OW36301   5.185   2.879   7.419  0.0919 -0.0855 -0.0709
10838SOL    HW136302   5.107   2.929   7.443 -2.2085 -2.7661 -1.3640
10838SOL    HW236303   5.195   2.816   7.490  0.1626 -0.7211 -0.6402
10839SOL     OW36304   6.255   4.798   7.151  0.1079 -0.2315  0.0220
10839SOL    HW136305   6.297   4.753   7.078  2.9095  1.9939  0.0785
10839SOL    HW236306   6.263   4.737   7.225  1.1040 -0.8080 -0.5470
10840SOL     OW36307   0.796   0.391   6.753 -0.0457 -0.2192  0.0571
10840SOL    HW136308   0.751   0.444   6.818 -0.5586  0.3875 -0.7787
10840SOL    HW236309   0.797   0.303   6.791  0.9946  0.3875  1.5479
10841SOL     OW36310   3.709   0.022   6.830  0.3060  0.0727 -0.6917
10841SOL    HW136311   3.633   0.072   6.798  0.6683  2.0358  1.2826
10841SOL    HW236312   3.689  -0.068   6.805 -1.5498  0.8207 -2.2885
10842SOL     OW36313   9.983   7.430   8.008 -0.3341 -0.2455 -0.1053
10842SOL    HW136314   9.987   7.348   7.958 -0.4479  0.5467 -1.4920
10842SOL    HW236315  10.072   7.466   7.999 -0.5467  0.2298 -0.3374
10843SOL     OW36316   5.698   9.533   9.590  0.1586  0.6291 -0.0590
10843SOL    HW136317   5.668   9.558   9.503  0.1694  0.1459 -0.2023
10843SOL    HW236318   5.719   9.616   9.632  2.4529  0.7779 -1.3374
10844SOL     OW36319   1.154   1.750   7.582  0.7851 -0.0988 -0.9731
10844SOL    HW136320   1.090   1.681   7.569 -0.0636  0.3351  0.6408
10844SOL    HW236321   1.234   1.705   7.607 -0.1176 -0.5147  1.4303
10845SOL     OW36322   0.035   1.536   6.750  0.1928  0.0404  0.3729
10845SOL    HW136323   0.098   1.501   6.688 -1.1531  0.1672 -1.1418
10845SOL    HW236324   0.088   1.573   6.820  1.8460  0.9336 -1.2560
10846SOL     OW36325   8.670   2.591   0.087  0.6128  0.1933  0.3652
10846SOL    HW136326   8.603   2.534   0.124  1.6007 -0.9379  0.5032
10846SOL    HW236327   8.643   2.679   0.110 -0.9784 -0.2133  0.1351
10847SOL     OW36328   1.001   6.341   4.049  0.1764 -0.2492  0.0726
10847SOL    HW136329   1.085   6.303   4.020  0.2723  0.3220 -0.4349
10847SOL    HW236330   0.943   6.265   4.059  0.5439 -0.5914 -0.2989
10848SOL     OW36331   9.553   0.366   9.182  0.5306 -0.3070 -0.5670
10848SOL    HW136332   9.605   0.293   9.148  0.8031  0.0189 -0.8455
10848SOL    HW236333   9.584   0.378   9.271 -2.0775 -3.0061  0.8957
10849SOL     OW36334   8.406   4.192   6.835  0.3587  0.0099  0.2408
10849SOL    HW136335   8.499   4.174   6.823  0.1193 -0.7074 -0.6590
10849SOL    HW236336   8.374   4.120   6.889  0.2309 -0.0281  0.1172
10850SOL     OW36337   3.948   5.403   6.869  0.5051  0.3196 -0.8430
10850SOL    HW136338   4.023   5.345   6.885  2.9198  2.8814 -1.9270
10850SOL    HW236339   3.945   5.459   6.946 -0.9182 -0.2883 -0.4281
10851SOL     OW36340   8.585   2.252   1.218 -0.1572 -0.3669  0.6052
10851SOL    HW136341   8.522   2.311   1.259 -0.1530  0.3715 -0.3978
10851SOL    HW236342   8.538   2.215   1.143  0.7257  0.5942 -0.4619
10852SOL     OW36343   8.475   5.367   7.961  0.2530 -0.3853 -0.2912
10852SOL    HW136344   8.422   5.443   7.988  0.4418 -0.3377 -0.0564
10852SOL    HW236345   8.543   5.360   8.028  0.3710 -0.6263 -0.4359
10853SOL     OW36346   5.290   5.390   3.203 -0.3882 -0.1820 -0.3793
10853SOL    HW136347   5.383   5.384   3.179 -0.2526  0.6274 -0.1021
10853SOL    HW236348   5.275   5.484   3.215 -1.0911 -0.3576  0.1780
10854SOL     OW36349   0.516   0.342   2.081 -0.1146  0.1349 -0.3003
10854SOL    HW136350   0.490   0.400   2.009 -1.6025  0.7616  0.7123
10854SOL    HW236351   0.512   0.397   2.159  1.6897 -0.4756  0.2842
10855SOL     OW36352   5.488   1.852   9.086 -0.5778 -0.1983 -0.5757
10855SOL    HW136353   5.450   1.789   9.025 -0.6784 -0.8612  0.1561
10855SOL    HW236354   5.419   1.916   9.101 -0.9415 -0.6539 -0.2899
10856SOL     OW36355   9.892   1.634   7.774  0.2062 -0.2024  0.0158
10856SOL    HW136356   9.899   1.551   7.726 -1.8974 -0.7802  0.6135
10856SOL    HW236357   9.852   1.694   7.712  1.8686  0.4689 -0.4675
10857SOL     OW36358   6.668   9.430   9.820 -0.3167 -0.0928  0.3589
10857SOL    HW136359   6.751   9.426   9.772 -1.4935 -0.1011 -1.7948
10857SOL    HW236360   6.601   9.420   9.752 -2.1444  1.7892  1.7850
10858SOL     OW36361   3.814   1.039   8.403  0.3846  0.2822  0.1351
10858SOL    HW136362   3.818   0.983   8.325 -1.6953 -1.0232  0.8736
10858SOL    HW236363   3.745   1.102   8.383 -0.7147 -0.5409  1.1402
10859SOL     OW36364   3.130   2.887   6.793 -0.4897 -0.2372 -0.1528
10859SOL    HW136365   3.096   2.837   6.867 -3.8198  1.4537 -0.3549
10859SOL    HW236366   3.148   2.974   6.829 -1.7988  0.5006 -1.1781
10860SOL     OW36367   8.041   0.901   0.761 -0.0759 -0.3014 -0.5285
10860SOL    HW136368   7.976   0.947   0.814 -0.7430 -1.5955 -0.1824
10860SOL    HW236369   8.116   0.960   0.760 -1.1197  1.0901 -0.6690
10861SOL     OW36370   1.969   1.239   2.248  0.3576 -0.3483 -0.1056
10861SOL    HW136371   2.020   1.172   2.202  1.0065  0.7145 -0.9809
10861SOL    HW236372   1.892   1.252   2.193 -0.1629 -0.9133  0.4695
10862SOL     OW36373   2.018   6.718   2.661 -0.5359  0.3133  0.2279
10862SOL    HW136374   1.947   6.752   2.606 -0.1575  0.3853 -0.2232
10862SOL    HW236375   2.044   6.636   2.618 -0.3448  0.2899  0.3893
10863SOL     OW36376   1.821   4.822   1.107 -0.3418  0.3224 -0.4398
10863SOL    HW136377   1.865   4.794   1.187  0.4427 -1.1892 -1.3555
10863SOL    HW236378   1.821   4.745   1.051 -0.7386  1.3755 -1.9670
10864SOL     OW36379   4.054   3.884   1.623 -0.0872  0.1211  0.1257
10864SOL    HW136380   4.045   3.904   1.717  0.4021 -0.7440  0.3679
10864SOL    HW236381   4.117   3.812   1.620  1.8382  1.7426 -1.0357
10865SOL     OW36382   3.953   3.869   3.004  0.4512  0.4321 -0.3434
10865SOL    HW136383   3.859   3.886   3.002  0.2526 -0.5122  0.4864
10865SOL    HW236384   3.984   3.897   2.917 -0.3816  1.8299 -0.2316
10866SOL     OW36385   4.457  10.329   8.464  0.0916  0.2300  0.1885
10866SOL    HW136386   4.536  10.290   8.428 -1.5947 -1.9623 -1.4358
10866SOL    HW236387   4.464  10.317   8.559  0.4022 -2.6669 -0.1336
10867SOL     OW36388   2.064   0.066   9.172 -0.0471  0.5311 -0.1359
10867SOL    HW136389   2.011  -0.009   9.147 -0.5991  0.3707  1.3648
10867SOL    HW236390   2.118   0.085   9.095 -2.1928  0.6325 -1.6897
10868SOL     OW36391   0.318   4.523   0.989 -0.6988  0.0423 -0.3418
10868SOL    HW136392   0.379   4.586   0.950  0.1388 -0.4263  0.1777
10868SOL    HW236393   0.372   4.472   1.049 -1.9320  0.6198  1.3030
10869SOL     OW36394   3.017   8.271   2.475 -0.9550 -0.3303 -0.0944
10869SOL    HW136395   3.086   8.336   2.465 -0.9720 -0.2260  0.4159
10869SOL    HW236396   3.028   8.212   2.400  0.1686 -0.7636  0.3846
10870SOL     OW36397   6.155   5.504   0.474 -0.0622 -0.1839  0.0033
10870SOL    HW136398   6.149   5.600   0.469  1.2314  0.0044  1.3743
10870SOL    HW236399   6.064   5.475   0.476 -0.4855  0.9630 -0.9907
10871SOL     OW36400   1.368   7.038   8.398  0.4779  0.2890 -0.7041
10871SOL    HW136401   1.450   7.008   8.360  0.8851  0.9422 -0.3665
10871SOL    HW236402   1.327   6.959   8.432  1.4538  0.0731  0.0241
10872SOL     OW36403  10.172   9.110   0.345 -0.7630 -0.4237 -0.5295
10872SOL    HW136404  10.131   9.089   0.261 -0.8103 -0.6077 -0.4606
10872SOL    HW236405  10.118   9.067   0.410 -1.1059  0.2634 -0.3480
10873SOL     OW36406   5.170   3.380   0.375 -0.1892  0.9002  0.1110
10873SOL    HW136407   5.204   3.291   0.385 -2.7959 -0.0995  1.0225
10873SOL    HW236408   5.207   3.411   0.292  3.2661  0.2480  1.2187
10874SOL     OW36409   1.824   4.649   0.844  0.0975 -0.1654 -0.2018
10874SOL    HW136410   1.787   4.561   0.840  0.5044 -0.2982 -1.8130
10874SOL    HW236411   1.898   4.641   0.903  1.3421 -1.4208 -1.8341
10875SOL     OW36412   1.822   6.963   8.850 -0.4888 -0.4993  0.5209
10875SOL    HW136413   1.786   7.008   8.927 -2.4329 -0.3457 -0.4119
10875SOL    HW236414   1.765   6.888   8.837  0.0637 -0.7584 -0.5193
10876SOL     OW36415  10.314   7.498   3.716  0.2382  0.0908 -0.1829
10876SOL    HW136416  10.325   7.427   3.779  0.4818  0.5375  0.2763
10876SOL    HW236417  10.403   7.529   3.699  0.1538  0.1263 -0.5784
10877SOL     OW36418   1.638   8.860   0.603 -0.8155 -0.1711 -0.4077
10877SOL    HW136419   1.680   8.800   0.664 -1.5579  0.4067  0.6881
10877SOL    HW236420   1.548   8.829   0.596 -1.1122  0.5921 -0.1009
10878SOL     OW36421   2.767   9.652   6.764  0.4254  0.6484  0.1196
10878SOL    HW136422   2.678   9.625   6.788  0.3527  1.4876  0.8893
10878SOL    HW236423   2.760   9.748   6.755  0.5509  0.4472 -2.9728
10879SOL     OW36424   1.325   7.560   1.631  0.0622 -0.0562 -0.0195
10879SOL    HW136425   1.364   7.644   1.656  0.5645 -0.4528  0.5594
10879SOL    HW236426   1.398   7.498   1.635 -0.5745 -0.7767  0.8944
10880SOL     OW36427   8.381   0.809   7.524 -0.2029  0.2243  0.3047
10880SOL    HW136428   8.467   0.834   7.557  0.6193 -1.1889 -0.6407
10880SOL    HW236429   8.355   0.735   7.579 -0.6505  0.4163  0.3558
10881SOL     OW36430   0.070   8.540   1.902  0.1877  0.1930 -0.0940
10881SOL    HW136431   0.008   8.495   1.960 -0.8744 -0.8751 -1.9591
10881SOL    HW236432   0.119   8.599   1.960 -3.3227  1.9621  1.3368
10882SOL     OW36433   0.168   2.366   7.234  0.4026 -0.0637  0.2065
10882SOL    HW136434   0.211   2.434   7.286  1.4142  0.0883 -0.7831
10882SOL    HW236435   0.214   2.368   7.150 -1.1635 -0.3336 -0.6878
10883SOL     OW36436   1.991   2.460   2.034  0.4396 -0.0276  0.0424
10883SOL    HW136437   1.964   2.440   2.124  1.5235 -1.6946  0.0411
10883SOL    HW236438   1.911   2.493   1.992 -0.6755 -1.3517  1.0223
10884SOL     OW36439   8.526   9.014   4.123 -0.0054  0.0615 -0.1668
10884SOL    HW136440   8.524   8.983   4.213  1.9528 -1.4131 -0.5845
10884SOL    HW236441   8.440   8.989   4.088 -0.9778  1.0629  1.3522
10885SOL     OW36442   1.526   1.655   4.763  0.5944  0.1709 -0.2283
10885SOL    HW136443   1.547   1.586   4.826  2.9600  0.4259 -0.6417
10885SOL    HW236444   1.555   1.620   4.679  0.9663  1.2876 -0.5833
10886SOL     OW36445   0.218   9.085   5.330  0.4453  0.0895 -0.1071
10886SOL    HW136446   0.257   9.008   5.289 -0.6290 -1.4815  1.6376
10886SOL    HW236447   0.293   9.138   5.358  1.2514 -1.0170 -0.0987
10887SOL     OW36448   0.914   5.350   7.064  0.1050  0.2736 -0.1701
10887SOL    HW136449   0.820   5.339   7.052  0.4983 -1.3920 -2.3998
10887SOL    HW236450   0.922   5.415   7.134 -2.6794  1.1057 -0.5125
10888SOL     OW36451   4.910   6.544   1.445 -0.1790 -0.1414 -1.0713
10888SOL    HW136452   4.881   6.613   1.384 -1.1479  0.4555  0.0235
10888SOL    HW236453   4.957   6.481   1.390  1.9302  2.0224 -1.9424
10889SOL     OW36454   6.946   6.658   2.226  0.0208 -0.0267 -0.4500
10889SOL    HW136455   6.989   6.627   2.306 -1.3435  0.8834  0.7029
10889SOL    HW236456   6.892   6.731   2.255  0.3774  1.0907 -2.4509
10890SOL     OW36457   2.820   3.133   6.510 -0.2286  0.4514  0.0555
10890SOL    HW136458   2.899   3.085   6.483 -0.1909  0.3332  0.3750
10890SOL    HW236459   2.850   3.223   6.522 -0.3879  0.6570 -0.9662
10891SOL     OW36460   7.470   1.426   1.896 -0.3593 -0.0777 -0.1006
10891SOL    HW136461   7.485   1.475   1.815 -1.0709  0.9473  0.3673
10891SOL    HW236462   7.542   1.363   1.899 -0.0818  0.1482 -1.3107
10892SOL     OW36463   3.312   5.597   6.305 -0.2098  0.6218 -0.3751
10892SOL    HW136464   3.266   5.642   6.375 -1.3413  0.5906 -1.0751
10892SOL    HW236465   3.385   5.553   6.348 -0.5577  1.0676  0.6875
10893SOL     OW36466   5.519   5.248   7.129 -0.1995 -0.5493 -0.1781
10893SOL    HW136467   5.572   5.326   7.148 -1.3429  0.2837 -0.3177
10893SOL    HW236468   5.521   5.242   7.033 -1.1309  0.0626 -0.2502
10894SOL     OW36469   4.586   4.947   5.403 -0.0020 -0.5199 -1.2295
10894SOL    HW136470   4.636   4.896   5.467  0.6813  0.1547 -1.2103
10894SOL    HW236471   4.553   5.022   5.452  1.2705  0.4765 -1.8376
10895SOL     OW36472   8.007   4.133   7.710  0.4942  0.1786  0.0366
10895SOL    HW136473   7.914   4.141   7.729  0.5053 -0.1403  0.2371
10895SOL    HW236474   8.044   4.218   7.734  0.0737  0.7083 -1.1466
10896SOL     OW36475   8.228   6.568   8.010 -0.1001  0.0458  0.2905
10896SOL    HW136476   8.295   6.558   7.942  0.0484 -0.1307  0.4601
10896SOL    HW236477   8.201   6.659   8.003  1.5061  0.6679  1.4245
10897SOL     OW36478   8.918   7.390   9.702 -0.4679  0.2774 -0.2590
10897SOL    HW136479   8.916   7.394   9.797 -1.7248  0.5739 -0.2747
10897SOL    HW236480   8.987   7.452   9.677  2.1972 -2.2158  0.5024
10898SOL     OW36481   8.735   8.371   6.781 -0.4498 -0.2227 -0.0726
10898SOL    HW136482   8.759   8.341   6.693  0.6970 -1.3013  0.5657
10898SOL    HW236483   8.807   8.429   6.807  0.2652 -1.4788  0.8880
10899SOL     OW36484   7.507   0.842   2.106  0.3145 -0.2324 -0.6386
10899SOL    HW136485   7.556   0.916   2.070 -0.0226  0.0210 -0.5797
10899SOL    HW236486   7.486   0.788   2.029  1.2588 -0.6912 -0.5859
10900SOL     OW36487   9.632   2.795   0.295 -0.3415 -0.1351  0.3082
10900SOL    HW136488   9.723   2.821   0.278 -0.7100 -0.2096 -2.1524
10900SOL    HW236489   9.612   2.732   0.226 -2.4434  0.3033  0.4520
10901SOL     OW36490   2.187   5.621   4.221 -0.1851 -0.7133 -0.5347
10901SOL    HW136491   2.258   5.560   4.240 -1.6877 -2.2253  0.5680
10901SOL    HW236492   2.153   5.645   4.308 -0.5283  0.6092 -1.0148
10902SOL     OW36493   4.990   3.931   0.881  0.2043 -0.1665  0.4113
10902SOL    HW136494   4.909   3.946   0.833  0.8850 -0.0432 -0.7349
10902SOL    HW236495   4.988   3.838   0.904  0.7506 -0.7443 -1.6263
10903SOL     OW36496   2.295   4.862   6.397 -0.2616 -0.2645  0.2436
10903SOL    HW136497   2.351   4.841   6.472 -0.5979 -0.3820  0.4673
10903SOL    HW236498   2.220   4.906   6.437 -0.2043  0.1293 -0.0799
10904SOL     OW36499   9.070   6.887   2.853 -0.1057  0.3131  0.8775
10904SOL    HW136500   9.074   6.958   2.917 -1.6159  1.3459 -0.1136
10904SOL    HW236501   8.982   6.893   2.816 -0.1148 -1.8241  0.4478
10905SOL     OW36502   1.034   2.734   2.301 -0.0656  0.0631 -0.0828
10905SOL    HW136503   1.084   2.652   2.304  0.4268  0.3663  0.1108
10905SOL    HW236504   0.948   2.708   2.268  0.2999 -0.4203 -0.6818
10906SOL     OW36505   4.947   6.075   1.677  0.5926  0.1488 -0.0117
10906SOL    HW136506   5.024   6.025   1.706  0.4260 -0.9173 -1.3119
10906SOL    HW236507   4.874   6.014   1.687  0.2348  0.4531 -0.7152
10907SOL     OW36508   0.171   9.951   5.646 -0.5512 -0.1342  0.2582
10907SOL    HW136509   0.206  10.036   5.619  0.3673 -0.0746  1.5333
10907SOL    HW236510   0.141   9.965   5.736  2.5779 -1.8735  1.7265
10908SOL     OW36511   6.790   1.213   8.482 -0.5979  0.1636 -0.0865
10908SOL    HW136512   6.882   1.232   8.462 -0.2617  0.8421  1.8800
10908SOL    HW236513   6.750   1.199   8.396  1.2079  0.4074 -1.0348
10909SOL     OW36514   7.345   5.142   5.251 -0.2120 -0.7560  0.0608
10909SOL    HW136515   7.416   5.193   5.291 -0.6735  0.3264 -0.4526
10909SOL    HW236516   7.355   5.054   5.288  1.1294 -0.5177  0.3176
10910SOL     OW36517   6.625   4.594   3.312 -0.3276  0.3565  0.0425
10910SOL    HW136518   6.571   4.596   3.233 -0.1054 -0.8669 -0.1694
10910SOL    HW236519   6.582   4.530   3.369  0.7725 -0.4917 -0.0500
10911SOL     OW36520   4.338   6.150   8.675 -0.1265 -0.2733  0.2625
10911SOL    HW136521   4.417   6.095   8.669 -1.4472 -2.3879  1.0731
10911SOL    HW236522   4.306   6.155   8.585  0.8981  0.6018 -0.0743
10912SOL     OW36523   7.173   4.048   7.082  0.2402 -0.7981  0.5613
10912SOL    HW136524   7.206   4.041   7.172  2.1365  3.0399  0.3693
10912SOL    HW236525   7.236   4.000   7.029  0.8074 -0.5596  1.0147
10913SOL     OW36526   6.158   2.056   6.116 -0.1745  0.6289  0.1539
10913SOL    HW136527   6.097   1.985   6.132  0.0416  0.4164  0.0384
10913SOL    HW236528   6.108   2.136   6.134 -0.9452  0.5256 -1.4143
10914SOL     OW36529   6.437   7.265   2.832  0.1672  0.1638 -0.2674
10914SOL    HW136530   6.416   7.201   2.900  1.1830 -0.5469 -0.5838
10914SOL    HW236531   6.369   7.331   2.839 -0.0686 -0.1830  1.0638
10915SOL     OW36532   1.268   7.395   7.542  0.8307 -0.0692 -0.0272
10915SOL    HW136533   1.320   7.402   7.621  1.8017  0.0870 -0.6636
10915SOL    HW236534   1.320   7.340   7.483  0.6034  0.6174 -0.9081
10916SOL     OW36535   7.348   3.316   3.540 -0.6360 -0.6698  0.4074
10916SOL    HW136536   7.350   3.368   3.621 -1.1414 -0.1300  0.0888
10916SOL    HW236537   7.325   3.228   3.569  0.2429 -0.7264  0.9611
10917SOL     OW36538   6.489   5.721   7.191 -0.3071  0.0479 -0.1186
10917SOL    HW136539   6.530   5.669   7.260  1.0504  0.0729 -0.8788
10917SOL    HW236540   6.548   5.795   7.179  0.3380 -0.7581 -2.3827
10918SOL     OW36541   8.178   0.518   6.369 -0.0342 -0.4302 -0.2997
10918SOL    HW136542   8.193   0.576   6.294 -1.0106  1.2945  0.7640
10918SOL    HW236543   8.262   0.516   6.415 -0.4267  1.8153  0.6925
10919SOL     OW36544   8.992   7.868   4.719 -0.0675  0.1690 -0.5216
10919SOL    HW136545   8.980   7.895   4.810  0.0464  0.7853 -0.6862
10919SOL    HW236546   8.913   7.818   4.699  0.3878 -0.9041  0.2403
10920SOL     OW36547   5.178   4.936   7.675 -0.0188 -0.5305  0.1720
10920SOL    HW136548   5.114   4.888   7.727 -0.0732  0.4439  1.0417
10920SOL    HW236549   5.241   4.969   7.740  0.1446  0.3564 -0.4271
10921SOL     OW36550   2.937   8.717   7.600  0.2873  0.0619  0.0194
10921SOL    HW136551   2.927   8.623   7.586 -1.6076  0.4476 -1.8164
10921SOL    HW236552   2.895   8.733   7.685  1.4211 -0.8136  0.7825
10922SOL     OW36553   1.739   2.424   3.914  0.0004  0.3089 -0.4424
10922SOL    HW136554   1.659   2.377   3.938  0.4707 -0.3398 -0.1180
10922SOL    HW236555   1.809   2.372   3.952  0.4990  1.6429  0.5103
10923SOL     OW36556   1.149   2.128   7.017 -0.5165 -0.3525 -0.0316
10923SOL    HW136557   1.078   2.182   7.053 -1.2228 -1.1533 -0.2010
10923SOL    HW236558   1.104   2.054   6.976  0.3649 -0.2764 -1.1659
10924SOL     OW36559   8.913   7.271   3.308  0.1928  0.0814  0.2715
10924SOL    HW136560   8.838   7.300   3.361  0.3494  0.7423  0.1371
10924SOL    HW236561   8.968   7.222   3.369  0.2678  0.6600  0.6785
10925SOL     OW36562   2.234   5.894   3.289 -0.0445 -0.0803  0.3500
10925SOL    HW136563   2.266   5.835   3.358 -0.0408 -1.3973 -0.7490
10925SOL    HW236564   2.267   5.857   3.208 -0.6232  1.0718 -0.4428
10926SOL     OW36565   1.507   5.967   1.486  0.2407 -0.6698  0.4032
10926SOL    HW136566   1.571   6.030   1.519 -0.7839  1.2726 -1.0681
10926SOL    HW236567   1.452   5.945   1.561  0.0412  0.9934  0.7776
10927SOL     OW36568   2.549   9.729   1.811  0.3854 -0.4744 -0.0572
10927SOL    HW136569   2.527   9.638   1.827  1.3982 -0.6476  0.4077
10927SOL    HW236570   2.518   9.745   1.721 -0.0434 -1.1798 -0.0473
10928SOL     OW36571   9.531   4.252   2.274 -0.2614  0.0661  0.0324
10928SOL    HW136572   9.489   4.212   2.350  0.2086 -1.4229 -0.4671
10928SOL    HW236573   9.461   4.304   2.233 -0.5810  0.6895  1.3143
10929SOL     OW36574   0.421   2.125   0.868 -0.1408 -0.0732 -0.0731
10929SOL    HW136575   0.416   2.218   0.847  0.3027  0.0262  0.2539
10929SOL    HW236576   0.394   2.081   0.787 -1.0540  0.3403 -0.0130
10930SOL     OW36577   9.471   2.353   3.069 -0.1303  0.0202  0.3551
10930SOL    HW136578   9.493   2.428   3.014  1.6618 -0.7498 -0.0633
10930SOL    HW236579   9.392   2.316   3.030 -1.1790  1.7778  0.7060
10931SOL     OW36580   3.791   5.031  10.094 -1.2381  0.2429 -0.4425
10931SOL    HW136581   3.776   5.081  10.014 -0.2691  1.5002  0.1221
10931SOL    HW236582   3.805   4.941  10.063  0.5887  0.9342 -1.8799
10932SOL     OW36583   1.332   7.966   7.078  0.6666  0.4007  0.4796
10932SOL    HW136584   1.245   7.948   7.114  0.1114  1.2001 -0.4307
10932SOL    HW236585   1.338   8.061   7.076  1.6110  0.3462  0.6317
10933SOL     OW36586   4.564  10.304   4.285 -0.1628 -0.2803 -0.1917
10933SOL    HW136587   4.498  10.363   4.249  0.1022 -0.0521 -0.3063
10933SOL    HW236588   4.602  10.261   4.209 -0.0081 -0.2269 -0.1466
10934SOL     OW36589   0.613   0.942   0.306 -0.3050  0.3355 -0.1007
10934SOL    HW136590   0.692   0.898   0.274  0.8611  1.6705  0.7920
10934SOL    HW236591   0.555   0.945   0.230  0.3139 -1.0357 -0.6753
10935SOL     OW36592   0.437   6.152   4.077  0.2683 -0.4274 -0.1168
10935SOL    HW136593   0.514   6.139   4.022  0.0325 -0.8259 -0.3538
10935SOL    HW236594   0.445   6.085   4.145  0.7158  0.2538  0.5148
10936SOL     OW36595   5.722   5.334   6.442  0.0269 -0.2832  0.1480
10936SOL    HW136596   5.788   5.303   6.380  0.6411  0.0357  0.6347
10936SOL    HW236597   5.729   5.429   6.439 -2.6447 -0.0384 -2.2090
10937SOL     OW36598   7.101   0.013   7.655 -0.4643 -0.2422 -0.1021
10937SOL    HW136599   7.181  -0.028   7.687 -0.9223 -0.3481  0.9420
10937SOL    HW236600   7.093   0.094   7.706 -0.3076  0.4596 -1.1586
10938SOL     OW36601  10.343   6.809   2.850 -0.0070 -0.0540  0.0425
10938SOL    HW136602  10.302   6.895   2.862  1.0798  0.3649  0.9513
10938SOL    HW236603  10.424   6.814   2.901  0.7469 -1.1566 -1.0061
10939SOL     OW36604   0.553   3.276   8.308 -0.2705  0.4129 -0.4678
10939SOL    HW136605   0.459   3.296   8.302 -0.5002 -0.5147 -0.0588
10939SOL    HW236606   0.595   3.361   8.296 -1.1585  0.8435 -0.6810
10940SOL     OW36607   7.238   5.656   1.939 -0.4167  0.2115  0.1417
10940SOL    HW136608   7.264   5.737   1.895 -0.9711  0.2643 -0.1055
10940SOL    HW236609   7.261   5.587   1.876  3.5112 -0.2494  1.7743
10941SOL     OW36610   5.224   9.015   2.434  0.6955 -0.1308  0.1879
10941SOL    HW136611   5.303   9.068   2.434  1.3617 -1.0902 -0.8192
10941SOL    HW236612   5.248   8.935   2.387 -0.8962 -0.3911 -0.2555
10942SOL     OW36613  10.144   3.616   8.509 -0.5961 -0.4243  0.7304
10942SOL    HW136614  10.230   3.643   8.475 -1.2445 -1.0857 -1.5832
10942SOL    HW236615  10.096   3.698   8.521 -0.0152 -0.1157  0.9769
10943SOL     OW36616   8.938   5.680   2.995  0.2823 -0.2429  0.0871
10943SOL    HW136617   8.986   5.613   3.042  0.6872 -0.3003 -0.3994
10943SOL    HW236618   8.993   5.700   2.919 -0.2752 -0.0303 -0.2658
10944SOL     OW36619   7.574   6.314   6.579  0.2846  0.0003  0.1297
10944SOL    HW136620   7.546   6.406   6.585 -1.2639 -0.4580  0.5095
10944SOL    HW236621   7.569   6.294   6.485 -0.6275 -0.0454  0.1800
10945SOL     OW36622   5.847  10.101   9.012  0.4844  0.0784  0.7189
10945SOL    HW136623   5.809  10.171   9.065  0.6438 -0.2028  1.2110
10945SOL    HW236624   5.806  10.021   9.045 -0.6216  0.0390 -0.6577
10946SOL     OW36625   6.444   4.698   8.506 -0.2549  0.1908  0.1584
10946SOL    HW136626   6.409   4.636   8.443  0.4509 -0.8816  0.7761
10946SOL    HW236627   6.369   4.723   8.561 -1.0005  1.5822 -1.4032
10947SOL     OW36628   2.949   3.985   2.286 -0.0155  0.0492  0.2094
10947SOL    HW136629   3.026   4.000   2.340 -0.8398 -2.2898  2.1980
10947SOL    HW236630   2.960   3.896   2.252 -0.9116  0.4280 -1.1707
10948SOL     OW36631  10.107   5.091   3.988  0.2503 -0.0256 -0.4403
10948SOL    HW136632  10.029   5.050   4.027  0.0927  1.6135  1.0496
10948SOL    HW236633  10.101   5.183   4.012  3.0901  0.0148  0.4501
10949SOL     OW36634   8.423   2.469   0.619  0.3060 -0.2590  0.2105
10949SOL    HW136635   8.515   2.485   0.644 -0.1611  0.4809  1.5689
10949SOL    HW236636   8.415   2.374   0.618  0.5335 -0.3604  2.4340
10950SOL     OW36637   9.267  10.035   5.601 -0.2077 -0.5664  0.4255
10950SOL    HW136638   9.333  10.100   5.622  0.1917 -0.6876 -0.4290
10950SOL    HW236639   9.255   9.986   5.682  0.0555  0.0614  0.8493
10951SOL     OW36640   2.015   4.906   8.743  0.3964 -0.5776  0.3813
10951SOL    HW136641   2.076   4.977   8.763 -1.6690  1.4084  0.0466
10951SOL    HW236642   2.050   4.865   8.664 -0.4484  2.8262 -1.9527
10952SOL     OW36643   5.637   3.840   6.382 -0.5572  0.6286 -0.0798
10952SOL    HW136644   5.668   3.786   6.310  1.0418  1.1641  0.1560
10952SOL    HW236645   5.710   3.900   6.399 -1.6913  1.8473  0.6498
10953SOL     OW36646   1.741   9.824   0.696 -0.3405 -0.1760 -0.5213
10953SOL    HW136647   1.807   9.755   0.707 -0.7441 -0.3425  1.1838
10953SOL    HW236648   1.748   9.849   0.604 -0.0723 -2.3631 -1.1547
10954SOL     OW36649   3.291   4.661   1.912  0.5679 -0.3056  0.0986
10954SOL    HW136650   3.282   4.629   1.822  0.9446  0.5099 -0.2395
10954SOL    HW236651   3.341   4.593   1.957  0.9569 -0.4074 -0.4812
10955SOL     OW36652   5.984   1.084   7.554  0.0445  0.0426  0.1640
10955SOL    HW136653   6.006   1.026   7.627 -1.9835  0.2614  1.0208
10955SOL    HW236654   5.897   1.054   7.525  0.1262  0.9736 -1.1202
10956SOL     OW36655   2.117   9.561   7.529 -0.1823  0.0346 -0.3161
10956SOL    HW136656   2.079   9.514   7.603 -0.5248  0.2922 -0.3275
10956SOL    HW236657   2.181   9.499   7.491 -0.8272 -0.5320 -0.5012
10957SOL     OW36658   0.981   1.057   3.474  0.2382  0.4246 -0.0370
10957SOL    HW136659   1.024   1.010   3.402  1.3145  0.1217  0.7672
10957SOL    HW236660   1.037   1.133   3.490 -0.1963  0.6913  0.2345
10958SOL     OW36661   7.536   4.547   4.995  0.7519  0.2046  0.3027
10958SOL    HW136662   7.553   4.490   5.070  2.3900 -0.3521 -0.4381
10958SOL    HW236663   7.574   4.500   4.921 -0.7182  0.8029 -0.8712
10959SOL     OW36664   1.499   4.703   4.071  0.6273 -0.1915  0.1320
10959SOL    HW136665   1.453   4.708   4.155  1.2179 -0.9334  0.5028
10959SOL    HW236666   1.478   4.617   4.037  1.3635 -0.3549  0.0843
10960SOL     OW36667   7.877   2.834   0.915  0.0069  0.0146  0.0979
10960SOL    HW136668   7.794   2.839   0.867 -0.4541 -1.1282  0.7479
10960SOL    HW236669   7.944   2.828   0.846 -0.5829 -0.7935 -0.4272
10961SOL     OW36670   7.261   0.040   4.014 -0.4103 -0.1384  0.1428
10961SOL    HW136671   7.221  -0.045   4.033 -0.7121 -0.2665 -0.9934
10961SOL    HW236672   7.201   0.081   3.952 -0.2396  0.8900  0.6303
10962SOL     OW36673   2.360   4.839   6.968 -0.3073  0.1719 -0.4993
10962SOL    HW136674   2.453   4.831   6.988 -0.3186 -0.8916 -0.8296
10962SOL    HW236675   2.318   4.848   7.054  0.0313 -0.0961 -0.3012
10963SOL     OW36676   4.155   3.157   4.712  0.8282 -0.6245  0.1027
10963SOL    HW136677   4.063   3.181   4.726  0.4599 -3.0202  2.5078
10963SOL    HW236678   4.203   3.240   4.724 -0.9335  0.6105 -0.9256
10964SOL     OW36679   8.787   6.615   8.945 -0.8806  0.3960  0.0376
10964SOL    HW136680   8.744   6.558   8.881 -0.7801  0.0782  0.2514
10964SOL    HW236681   8.736   6.604   9.025 -1.5555  1.4827 -0.2188
10965SOL     OW36682   3.932   7.998   9.387 -0.5622 -0.2483  0.3047
10965SOL    HW136683   3.921   7.906   9.411  0.6404 -0.1866  1.1423
10965SOL    HW236684   3.953   8.042   9.469 -1.3329  0.8319 -0.0502
10966SOL     OW36685   3.148   3.395   0.125 -0.1501  0.0115  0.2193
10966SOL    HW136686   3.119   3.331   0.189  1.0092  0.0377  0.8015
10966SOL    HW236687   3.210   3.451   0.172 -1.0952  1.5452 -0.2927
10967SOL     OW36688   0.772   5.050   1.051  0.2355  0.0191  0.0801
10967SOL    HW136689   0.766   5.038   0.956  0.6106 -0.1350  0.0739
10967SOL    HW236690   0.780   5.145   1.063 -2.4040  0.3218  0.1101
10968SOL     OW36691   2.506   7.693   1.221 -0.2946 -0.1788  0.2033
10968SOL    HW136692   2.434   7.677   1.282  0.0876 -1.2053  0.4205
10968SOL    HW236693   2.541   7.778   1.247 -1.1757  0.1518  0.3443
10969SOL     OW36694   8.939   9.325   3.154  0.5118 -0.2511 -0.4144
10969SOL    HW136695   8.914   9.415   3.131 -1.7145 -0.9757 -1.0416
10969SOL    HW236696   8.870   9.270   3.116  2.6636 -2.3950 -1.4913
10970SOL     OW36697   6.905   2.419   4.850  0.0591 -0.1910 -0.0187
10970SOL    HW136698   6.932   2.510   4.865 -0.2511 -0.2078  0.6487
10970SOL    HW236699   6.984   2.377   4.815  0.5238  0.0835  0.6732
10971SOL     OW36700   8.288   3.660   3.223 -0.4007  0.5409 -0.2676
10971SOL    HW136701   8.308   3.584   3.168  0.8695  0.7354 -0.0948
10971SOL    HW236702   8.234   3.716   3.168 -0.7784 -0.1661 -0.6318
10972SOL     OW36703   1.921   2.098   5.348 -0.2015 -0.3309 -0.0418
10972SOL    HW136704   1.885   2.172   5.299  0.2236 -0.6448 -0.8614
10972SOL    HW236705   2.002   2.131   5.386  0.8749 -0.7974 -1.7990
10973SOL     OW36706   9.211   0.295   8.066  0.4468 -0.3835  0.3659
10973SOL    HW136707   9.126   0.280   8.107 -0.1968  0.9458 -0.3895
10973SOL    HW236708   9.240   0.379   8.102  0.0857  0.5806 -1.4583
10974SOL     OW36709   5.473   1.881   4.921  0.2253  0.3545  0.3200
10974SOL    HW136710   5.391   1.920   4.952 -0.1772 -0.1341 -0.1209
10974SOL    HW236711   5.476   1.795   4.962 -0.2461 -0.2470 -0.8636
10975SOL     OW36712   6.815   4.865   4.234 -0.2259 -0.2728 -0.3117
10975SOL    HW136713   6.830   4.881   4.327 -2.7714 -0.6509  0.2602
10975SOL    HW236714   6.798   4.952   4.197  0.5988 -0.1421 -0.3914
10976SOL     OW36715  10.308   5.184  10.232 -0.1225 -0.6090  0.0947
10976SOL    HW136716  10.308   5.185  10.328 -0.7026  0.2543  0.1005
10976SOL    HW236717  10.274   5.271  10.208  1.0074 -0.4323 -0.9020
10977SOL     OW36718   1.188   2.324   3.148  0.1686 -0.4588 -0.1622
10977SOL    HW136719   1.213   2.309   3.239 -0.8134 -0.1397  0.1772
10977SOL    HW236720   1.216   2.414   3.129 -0.8106 -0.0507  0.2620
10978SOL     OW36721   8.111   3.537   3.654  0.0161  0.1013 -0.4450
10978SOL    HW136722   8.138   3.588   3.577  1.2252  0.4091  0.1625
10978SOL    HW236723   8.127   3.446   3.629  1.5544  0.2657 -0.1555
10979SOL     OW36724   9.776   0.777  10.015  0.1650  0.5567  0.0552
10979SOL    HW136725   9.834   0.776   9.939  0.8084 -1.0363  0.5430
10979SOL    HW236726   9.828   0.742  10.087 -1.0731  0.0548  0.7469
10980SOL     OW36727   1.320   4.532   2.090  0.3049 -0.0172  0.1646
10980SOL    HW136728   1.359   4.491   2.167  0.8599  1.2931  0.6084
10980SOL    HW236729   1.227   4.541   2.112  0.2560 -0.6296  0.2301
10981SOL     OW36730   2.812   0.290   1.566 -0.6511 -0.3873 -0.6228
10981SOL    HW136731   2.873   0.359   1.592 -1.1246  0.2909 -1.2813
10981SOL    HW236732   2.753   0.281   1.641 -1.7716  1.2890 -1.2717
10982SOL     OW36733   2.924   3.804   0.507 -0.6481 -0.2351  0.1719
10982SOL    HW136734   2.914   3.736   0.440 -1.4929 -1.0337  1.0821
10982SOL    HW236735   3.018   3.803   0.528 -0.3146  0.2609 -1.2263
10983SOL     OW36736   3.269   7.985   7.633  0.0237  0.3466 -0.2564
10983SOL    HW136737   3.212   7.910   7.650  0.0749 -0.0386 -1.6450
10983SOL    HW236738   3.237   8.054   7.691  1.5310 -1.4297  2.9225
10984SOL     OW36739   9.055   1.947   6.231  0.3486  0.2225  0.6583
10984SOL    HW136740   9.105   1.906   6.301 -0.6462 -0.7438  0.8204
10984SOL    HW236741   9.122   1.980   6.171  1.1953 -0.8603  0.9624
10985SOL     OW36742   6.844   9.021   1.520  0.1349  0.0715 -0.2740
10985SOL    HW136743   6.804   9.042   1.435 -2.5494 -0.4855  0.7524
10985SOL    HW236744   6.840   8.926   1.525 -0.3295  0.1277  0.7171
10986SOL     OW36745   7.948   2.351   9.417 -0.0759  0.6376 -0.2354
10986SOL    HW136746   7.973   2.260   9.397  0.4923  0.8303 -0.4360
10986SOL    HW236747   7.979   2.365   9.507 -1.0714  0.3206  0.1693
10987SOL     OW36748   4.900   5.248   8.278 -0.1789 -0.2447 -0.1357
10987SOL    HW136749   4.880   5.197   8.356  0.6102  0.8030  0.7872
10987SOL    HW236750   4.974   5.202   8.237  0.4080  0.0315  0.5878
10988SOL     OW36751   2.112   0.806   5.052  0.8038 -0.5982  0.1484
10988SOL    HW136752   2.062   0.869   5.000 -0.3739 -2.8959 -1.7243
10988SOL    HW236753   2.185   0.780   4.996  1.5744 -0.5520  1.0976
10989SOL     OW36754   3.540   7.159   5.678 -0.1476  0.0896 -0.4794
10989SOL    HW136755   3.634   7.139   5.675  0.0228  0.7692  0.2428
10989SOL    HW236756   3.517   7.152   5.770 -0.7982  0.0112 -0.6432
10990SOL     OW36757   3.996   5.073   0.811 -0.3920 -0.3241 -0.1578
10990SOL    HW136758   4.035   5.151   0.771  0.2869 -0.2580  0.6101
10990SOL    HW236759   3.921   5.052   0.754 -0.4187  0.7138 -0.5298
10991SOL     OW36760   7.157   4.839   3.481 -0.6459 -0.3216 -0.1018
10991SOL    HW136761   7.120   4.825   3.567  1.5851  1.4704  1.2910
10991SOL    HW236762   7.252   4.834   3.494 -0.2205  0.2233 -2.3857
10992SOL     OW36763  10.179   4.540   8.652  0.0083 -0.2643 -0.0777
10992SOL    HW136764  10.213   4.586   8.729  0.4992 -1.3074  0.3547
10992SOL    HW236765  10.221   4.583   8.578 -0.2631  0.5853  0.2541
10993SOL     OW36766   5.266   5.656   9.630  0.3151 -0.1050 -0.5304
10993SOL    HW136767   5.286   5.568   9.599  2.6663 -0.1822  0.9827
10993SOL    HW236768   5.329   5.712   9.584  0.8537  0.3527  0.7295
10994SOL     OW36769   2.752   2.815   7.712  0.1705  0.3616  0.6797
10994SOL    HW136770   2.706   2.854   7.638  0.3227  1.9488  1.3849
10994SOL    HW236771   2.768   2.888   7.772 -1.3085 -1.0953  3.0021
10995SOL     OW36772   1.058   9.340   7.062 -0.1617  0.2008 -0.2601
10995SOL    HW136773   0.977   9.298   7.034 -0.9116  0.3616  1.5677
10995SOL    HW236774   1.048   9.353   7.156  1.0722  2.2245 -0.3447
10996SOL     OW36775   1.461   9.648   0.053 -0.0330 -0.1757 -0.8506
10996SOL    HW136776   1.472   9.653  -0.042 -0.5612  0.0386 -0.9009
10996SOL    HW236777   1.473   9.555   0.074 -0.2024 -0.2655 -1.1584
10997SOL     OW36778   6.413   3.888   1.255 -0.1863  0.5712  0.2841
10997SOL    HW136779   6.505   3.895   1.282 -0.0290  1.3444 -0.4156
10997SOL    HW236780   6.416   3.849   1.168 -0.6546 -1.1923  1.0195
10998SOL     OW36781   9.611   7.269   9.203  0.3613  0.7508 -0.2032
10998SOL    HW136782   9.670   7.335   9.167  0.4259  0.6361 -0.3100
10998SOL    HW236783   9.599   7.294   9.294  2.2935 -0.4219  0.4365
10999SOL     OW36784   3.280   4.328   9.240 -0.4468 -0.7798  0.0015
10999SOL    HW136785   3.322   4.256   9.286  2.3027  0.3946 -0.4792
10999SOL    HW236786   3.210   4.356   9.299  0.4487 -1.8338  1.6351
11000SOL     OW36787   2.311   4.010   1.933  0.2537 -0.8913 -0.1952
11000SOL    HW136788   2.399   4.008   1.971  0.9150 -1.3096 -1.6415
11000SOL    HW236789   2.270   3.929   1.963  0.7256 -1.1650 -0.2703
11001SOL     OW36790   2.824   9.815   5.219  0.6576 -0.0178 -0.1559
11001SOL    HW136791   2.749   9.796   5.163 -0.6770  3.0789  0.3667
11001SOL    HW236792   2.892   9.846   5.160  0.8804 -0.9860 -0.4318
11002SOL     OW36793   7.511   1.894   2.278 -0.1072 -0.6599 -0.3360
11002SOL    HW136794   7.500   1.970   2.335 -1.8367  0.9424 -2.6303
11002SOL    HW236795   7.605   1.893   2.258 -0.1701  1.5111 -1.0202
11003SOL     OW36796   9.186   0.884   8.472 -0.0150 -0.1296 -0.3031
11003SOL    HW136797   9.148   0.798   8.489  0.8604 -0.9317 -2.1967
11003SOL    HW236798   9.173   0.932   8.554 -1.9300 -1.5175  0.2879
11004SOL     OW36799   8.197   4.290   4.348 -0.0636 -0.5848 -0.4246
11004SOL    HW136800   8.116   4.248   4.377 -0.4138  0.6022  0.3735
11004SOL    HW236801   8.262   4.260   4.411 -0.4737  0.6441  0.6143
11005SOL     OW36802   2.243   1.644   9.666  0.1401 -0.3738 -0.2717
11005SOL    HW136803   2.291   1.630   9.584 -2.2810 -1.0918 -1.6766
11005SOL    HW236804   2.188   1.566   9.675 -1.2920  0.7126  0.8449
11006SOL     OW36805   6.319   6.837   7.643  0.2065  0.1035  0.1147
11006SOL    HW136806   6.360   6.911   7.688 -0.4709  2.2121 -2.4704
11006SOL    HW236807   6.228   6.839   7.671 -0.4847  2.1101 -1.9510
11007SOL     OW36808   6.686   8.540   9.277  0.1873 -0.1480  0.1860
11007SOL    HW136809   6.615   8.475   9.283  0.4861 -0.4533  0.4141
11007SOL    HW236810   6.763   8.488   9.254  0.9331 -0.2175  2.5981
11008SOL     OW36811   0.818  10.247  10.143 -0.6743  0.0154  0.2994
11008SOL    HW136812   0.805  10.161  10.182  0.3385 -0.3175 -0.0757
11008SOL    HW236813   0.793  10.237  10.051 -1.7127  0.4390  0.5251
11009SOL     OW36814   3.034   5.226   7.532 -0.1576 -0.5402 -0.0528
11009SOL    HW136815   3.031   5.170   7.454 -0.0813 -1.5363  0.6505
11009SOL    HW236816   3.120   5.208   7.570 -0.8091 -1.2648  1.1296
11010SOL     OW36817   1.356   3.277   8.466 -0.1951 -0.2613 -0.1995
11010SOL    HW136818   1.404   3.275   8.383 -1.8174 -1.5436 -1.1620
11010SOL    HW236819   1.423   3.293   8.532  1.0994  1.1446 -1.7687
11011SOL     OW36820   6.749   3.453   6.740 -0.1402  0.3988  0.1648
11011SOL    HW136821   6.716   3.445   6.829 -2.5818 -0.2501 -0.7046
11011SOL    HW236822   6.767   3.364   6.712 -2.6911  0.1704 -1.0474
11012SOL     OW36823  10.319   6.769   2.233 -0.1654 -0.1871 -0.1126
11012SOL    HW136824  10.242   6.740   2.281  1.1049 -1.2706  1.3935
11012SOL    HW236825  10.287   6.789   2.145 -2.4295  1.0147  0.8872
11013SOL     OW36826  10.022  10.162   8.193 -0.8163  0.4635  0.2839
11013SOL    HW136827   9.930  10.156   8.168 -0.0742 -0.7593 -2.5172
11013SOL    HW236828  10.062  10.216   8.126  0.8003 -0.3928  0.5076
11014SOL     OW36829   6.065   5.898   6.657 -0.1034 -0.2708  0.1706
11014SOL    HW136830   6.010   5.920   6.732 -0.7394 -0.2207 -0.2927
11014SOL    HW236831   6.142   5.954   6.665  0.0201 -0.5526  0.9932
11015SOL     OW36832   1.372   2.962   8.081 -0.7605 -0.5901  0.4860
11015SOL    HW136833   1.447   2.906   8.101 -1.6171 -1.5131  1.2160
11015SOL    HW236834   1.322   2.966   8.163 -1.5999 -0.1392 -0.0284
11016SOL     OW36835   2.554   5.772   4.096  0.1927  0.0947 -0.3813
11016SOL    HW136836   2.590   5.855   4.065  0.7570 -0.1517 -0.3885
11016SOL    HW236837   2.464   5.794   4.121  0.1017  0.5498 -1.0657
11017SOL     OW36838   3.577   6.668   1.374 -0.0389  0.1480  0.6086
11017SOL    HW136839   3.628   6.605   1.426  0.1712  0.9179  1.3727
11017SOL    HW236840   3.503   6.617   1.340 -0.6088 -0.2498  2.3060
11018SOL     OW36841   9.060   5.035   1.009 -0.1591 -0.1104 -0.3340
11018SOL    HW136842   9.021   5.122   1.016  0.0626 -0.0665  0.3684
11018SOL    HW236843   9.154   5.051   1.004 -0.0081 -0.3529  1.1663
11019SOL     OW36844   1.513   1.859   3.004  0.0407  0.2238 -0.1020
11019SOL    HW136845   1.510   1.765   3.021 -1.2923 -0.1184 -1.8838
11019SOL    HW236846   1.526   1.866   2.909  1.3845  1.8688  0.1489
11020SOL     OW36847   0.164   5.392   2.851  0.0734  0.2600 -0.7493
11020SOL    HW136848   0.162   5.486   2.832  1.0177  0.3204 -0.5765
11020SOL    HW236849   0.255   5.366   2.836 -0.4784 -0.9437 -2.3265
11021SOL     OW36850   0.248   7.695   5.408  0.3546 -0.3080  0.1003
11021SOL    HW136851   0.296   7.747   5.343 -1.1150 -0.1075 -0.8724
11021SOL    HW236852   0.170   7.748   5.428  1.2452  0.1195  2.8282
11022SOL     OW36853   5.813   9.904   9.351  0.0509  0.7619  0.0088
11022SOL    HW136854   5.764   9.861   9.281  0.7076  1.2565 -0.7514
11022SOL    HW236855   5.783   9.994   9.350  1.2994  1.1840 -0.7614
11023SOL     OW36856  10.324   3.721   0.587 -0.2360  0.2075  0.0754
11023SOL    HW136857  10.246   3.720   0.532 -1.3116 -1.9052  1.4670
11023SOL    HW236858  10.295   3.760   0.669  0.7769  1.3711 -0.0962
11024SOL     OW36859   5.272   9.308   6.161  0.3795  0.3967  0.2358
11024SOL    HW136860   5.342   9.251   6.193  0.6845  0.8259  0.3323
11024SOL    HW236861   5.192   9.265   6.189  0.4395 -1.7641 -2.4441
11025SOL     OW36862   6.608   9.505   3.864 -0.0405 -0.2583 -0.7292
11025SOL    HW136863   6.530   9.454   3.844 -0.3310  0.2260 -0.8632
11025SOL    HW236864   6.650   9.520   3.779 -1.7690  2.5933 -1.2393
11026SOL     OW36865   5.463   8.952   4.256 -0.2825  0.0236  0.0797
11026SOL    HW136866   5.431   9.012   4.189  1.2672  0.5994 -0.1706
11026SOL    HW236867   5.526   9.003   4.306  0.5660 -1.1833  0.2860
11027SOL     OW36868   0.107   4.016   9.646  0.0305 -0.0253 -0.5768
11027SOL    HW136869   0.058   4.014   9.728  0.5092 -3.2250 -0.2319
11027SOL    HW236870   0.176   4.081   9.661 -0.1901 -0.1744  1.3857
11028SOL     OW36871   4.877   4.368  10.069  0.5111 -0.2221 -0.2885
11028SOL    HW136872   4.805   4.343  10.012  1.2707 -1.5754 -0.7087
11028SOL    HW236873   4.894   4.460  10.048 -0.0069 -0.3598 -1.3858
11029SOL     OW36874   8.438   3.606   5.507  0.8774 -0.1597 -0.4212
11029SOL    HW136875   8.389   3.681   5.474  2.1508  0.8901 -0.0530
11029SOL    HW236876   8.415   3.601   5.600 -0.7900 -1.5493 -0.8775
11030SOL     OW36877   8.935   6.355   8.698  0.3498  0.3571 -0.7670
11030SOL    HW136878   8.843   6.370   8.719  0.0066 -0.9423 -1.2127
11030SOL    HW236879   8.952   6.408   8.620 -0.5998 -0.8918 -1.8664
11031SOL     OW36880   4.254   8.483   9.882  0.5622 -0.5880  0.0256
11031SOL    HW136881   4.325   8.545   9.897 -0.0808  0.8941 -2.4940
11031SOL    HW236882   4.257   8.465   9.789  0.0947 -3.6655  0.5070
11032SOL     OW36883   0.346   9.961   7.607  0.4839  0.2013 -0.6211
11032SOL    HW136884   0.364   9.875   7.644 -0.0263 -0.0559 -0.9580
11032SOL    HW236885   0.400   9.965   7.528  0.6203  0.2558 -0.5268
11033SOL     OW36886   2.701   6.526   3.012  0.0267  0.0317  0.2083
11033SOL    HW136887   2.745   6.584   2.949  0.3387  0.0126  0.4043
11033SOL    HW236888   2.754   6.533   3.092  1.3349 -2.0885 -0.3669
11034SOL     OW36889   3.076   0.815   6.859  0.1531  0.1832 -0.1194
11034SOL    HW136890   2.991   0.780   6.887 -0.0468  0.9964  0.3107
11034SOL    HW236891   3.124   0.738   6.828 -0.1947 -0.5180  0.9961
11035SOL     OW36892   5.368  10.328   4.969  0.0422  0.2714  0.3086
11035SOL    HW136893   5.274  10.311   4.973 -0.0870  1.0905  0.9287
11035SOL    HW236894   5.385  10.389   5.041  1.3125 -1.0068  1.1489
11036SOL     OW36895   1.025   3.511   6.222 -0.1747  0.2601  0.1108
11036SOL    HW136896   0.977   3.534   6.143  1.6025  0.3727 -0.9777
11036SOL    HW236897   1.085   3.441   6.196 -0.9594 -1.1453  1.8619
11037SOL     OW36898   7.234   1.948   4.199  0.1802  0.3289 -0.0676
11037SOL    HW136899   7.218   1.985   4.113 -0.2915 -0.8038 -0.4783
11037SOL    HW236900   7.169   1.991   4.256 -0.2326  0.2694 -0.4924
11038SOL     OW36901   6.399   1.452   9.001 -0.0931 -0.9626  0.2917
11038SOL    HW136902   6.389   1.542   8.970 -0.7925 -1.6318 -1.6135
11038SOL    HW236903   6.310   1.416   8.999 -0.0698 -1.2742  2.5534
11039SOL     OW36904   3.589   6.280   3.450  0.1847  0.1380 -0.3696
11039SOL    HW136905   3.566   6.370   3.425 -1.0986 -0.3300 -0.9146
11039SOL    HW236906   3.526   6.257   3.519 -1.1123 -1.1852 -1.9264
11040SOL     OW36907   6.013   2.745   5.736 -0.1973 -0.0621  0.8210
11040SOL    HW136908   5.995   2.686   5.664  3.1248 -0.6319  0.3007
11040SOL    HW236909   6.041   2.689   5.808  1.8723  0.7324  0.6999
11041SOL     OW36910   0.728   8.317   2.393 -0.0944 -0.1243  0.7000
11041SOL    HW136911   0.819   8.343   2.383  0.1206 -0.4891  1.6266
11041SOL    HW236912   0.679   8.399   2.392  0.2247  0.0672  0.0896
11042SOL     OW36913   5.958   9.097   3.380  0.0077 -0.2397  0.1440
11042SOL    HW136914   6.039   9.054   3.351 -0.2152 -0.4093 -0.2220
11042SOL    HW236915   5.906   9.107   3.301  0.0433  0.6868  0.2249
11043SOL     OW36916   2.051   6.791   4.523  0.8069 -0.1739  0.2039
11043SOL    HW136917   2.063   6.850   4.449 -2.5897  3.2660  2.0997
11043SOL    HW236918   1.967   6.748   4.506  0.9520 -0.8572  1.1464
11044SOL     OW36919   3.065   0.114   7.667  0.8356 -0.5559  0.4916
11044SOL    HW136920   2.989   0.159   7.630 -1.0925 -1.6430  2.8162
11044SOL    HW236921   3.105   0.069   7.593 -0.6506  0.2344 -0.8556
11045SOL     OW36922  10.330   3.813   6.416  0.4182  0.5215 -0.6516
11045SOL    HW136923  10.303   3.722   6.424 -1.0539  1.0294  0.9243
11045SOL    HW236924  10.304   3.838   6.327 -0.6609 -0.1600 -0.5497
11046SOL     OW36925   6.120   5.465   9.083 -0.0867  0.2265 -0.1695
11046SOL    HW136926   6.045   5.508   9.125 -0.5635 -0.3373 -0.4427
11046SOL    HW236927   6.182   5.451   9.155  0.3665  1.9623 -0.1838
11047SOL     OW36928   3.643   4.840   5.822  0.7076 -0.3290 -0.1424
11047SOL    HW136929   3.638   4.748   5.848  3.4083 -0.4886  0.0748
11047SOL    HW236930   3.717   4.874   5.872 -0.8503  2.2848  0.5692
11048SOL     OW36931   9.152   7.035   4.569  0.0756  0.1382 -0.3762
11048SOL    HW136932   9.156   7.094   4.493  1.4317  0.2296 -0.2538
11048SOL    HW236933   9.134   7.093   4.643  1.2747  0.4043 -0.2753
11049SOL     OW36934   7.266   5.495   7.393 -0.2028  0.2676 -0.4211
11049SOL    HW136935   7.177   5.500   7.430 -0.3151 -0.1716 -0.6320
11049SOL    HW236936   7.253   5.481   7.300  0.0875  0.1274 -0.4423
11050SOL     OW36937   7.328   5.933   4.607  0.2622 -0.1257  0.6321
11050SOL    HW136938   7.304   6.002   4.546 -0.3893  0.3300  1.3804
11050SOL    HW236939   7.330   5.976   4.693  0.2888 -0.9370  1.0518
11051SOL     OW36940   1.166   6.234   7.604  0.2600 -0.2340 -0.0838
11051SOL    HW136941   1.234   6.296   7.632 -1.1899  1.3987 -0.0132
11051SOL    HW236942   1.123   6.278   7.531 -0.5410 -1.3551 -0.3002
11052SOL     OW36943   8.120   8.122   1.237  0.4704  0.4901 -0.5386
11052SOL    HW136944   8.076   8.200   1.203  1.7129  0.7871 -1.5296
11052SOL    HW236945   8.183   8.155   1.301  1.0245  0.3189 -0.9860
11053SOL     OW36946   2.087   1.279   2.534 -0.0896 -0.3320  0.2929
11053SOL    HW136947   2.154   1.212   2.549  0.0603 -0.5293 -1.1245
11053SOL    HW236948   2.050   1.257   2.448  1.7453  2.8672 -1.4651
11054SOL     OW36949   6.772   6.000   3.439  0.1029  0.4235  0.3723
11054SOL    HW136950   6.706   5.933   3.452 -0.1063  0.8511  1.7155
11054SOL    HW236951   6.821   5.972   3.362  0.8292 -1.9448  1.5976
11055SOL     OW36952   7.038   2.197   3.500 -0.0188  0.6016  0.6839
11055SOL    HW136953   7.104   2.169   3.437 -0.0258 -1.0818  1.3745
11055SOL    HW236954   7.047   2.136   3.573 -1.8505  0.7715  1.1033
11056SOL     OW36955   9.503   9.229   2.132  0.3368  0.2959 -0.0674
11056SOL    HW136956   9.572   9.263   2.075  0.6251 -1.3936 -0.7690
11056SOL    HW236957   9.547   9.168   2.191 -0.3067  0.4318  0.5799
11057SOL     OW36958   5.103   1.085   3.533 -0.3256  0.6514 -0.3906
11057SOL    HW136959   5.030   1.079   3.594  0.6557 -1.8063  0.6820
11057SOL    HW236960   5.160   1.152   3.570 -0.4909  0.2715  0.5961
11058SOL     OW36961   8.732   7.553   7.538  0.2093 -0.6376 -0.2891
11058SOL    HW136962   8.678   7.579   7.612 -0.1864 -1.1155 -0.4013
11058SOL    HW236963   8.810   7.608   7.544 -0.4768  0.3710 -0.3743
11059SOL     OW36964  10.126   6.651   5.260 -0.0778 -0.1524  0.0449
11059SOL    HW136965  10.082   6.620   5.339 -0.4583  0.5843  0.1346
11059SOL    HW236966  10.060   6.640   5.191  0.5650 -1.6681 -0.3716
11060SOL     OW36967   0.763  10.204   9.862  0.1438  0.1393  0.7203
11060SOL    HW136968   0.814  10.197   9.781 -0.5599 -0.1202  0.2920
11060SOL    HW236969   0.768  10.117   9.902 -1.8220 -0.5915 -0.4765
11061SOL     OW36970   6.400   2.225   9.687 -1.3366  0.0834 -0.2253
11061SOL    HW136971   6.371   2.176   9.610  0.4459 -1.2212 -0.1200
11061SOL    HW236972   6.372   2.315   9.670  0.1007  0.0935 -3.0188
11062SOL     OW36973   0.525   2.928   2.974 -0.2167  0.1012  0.3219
11062SOL    HW136974   0.564   2.899   2.892 -3.7544 -1.3220 -1.0859
11062SOL    HW236975   0.564   3.014   2.991  2.5454 -0.7022 -1.3774
11063SOL     OW36976   3.727   3.019   7.344 -0.2440  0.1560  0.2707
11063SOL    HW136977   3.797   2.980   7.292 -1.0492 -0.4131 -0.4108
11063SOL    HW236978   3.651   2.963   7.328 -0.6370  0.2380  1.6992
11064SOL     OW36979   8.800   7.145   1.226  0.0904  0.4952  0.3364
11064SOL    HW136980   8.892   7.118   1.226 -0.2739 -0.7864 -0.2184
11064SOL    HW236981   8.804   7.241   1.230  1.4570  0.4844 -0.1820
11065SOL     OW36982   9.898   7.527  10.106  0.1324  0.8730  0.0835
11065SOL    HW136983   9.841   7.462  10.065  1.8356  0.6522 -2.1240
11065SOL    HW236984   9.845   7.606  10.112 -0.7048  0.4181 -1.0220
11066SOL     OW36985   9.115   1.739   1.295 -0.0243  0.4656 -0.4726
11066SOL    HW136986   9.088   1.746   1.204  0.6673 -0.2719 -0.7377
11066SOL    HW236987   9.129   1.646   1.310  1.6837  0.7389 -0.1537
11067SOL     OW36988   8.367   2.599   3.405  0.0517  0.1060 -0.2696
11067SOL    HW136989   8.450   2.640   3.431  0.9288 -1.5470 -0.2877
11067SOL    HW236990   8.354   2.530   3.471  0.2001 -1.5052 -1.8591
11068SOL     OW36991   0.031   3.600   9.431 -0.4799  0.5531 -0.1172
11068SOL    HW136992   0.064   3.584   9.343  0.4385  0.7138  0.1782
11068SOL    HW236993  -0.038   3.535   9.444  2.0386 -2.2333  0.4683
11069SOL     OW36994   4.335   1.859   9.964  1.1580  0.0436 -0.2333
11069SOL    HW136995   4.324   1.897  10.051 -0.7432 -1.9362  0.4680
11069SOL    HW236996   4.379   1.775   9.979  0.5538 -0.4516 -1.1460
11070SOL     OW36997   9.872   3.867   1.264 -0.7848 -0.3940  0.4558
11070SOL    HW136998   9.939   3.887   1.330  0.0866 -0.5051 -0.3784
11070SOL    HW236999   9.897   3.780   1.231 -1.0118 -0.1925 -0.2589
11071SOL     OW37000   7.848   2.279   4.323  0.4202 -0.6292  0.2342
11071SOL    HW137001   7.776   2.340   4.310 -0.2566 -1.3820  0.3397
11071SOL    HW237002   7.843   2.220   4.248  2.9176  1.1797 -1.5029
11072SOL     OW37003   2.853   7.327   0.225 -0.2127  0.4750  0.5831
11072SOL    HW137004   2.770   7.374   0.219  0.6789  1.9861 -0.7459
11072SOL    HW237005   2.863   7.285   0.140 -1.1291 -2.5187  1.8414
11073SOL     OW37006   1.002   5.509   7.284  0.1943 -0.1865  0.5063
11073SOL    HW137007   1.061   5.434   7.290  0.5082  0.1396  1.9553
11073SOL    HW237008   1.055   5.578   7.245  0.5748 -0.0936  1.1768
11074SOL     OW37009   9.666   8.987   0.334 -0.2174 -0.2375 -0.4127
11074SOL    HW137010   9.616   9.009   0.413  1.0196  0.0458  0.3147
11074SOL    HW237011   9.665   8.892   0.330  0.5141 -0.2961  0.4975
11075SOL     OW37012   5.648   5.473   7.205 -0.0991  0.3252  0.6021
11075SOL    HW137013   5.719   5.537   7.202  1.9239 -1.7810  0.6671
11075SOL    HW237014   5.633   5.456   7.298  0.2677 -0.2010  0.5706
11076SOL     OW37015   4.019   4.401   6.896  0.1288  0.5345 -0.3427
11076SOL    HW137016   4.044   4.329   6.954 -1.0624  0.0434 -0.4014
11076SOL    HW237017   4.084   4.470   6.913 -0.0497  0.3160  1.4049
11077SOL     OW37018   4.636   9.370   0.993 -0.2103 -0.4665  0.8224
11077SOL    HW137019   4.671   9.281   0.991  0.6484 -0.2247  2.6839
11077SOL    HW237020   4.701   9.423   0.948  0.0999 -0.5446  1.1766
11078SOL     OW37021   9.381  10.073   2.251 -0.3173 -0.3357  0.2369
11078SOL    HW137022   9.431  10.151   2.275  0.2922 -0.8872  0.8013
11078SOL    HW237023   9.297  10.107   2.221  0.8204  0.7237 -2.0440
11079SOL     OW37024   0.003   2.846   8.335 -0.0304 -0.8420  0.0911
11079SOL    HW137025  -0.038   2.924   8.372  0.0285 -0.8240  0.1180
11079SOL    HW237026   0.027   2.793   8.411  0.0671 -0.8166  0.0774
11080SOL     OW37027   5.477   0.562   6.286  0.2533  0.1437 -0.5243
11080SOL    HW137028   5.392   0.519   6.294  1.0646 -1.2487  1.2150
11080SOL    HW237029   5.485   0.581   6.192 -1.3786 -0.9505 -0.9260
11081SOL     OW37030   5.800   1.267   0.669 -0.0934  0.2296 -0.2997
11081SOL    HW137031   5.854   1.216   0.608  0.0565 -1.7568  1.3987
11081SOL    HW237032   5.746   1.202   0.713 -0.7373  1.6995  1.1504
11082SOL     OW37033   7.167   3.682   5.635 -0.1569  0.0639 -0.4277
11082SOL    HW137034   7.162   3.709   5.727 -0.1879  0.5322 -0.5647
11082SOL    HW237035   7.260   3.682   5.614 -0.1586  0.0986 -0.4352
11083SOL     OW37036   7.928   6.845   1.174 -0.0222  0.1925 -0.3737
11083SOL    HW137037   7.883   6.897   1.108  1.0395  0.1281 -1.1895
11083SOL    HW237038   8.021   6.863   1.159  0.2535  0.1194  1.0702
11084SOL     OW37039   1.358   2.026   7.209 -0.2725  0.3154 -0.4168
11084SOL    HW137040   1.292   1.998   7.272  1.1028 -3.3980 -0.4079
11084SOL    HW237041   1.313   2.090   7.155 -3.3720 -0.8058  0.6026
11085SOL     OW37042   4.095   9.154   9.655 -0.0894 -0.5389  0.4181
11085SOL    HW137043   4.149   9.164   9.734  1.2565 -3.0641 -0.0622
11085SOL    HW237044   4.009   9.186   9.680  0.4473 -0.7326  2.7388
11086SOL     OW37045   5.650   6.007   1.235  0.3689 -0.4319  0.0748
11086SOL    HW137046   5.574   6.056   1.265  0.7156  1.5217 -1.9720
11086SOL    HW237047   5.699   5.987   1.315 -0.1732  1.9366  1.0883
11087SOL     OW37048   3.076   6.665   8.377  0.1846  0.2240  0.0213
11087SOL    HW137049   3.027   6.745   8.396  0.1002  0.4319 -1.0257
11087SOL    HW237050   3.135   6.689   8.306  0.4627 -0.5290 -0.0101
11088SOL     OW37051   7.483   3.747   4.964  0.4148 -0.1960 -0.1664
11088SOL    HW137052   7.444   3.825   4.925  1.2948  1.1875  1.5591
11088SOL    HW237053   7.560   3.729   4.909  0.6368  0.6327 -0.1436
11089SOL     OW37054  10.265   9.024   9.167  0.0818  0.1004  0.0007
11089SOL    HW137055  10.264   8.929   9.177 -0.0210  0.1495  0.4685
11089SOL    HW237056  10.183   9.053   9.206  1.1926  0.5968  2.1431
11090SOL     OW37057   9.990   0.944  10.348 -0.0953  0.0438  0.1576
11090SOL    HW137058  10.005   0.890  10.425 -1.5861 -1.1886 -0.3663
11090SOL    HW237059   9.923   1.006  10.375 -2.1335 -1.6827 -0.6317
11091SOL     OW37060   0.777   7.604   7.544 -0.6211 -0.3365 -0.2034
11091SOL    HW137061   0.834   7.581   7.470  2.3381  1.7613  1.2424
11091SOL    HW237062   0.782   7.529   7.603  0.6038 -0.2350 -0.1602
11092SOL     OW37063   4.327   1.052   0.061 -0.2942 -0.2981  0.1980
11092SOL    HW137064   4.344   0.958   0.054  0.9076 -0.0324 -0.7550
11092SOL    HW237065   4.283   1.075  -0.020  1.6517  0.3779 -0.7300
11093SOL     OW37066   3.446   8.532   3.707 -0.0841 -0.1916  0.4697
11093SOL    HW137067   3.389   8.500   3.777 -0.8678  0.9569  0.3818
11093SOL    HW237068   3.402   8.505   3.626 -0.6575  0.9240  0.3987
11094SOL     OW37069   5.374   8.494   4.454 -0.2337 -0.3278  0.3111
11094SOL    HW137070   5.310   8.443   4.404 -0.1808  0.4347 -0.5487
11094SOL    HW237071   5.351   8.476   4.546 -2.2970  0.6525  0.0407
11095SOL     OW37072   0.532   3.708   1.711 -0.3823  0.2373 -0.1540
11095SOL    HW137073   0.575   3.771   1.653  0.7161  0.3040  0.6930
11095SOL    HW237074   0.514   3.633   1.656 -0.3367  0.7150 -0.8329
11096SOL     OW37075   6.367   9.378   3.809 -0.4994  0.0482 -0.0297
11096SOL    HW137076   6.385   9.357   3.718 -0.6183  3.0315 -0.8231
11096SOL    HW237077   6.279   9.342   3.825  0.0304 -1.6183 -0.6382
11097SOL     OW37078   9.565   6.078   0.646 -0.2792  0.0264  0.4094
11097SOL    HW137079   9.484   6.071   0.596 -0.5689 -0.7754  0.9623
11097SOL    HW237080   9.536   6.085   0.738  0.2376  1.5871  0.4805
11098SOL     OW37081   9.760   2.074   2.495 -0.4015 -1.3604 -0.4729
11098SOL    HW137082   9.685   2.126   2.466 -1.9058 -2.6502  0.8540
11098SOL    HW237083   9.741   2.055   2.587  2.1825 -0.7499  0.2530
11099SOL     OW37084   0.165   8.105   8.082 -0.2070 -0.3610  0.4018
11099SOL    HW137085   0.097   8.172   8.071 -1.3894 -1.2614  1.8369
11099SOL    HW237086   0.218   8.137   8.155  1.0402  0.4025 -0.7993
11100SOL     OW37087   2.584   5.840   5.159 -0.0755  0.3186 -0.3049
11100SOL    HW137088   2.670   5.879   5.177 -0.3900  0.7876  0.2256
11100SOL    HW237089   2.573   5.850   5.065  0.6114 -0.0873 -0.4395
11101SOL     OW37090   1.200   9.055   6.202 -0.3225 -0.1818 -0.7035
11101SOL    HW137091   1.223   9.145   6.181 -1.4515  0.4013  0.4333
11101SOL    HW237092   1.106   9.050   6.188 -0.1376 -1.4746 -1.6743
11102SOL     OW37093   5.501   9.262   4.937  0.3359 -0.2854  0.3780
11102SOL    HW137094   5.548   9.245   5.019  0.0835 -1.0785  0.3678
11102SOL    HW237095   5.412   9.232   4.954 -0.4534  2.0079  0.6927
11103SOL     OW37096   5.285   0.264   4.787 -0.3184  0.3288 -0.2857
11103SOL    HW137097   5.269   0.182   4.740  0.5590  0.1060 -0.2054
11103SOL    HW237098   5.291   0.330   4.718 -0.2287  0.1972 -0.4054
11104SOL     OW37099   1.635   7.756   4.322 -0.2844 -0.0764  0.0306
11104SOL    HW137100   1.729   7.763   4.340 -0.2451  0.2227 -0.2931
11104SOL    HW237101   1.630   7.693   4.250 -0.3201  0.0448 -0.0726
11105SOL     OW37102   9.644  10.357   4.778  0.0384  0.3822  0.1456
11105SOL    HW137103   9.576  10.311   4.828  1.1098 -0.5010  0.8356
11105SOL    HW237104   9.636  10.324   4.689  0.4003 -0.7071  0.5094
11106SOL     OW37105   0.238   0.011   7.411  0.2684  0.4150 -0.4042
11106SOL    HW137106   0.239   0.020   7.507  2.2488  0.9558 -0.4336
11106SOL    HW237107   0.307   0.069   7.381 -0.6062  0.5711 -2.2313
11107SOL     OW37108   3.915   2.990   0.713 -0.5016  0.0472 -0.7810
11107SOL    HW137109   3.917   2.914   0.655  1.6196  0.5673 -1.4664
11107SOL    HW237110   3.844   2.971   0.775  0.9051 -3.2007  0.0015
11108SOL     OW37111   5.067   2.560   6.086  0.0983  0.0044  0.1458
11108SOL    HW137112   5.159   2.533   6.093  0.5842  1.4034 -0.4990
11108SOL    HW237113   5.057   2.588   5.995 -0.6200  1.0850  0.5401
11109SOL     OW37114   1.873   3.085   9.796 -0.3203  0.0157  0.0067
11109SOL    HW137115   1.890   3.155   9.858 -1.4511 -0.2693  0.6582
11109SOL    HW237116   1.841   3.129   9.718 -3.1415  0.1801  1.1375
11110SOL     OW37117   9.776   9.744   4.952  0.2244 -0.0760  0.4286
11110SOL    HW137118   9.687   9.774   4.971  0.2424 -0.2711  0.8265
11110SOL    HW237119   9.773   9.717   4.860 -0.6756 -2.0100  0.9618
11111SOL     OW37120   5.369   5.068   0.625 -0.0089  0.0001  0.0128
11111SOL    HW137121   5.367   5.035   0.715  1.5442 -2.2628 -0.7075
11111SOL    HW237122   5.460   5.058   0.598 -0.6101 -0.1320 -2.0988
11112SOL     OW37123   1.893   8.015   2.997 -0.1800 -0.0572 -0.0655
11112SOL    HW137124   1.935   8.089   3.041  0.0288 -1.3604  2.0777
11112SOL    HW237125   1.801   8.020   3.025 -0.2245 -0.4284 -0.1443
11113SOL     OW37126   1.146   4.461  10.202 -0.0717 -0.2330  0.3631
11113SOL    HW137127   1.154   4.460  10.298 -1.5426 -1.3786  0.5043
11113SOL    HW237128   1.090   4.537  10.184 -0.1235 -0.2524  0.4396
11114SOL     OW37129   8.032   2.612   1.942  0.1360 -0.0439  0.6083
11114SOL    HW137130   8.106   2.672   1.941 -1.2481  1.7607  0.0499
11114SOL    HW237131   8.017   2.591   1.849  0.0798 -0.5560  0.7303
11115SOL     OW37132   0.306   5.516   3.189 -0.4475  0.3501  0.2318
11115SOL    HW137133   0.319   5.527   3.283  0.0295  3.6876 -0.0801
11115SOL    HW237134   0.214   5.539   3.175  0.2746  3.2128 -0.3768
11116SOL     OW37135   7.575   2.783   8.788  0.3236  0.3208 -0.2833
11116SOL    HW137136   7.651   2.724   8.787  0.8021  0.9205 -1.6264
11116SOL    HW237137   7.613   2.870   8.797 -0.3299  0.5122  0.7671
11117SOL     OW37138   0.836   9.492   9.524  0.2496 -0.4680 -0.2776
11117SOL    HW137139   0.773   9.429   9.490 -1.4765  0.1171  1.6911
11117SOL    HW237140   0.911   9.484   9.465 -0.4839 -3.2735 -0.9750
11118SOL     OW37141   7.709   1.203   0.572  0.3714  0.0935  0.0814
11118SOL    HW137142   7.761   1.265   0.623  1.4914 -1.1541  0.5067
11118SOL    HW237143   7.774   1.147   0.528 -0.6010 -0.2150 -1.0174
11119SOL     OW37144   6.354   1.700   8.863  0.1138  0.1497  0.0873
11119SOL    HW137145   6.407   1.682   8.785  0.8127 -1.9914  0.9864
11119SOL    HW237146   6.399   1.773   8.906  0.1122  0.8878 -1.1324
11120SOL     OW37147   9.773   3.437   5.538  0.1702 -0.3832 -0.8303
11120SOL    HW137148   9.699   3.448   5.479 -2.3778 -0.5294  2.1011
11120SOL    HW237149   9.797   3.344   5.530 -1.1673 -0.7701 -0.5468
11121SOL     OW37150   8.922   1.772   6.892 -0.5804  0.1213 -0.3671
11121SOL    HW137151   8.857   1.764   6.961 -0.4579 -0.3854 -0.3007
11121SOL    HW237152   8.903   1.699   6.832 -1.2288  1.0644 -1.3371
11122SOL     OW37153   9.528   6.893   9.970  0.5192 -0.4427 -0.4358
11122SOL    HW137154   9.496   6.819  10.022  0.4075 -0.7625 -0.9554
11122SOL    HW237155   9.449   6.937   9.940  0.5065  1.4820  2.0271
11123SOL     OW37156   1.034   8.072   2.524  0.2429 -0.0856  0.4721
11123SOL    HW137157   1.054   8.074   2.431  0.2754 -2.1281  0.3982
11123SOL    HW237158   1.119   8.070   2.567  0.2317 -0.6352  0.4758
11124SOL     OW37159   2.704   1.303   5.445  0.1046  0.1084  0.5051
11124SOL    HW137160   2.620   1.273   5.410 -0.3213 -0.1540  1.6982
11124SOL    HW237161   2.769   1.247   5.402 -0.2559  0.7117 -0.8790
11125SOL     OW37162   4.004   6.157   3.440  0.0937 -0.0233  0.0832
11125SOL    HW137163   4.054   6.110   3.374  1.3459  1.1461  0.1676
11125SOL    HW237164   4.069   6.200   3.495 -0.9762  1.2310  0.4370
11126SOL     OW37165   4.145   5.753   9.517 -0.4001 -0.4949 -0.0748
11126SOL    HW137166   4.228   5.797   9.502 -0.0329 -0.1523  2.4268
11126SOL    HW237167   4.114   5.788   9.601 -3.2776 -0.3321 -1.0922
11127SOL     OW37168   3.748   9.422   9.942  0.2635 -0.4651  0.5312
11127SOL    HW137169   3.738   9.516   9.926 -1.4894 -0.2182  2.6412
11127SOL    HW237170   3.824   9.415   9.998  0.7250 -0.3796 -0.0742
11128SOL     OW37171   8.747   4.824   4.479  0.8170  0.5261  0.6578
11128SOL    HW137172   8.716   4.758   4.541  1.0685 -0.5040 -0.2751
11128SOL    HW237173   8.714   4.794   4.394  1.1098  1.4959  0.1903
11129SOL     OW37174   8.709   6.157   6.909 -0.3471  0.3766 -0.2444
11129SOL    HW137175   8.733   6.239   6.953 -0.9338  0.4362 -0.0235
11129SOL    HW237176   8.629   6.179   6.860 -0.1798  0.0852 -0.6497
11130SOL     OW37177   5.904   6.059   5.037 -0.0301 -0.4315 -0.1366
11130SOL    HW137178   5.950   6.064   4.953 -0.5545  1.4950 -0.3641
11130SOL    HW237179   5.814   6.084   5.017 -0.7954 -2.3362  0.6226
11131SOL     OW37180   5.854   8.133   2.119  0.3177  0.2431 -0.0415
11131SOL    HW137181   5.833   8.226   2.134 -0.6212 -0.0693  0.6491
11131SOL    HW237182   5.852   8.123   2.024 -1.6396  0.4886 -0.0610
11132SOL     OW37183   5.729   0.170   6.139  0.3288 -0.4880  0.1561
11132SOL    HW137184   5.640   0.155   6.172 -0.0132 -0.3337 -0.6928
11132SOL    HW237185   5.743   0.264   6.149  1.3594 -0.8275  2.6561
11133SOL     OW37186   2.868   2.955   2.200 -0.3452  0.4598 -0.0957
11133SOL    HW137187   2.789   2.987   2.157 -1.8945  1.0660  2.9454
11133SOL    HW237188   2.915   3.034   2.227  0.4494  0.0992 -0.3766
11134SOL     OW37189   8.623   2.731   1.402 -0.0969  0.4529 -0.4513
11134SOL    HW137190   8.638   2.682   1.482 -0.4981  0.8641 -0.1157
11134SOL    HW237191   8.700   2.713   1.348 -0.0979 -0.2906 -0.2128
11135SOL     OW37192  10.173   7.494   6.943 -0.4648 -0.0798 -0.4408
11135SOL    HW137193  10.229   7.570   6.957 -1.2155  0.3026  0.6005
11135SOL    HW237194  10.197   7.462   6.856  1.4429 -0.0031  0.0073
11136SOL     OW37195   5.751   7.823   7.165  0.0130  0.6580 -0.0792
11136SOL    HW137196   5.831   7.839   7.215 -0.4485  2.0304  0.2644
11136SOL    HW237197   5.714   7.910   7.151 -0.7721  0.1531 -1.3296
11137SOL     OW37198  10.048   7.055   2.340  0.0049  0.5140  0.7052
11137SOL    HW137199   9.994   7.021   2.269  0.0923  0.7363  0.5336
11137SOL    HW237200  10.116   7.107   2.297  0.9288 -0.5262  0.8506
11138SOL     OW37201   6.731   3.008  10.127 -0.0243  0.0979  0.0915
11138SOL    HW137202   6.794   3.017  10.198  0.7182  0.2885 -0.5778
11138SOL    HW237203   6.776   3.044  10.050  0.0257 -2.0777 -0.9718
11139SOL     OW37204   5.334   5.252   4.142 -0.6363 -0.6750  0.4214
11139SOL    HW137205   5.405   5.304   4.181 -0.7301  0.3236 -0.6897
11139SOL    HW237206   5.257   5.274   4.196 -0.3016 -1.0674  1.0718
11140SOL     OW37207   6.650   8.772   9.388 -0.3946 -0.9288 -0.4613
11140SOL    HW137208   6.651   8.681   9.358  0.4302 -0.1732 -3.0114
11140SOL    HW237209   6.731   8.782   9.438  0.6381 -1.1003 -2.0274
11141SOL     OW37210   0.232   0.411   4.601  0.2902 -0.2340  1.2105
11141SOL    HW137211   0.294   0.358   4.550 -1.6842 -2.1152  0.6446
11141SOL    HW237212   0.269   0.499   4.598  1.1444 -0.5516 -2.1853
11142SOL     OW37213   6.177   4.047   1.189 -0.0067 -0.0452 -0.1085
11142SOL    HW137214   6.233   3.996   1.248 -0.0221  0.3079  0.2169
11142SOL    HW237215   6.153   4.124   1.240  0.2182  0.4150 -0.6853
11143SOL     OW37216   1.978   0.456   9.106  0.4814  0.1664  0.1511
11143SOL    HW137217   1.936   0.528   9.152  1.9417  0.5765  0.9067
11143SOL    HW237218   1.972   0.479   9.013 -1.9225 -0.3519  0.1098
11144SOL     OW37219   8.406   4.001   8.355 -0.2193 -0.4667  0.5128
11144SOL    HW137220   8.410   3.939   8.283  1.1564 -0.7842  0.8358
11144SOL    HW237221   8.379   4.083   8.315  2.1534 -0.2056 -0.7035
11145SOL     OW37222   4.637   6.555   3.479 -0.3502  0.0649 -0.1328
11145SOL    HW137223   4.631   6.484   3.543  0.6657 -0.9804 -1.1185
11145SOL    HW237224   4.723   6.542   3.439 -0.5615  1.2789 -1.0139
11146SOL     OW37225   5.171   4.999   5.607 -0.1785  0.3034  0.0066
11146SOL    HW137226   5.171   5.044   5.522  0.9583  0.1597 -0.0910
11146SOL    HW237227   5.080   4.972   5.620 -0.3606  0.2709 -1.1984
11147SOL     OW37228   2.189   7.056   6.880 -0.3854 -0.1170 -0.5879
11147SOL    HW137229   2.202   7.129   6.819 -1.8100  1.0416  0.4394
11147SOL    HW237230   2.257   6.993   6.855  0.2985  1.1291 -2.1171
11148SOL     OW37231   2.434   3.971   8.603 -0.1608 -0.0628  0.1466
11148SOL    HW137232   2.513   3.925   8.573 -1.0320 -1.3879 -0.2277
11148SOL    HW237233   2.465   4.029   8.672  1.5809  1.5924 -1.9057
11149SOL     OW37234   6.245   3.537   7.264 -0.5796  0.4614 -0.7093
11149SOL    HW137235   6.245   3.443   7.243  0.9389  0.4298 -0.7275
11149SOL    HW237236   6.153   3.561   7.268 -1.0729 -1.4573  1.1788
11150SOL     OW37237   0.171   6.296  10.034 -0.4883 -0.3087  0.2891
11150SOL    HW137238   0.260   6.313  10.063 -0.6600 -1.3989  1.5424
11150SOL    HW237239   0.133   6.383  10.021  0.3223  0.1802  1.1155
11151SOL     OW37240   7.978   4.393   3.190  0.3808  0.0718  0.0358
11151SOL    HW137241   8.024   4.335   3.251 -1.4169 -0.9860  0.4347
11151SOL    HW237242   8.038   4.468   3.179  1.9250 -0.9647  0.9676
11152SOL     OW37243   6.635   8.662   0.820  0.0321  0.0503 -0.6089
11152SOL    HW137244   6.624   8.568   0.810 -0.4371  0.0418 -0.0289
11152SOL    HW237245   6.558   8.701   0.778 -0.3573  0.1257  0.1562
11153SOL     OW37246   3.694   7.714   8.571 -0.7136  0.0129 -0.5054
11153SOL    HW137247   3.607   7.753   8.582 -0.4139  0.5659 -0.0429
11153SOL    HW237248   3.704   7.704   8.477 -0.9431  0.7334 -0.6143
11154SOL     OW37249   0.040   1.420   4.298 -0.2745  0.2864 -0.0594
11154SOL    HW137250   0.024   1.398   4.389  0.0247 -1.2351 -0.3402
11154SOL    HW237251   0.102   1.353   4.268 -0.6041  0.5738 -1.4494
11155SOL     OW37252   2.850   9.379  10.163 -0.3910 -0.4090 -0.1246
11155SOL    HW137253   2.853   9.467  10.127  2.1290 -0.4891 -0.3040
11155SOL    HW237254   2.820   9.390  10.253  1.9556  0.9498  0.5637
11156SOL     OW37255   6.514   1.354   2.654 -0.3835  0.1678  0.4808
11156SOL    HW137256   6.459   1.431   2.667 -1.1308 -0.3341  0.4042
11156SOL    HW237257   6.506   1.335   2.560 -0.0775  0.0893  0.4707
11157SOL     OW37258   1.772  10.097   6.929  0.3499 -0.1895 -0.2010
11157SOL    HW137259   1.733  10.050   6.856 -0.1374 -0.3232  0.1387
11157SOL    HW237260   1.727  10.063   7.006  1.5374 -0.7698  0.2621
11158SOL     OW37261   8.791   1.916   8.860 -0.5381 -0.0501 -0.0405
11158SOL    HW137262   8.777   1.996   8.810 -0.1351 -1.4359 -2.5726
11158SOL    HW237263   8.703   1.883   8.879 -0.7137  0.0557 -0.6545
11159SOL     OW37264   7.367   9.018  10.163  0.1151  0.3391  0.1323
11159SOL    HW137265   7.291   9.035  10.106 -0.7050  0.5493  1.2640
11159SOL    HW237266   7.371   9.093  10.221  0.3402 -0.3357  1.0085
11160SOL     OW37267   8.677   9.864   1.822 -0.4765 -0.1903  0.4187
11160SOL    HW137268   8.594   9.817   1.822  0.0379 -1.1548  1.1266
11160SOL    HW237269   8.741   9.798   1.851  0.6612  0.2937 -0.8795
11161SOL     OW37270   3.769   1.992   8.553  0.2546 -0.2898  0.1705
11161SOL    HW137271   3.817   1.933   8.611  0.6583  0.1768  0.3244
11161SOL    HW237272   3.704   2.034   8.609  0.1160 -0.4241  0.1101
11162SOL     OW37273   0.261   9.260   3.076 -0.6795 -0.1686 -0.4057
11162SOL    HW137274   0.178   9.297   3.047 -0.3838 -0.5487 -1.8130
11162SOL    HW237275   0.300   9.223   2.997  0.4819 -0.6756  0.3724
11163SOL     OW37276   2.304   7.952  10.147 -0.1233 -0.1835  0.3870
11163SOL    HW137277   2.346   8.036  10.167 -1.3179  0.9911 -1.7317
11163SOL    HW237278   2.213   7.963  10.177 -0.6327 -0.2001 -1.0771
11164SOL     OW37279   0.889   4.957   2.309  0.1588  0.6960  0.0254
11164SOL    HW137280   0.925   4.997   2.388  0.7868 -0.4773  0.3491
11164SOL    HW237281   0.955   4.973   2.241  0.6990 -0.2806  0.2995
11165SOL     OW37282   0.722   5.088   7.322 -0.1181  0.0419  0.2735
11165SOL    HW137283   0.698   4.995   7.322 -1.4134  0.2882  2.9645
11165SOL    HW237284   0.649   5.132   7.278 -0.0818 -0.0743  0.0928
11166SOL     OW37285   2.889   5.075   5.913 -0.1079 -0.8230  0.3161
11166SOL    HW137286   2.806   5.068   5.961 -0.2452  1.3414  0.5295
11166SOL    HW237287   2.868   5.130   5.838  1.2309  0.2409  0.6789
11167SOL     OW37288   8.430   6.721   0.842 -0.5487  0.8126 -0.9231
11167SOL    HW137289   8.397   6.669   0.769 -1.9225  1.3162 -0.6919
11167SOL    HW237290   8.378   6.693   0.917  1.2905 -0.1792  0.0626
11168SOL     OW37291   3.838   3.054   4.717  0.8009  0.2290 -0.9472
11168SOL    HW137292   3.858   3.012   4.633 -0.1758 -1.3046 -0.4584
11168SOL    HW237293   3.896   3.011   4.780 -0.0361 -0.2413 -0.4791
11169SOL     OW37294   6.791   6.852   9.643  0.1929  0.3024 -0.5616
11169SOL    HW137295   6.880   6.826   9.623  0.4377  0.6606  0.0308
11169SOL    HW237296   6.797   6.946   9.663 -0.1695  0.1612  0.2735
11170SOL     OW37297  10.176   2.289   7.569 -0.1588  0.3238 -0.4891
11170SOL    HW137298  10.096   2.290   7.623 -0.5277 -1.0305 -0.9738
11170SOL    HW237299  10.239   2.341   7.619 -0.9457  0.3317  0.5346
11171SOL     OW37300   1.676   2.858   8.057 -0.1516  0.3686  1.3413
11171SOL    HW137301   1.652   2.777   8.102 -0.3385 -0.1624  0.3361
11171SOL    HW237302   1.718   2.829   7.976 -2.2106  1.1997 -0.1338
11172SOL     OW37303   4.212   7.651   2.447 -0.1075 -0.1367 -0.1745
11172SOL    HW137304   4.289   7.596   2.435 -0.9323 -1.7039  1.3572
11172SOL    HW237305   4.141   7.604   2.403 -0.6653  0.1115  0.4419
11173SOL     OW37306   7.783   0.749   0.695  0.8434 -0.1491  0.7284
11173SOL    HW137307   7.762   0.764   0.603 -1.3527 -1.4264  0.9406
11173SOL    HW237308   7.854   0.810   0.714  1.1582  0.3386 -1.7226
11174SOL     OW37309   4.781   3.099   8.391  0.0946 -0.2222 -0.5054
11174SOL    HW137310   4.837   3.057   8.325 -0.1241 -0.8288 -0.3161
11174SOL    HW237311   4.701   3.120   8.343 -0.6449 -1.9857 -0.1313
11175SOL     OW37312   2.141   3.188   0.151  0.3272  0.2701  0.0269
11175SOL    HW137313   2.150   3.187   0.056  1.4732  1.4459  0.0916
11175SOL    HW237314   2.104   3.102   0.172  3.0925 -1.3976 -1.2317
11176SOL     OW37315   4.223  10.321   1.274 -0.0350  0.3003 -0.5919
11176SOL    HW137316   4.261  10.262   1.210 -0.7206 -0.2017 -0.5531
11176SOL    HW237317   4.220  10.269   1.355  2.6266  1.5408  0.4105
11177SOL     OW37318   4.647   5.838   8.146 -0.6914  0.7143  0.1310
11177SOL    HW137319   4.675   5.753   8.113  2.3728  1.7600 -0.3124
11177SOL    HW237320   4.576   5.865   8.088 -0.9773 -1.0530 -0.3758
11178SOL     OW37321   4.624  10.339   5.174 -0.0433  0.1708  0.2354
11178SOL    HW137322   4.575  10.402   5.226  2.3650  1.3783  1.1872
11178SOL    HW237323   4.573  10.329   5.094 -1.9279  1.1346  1.2636
11179SOL     OW37324   2.197   1.667   0.583 -0.1569  0.0111 -0.4234
11179SOL    HW137325   2.227   1.757   0.594 -0.0355 -0.0917  0.0761
11179SOL    HW237326   2.213   1.625   0.667 -3.2032  0.3930  0.4618
11180SOL     OW37327   4.912   0.161   6.402 -0.7377  0.0411  0.4142
11180SOL    HW137328   4.817   0.170   6.416 -0.4394  1.4975  1.8028
11180SOL    HW237329   4.940   0.098   6.469 -0.8363 -1.2543 -0.7024
11181SOL     OW37330   1.578   6.176   4.848 -0.2917  0.4188  0.2125
11181SOL    HW137331   1.527   6.110   4.895  1.7947  0.2337  2.3439
11181SOL    HW237332   1.529   6.258   4.862 -1.5079 -0.1850 -0.2837
11182SOL     OW37333   7.002   8.559   9.837 -0.0311 -0.0900  0.3277
11182SOL    HW137334   7.028   8.481   9.788 -1.0310 -0.9089  1.0736
11182SOL    HW237335   6.958   8.614   9.772 -1.3467 -1.1652  0.2875
11183SOL     OW37336   0.483   8.425   4.272 -0.4590  0.6860  0.1310
11183SOL    HW137337   0.515   8.478   4.344 -0.1030 -1.5785  1.7460
11183SOL    HW237338   0.390   8.413   4.290 -0.7933  1.6677 -0.8546
11184SOL     OW37339   1.573   6.088   3.564  0.2299 -0.1531  0.0412
11184SOL    HW137340   1.653   6.102   3.513 -0.8088 -0.0158 -1.6213
11184SOL    HW237341   1.549   6.176   3.595 -1.1078  0.4342 -2.3945
11185SOL     OW37342   5.012   9.115   2.612 -0.4206 -0.6899 -0.0265
11185SOL    HW137343   5.009   9.067   2.696  0.6483 -0.4699  0.1436
11185SOL    HW237344   5.079   9.070   2.561  0.3878  0.4342  0.0203
11186SOL     OW37345   7.872   8.428   7.727 -0.4463 -0.1846 -0.0106
11186SOL    HW137346   7.916   8.472   7.654  4.0052 -1.2065  1.7484
11186SOL    HW237347   7.855   8.339   7.695  2.4091 -0.9472  0.3351
11187SOL     OW37348   7.421   8.114   9.902 -0.0073 -0.2720  0.1067
11187SOL    HW137349   7.431   8.135   9.995 -2.1825  0.9587  0.1439
11187SOL    HW237350   7.375   8.030   9.902 -0.0792 -0.2339  0.1634
11188SOL     OW37351   3.103   2.156   3.085 -0.0769  0.2270  0.5834
11188SOL    HW137352   3.037   2.097   3.121 -1.7532  1.4897 -0.2895
11188SOL    HW237353   3.165   2.098   3.040 -3.8064 -0.9095 -3.8361
11189SOL     OW37354   2.649   4.440   0.328 -0.2365 -0.5155  0.3282
11189SOL    HW137355   2.627   4.464   0.238  1.5941  0.9346  0.1949
11189SOL    HW237356   2.603   4.504   0.382  0.7244  0.2936  0.2339
11190SOL     OW37357   7.518   9.874  10.322 -0.3317 -0.7649  0.0793
11190SOL    HW137358   7.484   9.879  10.232 -1.8601 -0.9665  0.6195
11190SOL    HW237359   7.532   9.781  10.337  0.2919 -0.7019 -0.0577
11191SOL     OW37360   6.563   6.120   8.583  0.6356  0.0103 -0.2718
11191SOL    HW137361   6.606   6.205   8.578 -0.5987  0.6527 -0.4262
11191SOL    HW237362   6.550   6.094   8.492 -1.5595  1.0442 -0.3147
11192SOL     OW37363   6.754   3.045   0.184  0.3589  0.3385  0.0516
11192SOL    HW137364   6.694   3.040   0.109 -0.0952 -0.3226  0.4501
11192SOL    HW237365   6.830   2.993   0.156  0.4692  0.6260 -0.1944
11193SOL     OW37366   0.907  10.270   8.510 -0.1859 -0.6005 -0.0622
11193SOL    HW137367   0.815  10.293   8.510  0.0326  0.4609 -1.8213
11193SOL    HW237368   0.919  10.219   8.430  1.3021  1.9955 -1.6432
11194SOL     OW37369   9.740   1.429   4.884 -0.8450  0.1970 -0.0561
11194SOL    HW137370   9.664   1.372   4.898  0.6119 -1.9065 -0.2210
11194SOL    HW237371   9.792   1.420   4.964  0.1861  0.0128 -0.7269
11195SOL     OW37372   0.588   6.520   3.582  0.1755 -0.5570 -0.3733
11195SOL    HW137373   0.604   6.615   3.574  2.3370 -0.8703 -0.4233
11195SOL    HW237374   0.588   6.504   3.676  2.1812 -0.7975 -0.3684
11196SOL     OW37375   2.770   6.054   6.692 -0.0374  0.1364 -0.5444
11196SOL    HW137376   2.741   6.009   6.772  1.2100 -3.1243 -1.7622
11196SOL    HW237377   2.710   6.023   6.624  0.6649  0.6242 -1.4016
11197SOL     OW37378  10.267   2.875   5.673 -0.0982  0.1910  0.6281
11197SOL    HW137379  10.325   2.850   5.601 -2.6035  0.0413 -1.4764
11197SOL    HW237380  10.251   2.794   5.721  0.9108  0.1296  0.8902
11198SOL     OW37381   0.357   6.712  10.296  0.0431 -0.4841  0.6400
11198SOL    HW137382   0.358   6.767  10.374  0.9904  2.3244 -1.2090
11198SOL    HW237383   0.265   6.688  10.284 -0.3139  0.2259  1.8362
11199SOL     OW37384   6.773  10.118   4.893  0.1783  0.4496  0.0551
11199SOL    HW137385   6.827  10.186   4.851 -2.0807  2.9905  1.0002
11199SOL    HW237386   6.808  10.112   4.982 -0.9953  2.1332  0.6840
11200SOL     OW37387   5.601   2.908   1.946 -0.2182 -0.3246 -0.0549
11200SOL    HW137388   5.559   2.823   1.931 -0.4877 -0.4016  1.0324
11200SOL    HW237389   5.533   2.972   1.925 -0.1971 -0.3904 -0.3277
11201SOL     OW37390   5.497   9.168   7.916 -0.5652  0.1702  0.1146
11201SOL    HW137391   5.551   9.208   7.848 -1.1538  0.5049 -0.1684
11201SOL    HW237392   5.501   9.229   7.989 -0.5720  0.2031  0.0880
11202SOL     OW37393   4.440  10.023   7.540  0.2167  0.0917 -0.0569
11202SOL    HW137394   4.489  10.073   7.475  0.4415  0.1760  0.1728
11202SOL    HW237395   4.409   9.945   7.494  1.1443 -0.3022 -0.0341
11203SOL     OW37396   7.459   0.976   1.131 -0.5675  0.2486 -0.6936
11203SOL    HW137397   7.506   0.907   1.177 -0.6447 -0.0849 -1.1101
11203SOL    HW237398   7.399   1.012   1.196 -0.8527 -0.3899 -0.5953
11204SOL     OW37399   7.431   4.118   8.387 -0.4991 -0.3586  0.4088
11204SOL    HW137400   7.446   4.142   8.296  1.4578 -0.2138  0.7289
11204SOL    HW237401   7.380   4.191   8.422 -2.5939 -1.1213 -0.9050
11205SOL     OW37402   1.662   2.479   3.235  0.0691 -0.4703 -0.1248
11205SOL    HW137403   1.679   2.531   3.157  1.4942 -0.0912  0.4031
11205SOL    HW237404   1.661   2.389   3.204 -0.8071 -0.2409 -0.7938
11206SOL     OW37405   8.962   6.175   6.408 -0.5982  0.5632  0.5581
11206SOL    HW137406   8.945   6.109   6.475 -1.2539  0.2686  0.1148
11206SOL    HW237407   9.047   6.150   6.371 -1.1754 -0.4673 -0.1033
11207SOL     OW37408   6.003   5.388   7.768 -0.0836  0.1268  0.0704
11207SOL    HW137409   5.918   5.350   7.788  0.0143 -0.0406  0.1756
11207SOL    HW237410   6.039   5.413   7.853  0.8117 -1.6176  0.2505
11208SOL     OW37411   3.898  10.078   7.345 -0.3313 -0.3666 -0.1573
11208SOL    HW137412   3.863  10.013   7.283 -0.9342 -1.5111  1.3228
11208SOL    HW237413   3.970  10.032   7.389 -1.1980 -0.3137  1.3895
11209SOL     OW37414   3.520   5.359   2.855 -0.1523 -0.3097 -0.1933
11209SOL    HW137415   3.453   5.403   2.803  0.3842 -1.1937 -1.6826
11209SOL    HW237416   3.590   5.424   2.863 -0.1441 -0.2453 -0.7646
11210SOL     OW37417   6.531   9.918   8.071  0.4970 -0.1948  0.1621
11210SOL    HW137418   6.477   9.845   8.101  1.3457 -1.1369 -0.5390
11210SOL    HW237419   6.480   9.996   8.093  1.4091 -0.6490  4.9207
11211SOL     OW37420   5.221   1.685   1.370 -0.4592  0.2112  0.1734
11211SOL    HW137421   5.243   1.641   1.288 -0.6856  1.9218 -0.8588
11211SOL    HW237422   5.295   1.666   1.428 -0.2618 -0.9684 -0.4304
11212SOL     OW37423   9.762   5.535   8.320 -0.4291  0.3810 -0.2059
11212SOL    HW137424   9.666   5.534   8.315 -0.4003  0.3006 -0.9296
11212SOL    HW237425   9.786   5.449   8.352 -0.4861 -0.8464 -3.1438
11213SOL     OW37426   1.857   5.556   4.973 -0.0600 -0.3093  0.3204
11213SOL    HW137427   1.856   5.463   4.996 -1.0790 -0.2791  0.4646
11213SOL    HW237428   1.771   5.588   5.001 -0.9397  0.0108 -2.4569
11214SOL     OW37429   0.518   4.306   8.293  0.9672  0.1490  0.0971
11214SOL    HW137430   0.520   4.371   8.222  1.8155 -0.3158 -0.3166
11214SOL    HW237431   0.518   4.359   8.373  2.3488  0.6872 -0.2208
11215SOL     OW37432   8.483   7.311   5.754 -0.3665  0.2956 -0.2806
11215SOL    HW137433   8.578   7.315   5.750 -0.4448  2.0948 -1.9551
11215SOL    HW237434   8.464   7.225   5.792  1.9056 -0.1122  0.0709
11216SOL     OW37435   6.860   7.032  10.306  0.5998 -0.1843 -0.0724
11216SOL    HW137436   6.934   7.093  10.297  0.5546 -0.2531 -1.0286
11216SOL    HW237437   6.884   6.977  10.380  1.2224  0.2033  0.0247
11217SOL     OW37438   0.230   2.748   2.256  0.0221 -0.4648 -0.0612
11217SOL    HW137439   0.234   2.657   2.286  0.1765 -0.5471 -0.3224
11217SOL    HW237440   0.138   2.761   2.232  0.1448 -0.8043 -0.7646
11218SOL     OW37441   4.784   1.449   2.227 -0.4241  0.2471  0.4478
11218SOL    HW137442   4.776   1.362   2.265 -0.2411  0.5599  1.2211
11218SOL    HW237443   4.716   1.453   2.160  0.4880 -0.9867 -0.5934
11219SOL     OW37444   8.350   4.399   8.725 -0.4349 -0.4675 -0.2490
11219SOL    HW137445   8.274   4.357   8.765 -0.5217 -0.3122 -0.2505
11219SOL    HW237446   8.411   4.413   8.797 -0.6118 -0.1424 -0.1578
11220SOL     OW37447   9.956   5.134   7.456  0.2422 -0.5901 -0.9118
11220SOL    HW137448  10.009   5.181   7.390  0.2836  0.8891  0.1287
11220SOL    HW237449   9.877   5.187   7.465  0.0480 -1.0074 -0.0784
11221SOL     OW37450   4.741   1.191   2.329 -0.4241 -0.4706 -0.5873
11221SOL    HW137451   4.681   1.192   2.255  0.7163 -0.2561 -1.5421
11221SOL    HW237452   4.715   1.115   2.380 -2.0747  0.1281 -0.4731
11222SOL     OW37453   9.212   2.805   6.521 -0.0506 -0.4856  0.1643
11222SOL    HW137454   9.287   2.859   6.545  0.2369 -0.7853 -0.0542
11222SOL    HW237455   9.251   2.727   6.480 -0.5665  0.4518 -2.2224
11223SOL     OW37456   3.806   3.841   2.464  0.1594  0.0185 -0.1114
11223SOL    HW137457   3.853   3.924   2.453 -1.0575  0.6402 -0.8800
11223SOL    HW237458   3.868   3.775   2.434  1.0984  0.6564  0.3628
11224SOL     OW37459   0.901   6.440   5.434  0.7330  0.1029 -0.4371
11224SOL    HW137460   0.816   6.479   5.413  0.5882 -1.5303 -3.4672
11224SOL    HW237461   0.956   6.460   5.358  2.4931 -0.4921  0.6149
11225SOL     OW37462   3.608   5.293   2.109 -0.0399  0.0689 -0.5899
11225SOL    HW137463   3.520   5.322   2.135  0.7947  0.7766  1.6403
11225SOL    HW237464   3.594   5.204   2.075 -1.6017  0.1169 -0.1600
11226SOL     OW37465   6.299   5.649   9.350  0.3557  0.4631  0.3434
11226SOL    HW137466   6.275   5.725   9.298 -1.4484 -1.5198 -1.9486
11226SOL    HW237467   6.219   5.627   9.399  0.5415 -0.4946  0.2339
11227SOL     OW37468   7.705   3.811   4.429  0.2532  0.5840 -0.3915
11227SOL    HW137469   7.614   3.839   4.429 -0.5153 -1.6760  0.7861
11227SOL    HW237470   7.715   3.763   4.347 -0.9010 -2.5436  1.0873
11228SOL     OW37471   4.703   2.204   5.022 -0.3177 -0.5740  0.1564
11228SOL    HW137472   4.680   2.270   5.087 -0.7046 -0.7132  0.1636
11228SOL    HW237473   4.718   2.124   5.072  1.9632 -0.0923  0.3526
11229SOL     OW37474   2.684   2.997   6.691 -0.1428  0.8896  0.5831
11229SOL    HW137475   2.740   3.047   6.632  2.2689  0.2683  2.1986
11229SOL    HW237476   2.740   2.979   6.767 -2.3863 -0.2926  2.0490
11230SOL     OW37477   7.430  10.085   0.088 -0.0698 -0.2440 -0.0024
11230SOL    HW137478   7.478  10.151   0.038  0.8179 -0.3800  0.6486
11230SOL    HW237479   7.460  10.001   0.053  0.8372 -0.3487  0.9769
11231SOL     OW37480   1.119   3.336   6.526  0.3957  0.2777  0.5086
11231SOL    HW137481   1.190   3.356   6.465 -0.0064 -0.1343 -0.1090
11231SOL    HW237482   1.107   3.416   6.576  0.3283  0.8356 -0.3682
11232SOL     OW37483   5.631   0.200   9.586 -0.5129 -0.2596  0.0713
11232SOL    HW137484   5.601   0.264   9.521  1.8892 -0.6194 -1.5308
11232SOL    HW237485   5.722   0.223   9.601 -0.6916 -0.9127  2.5382
11233SOL     OW37486   7.330  10.086   5.629 -0.2887 -0.6875  0.0189
11233SOL    HW137487   7.411  10.122   5.595 -0.9593 -0.1409 -1.0450
11233SOL    HW237488   7.312  10.009   5.574 -2.0683  0.9584 -1.8675
11234SOL     OW37489   6.605   8.785   7.900 -0.1428  0.3746 -0.3740
11234SOL    HW137490   6.600   8.825   7.987 -0.8757 -0.7152  0.1118
11234SOL    HW237491   6.515   8.761   7.879  0.1695 -0.3373 -0.9637
11235SOL     OW37492   5.240   7.079   8.242 -0.5879  0.4237  0.5911
11235SOL    HW137493   5.320   7.085   8.293  0.0545 -2.1324  0.0188
11235SOL    HW237494   5.178   7.032   8.299 -0.1034 -1.7730 -0.5669
11236SOL     OW37495   6.761   5.820   1.627 -0.1240  0.3432  0.1887
11236SOL    HW137496   6.810   5.878   1.685 -0.0735  1.7852 -1.2237
11236SOL    HW237497   6.828   5.775   1.575 -0.1990 -0.3832  0.6984
11237SOL     OW37498   5.770   5.631   5.104 -0.1212  0.1579 -0.1030
11237SOL    HW137499   5.852   5.613   5.058  0.1863  0.6924  0.2215
11237SOL    HW237500   5.702   5.615   5.039  0.2031 -0.8914 -0.1950
11238SOL     OW37501   5.608   0.124   3.903  0.0332 -0.3244 -0.5338
11238SOL    HW137502   5.613   0.132   3.999 -0.5934  1.9207 -0.6408
11238SOL    HW237503   5.579   0.210   3.873  1.4965 -0.5550 -2.8625
11239SOL     OW37504   1.755   9.170  10.358 -0.3151  0.3564 -0.1942
11239SOL    HW137505   1.821   9.190  10.424  0.3822  0.7257 -0.9790
11239SOL    HW237506   1.803   9.127  10.288 -1.2064 -0.9303 -0.0644
11240SOL     OW37507   1.988   4.240   3.837 -0.1357  0.1287 -0.1085
11240SOL    HW137508   1.954   4.324   3.806  0.9017  0.4036 -0.5623
11240SOL    HW237509   2.064   4.223   3.781 -0.7970 -1.5218 -0.5875
11241SOL     OW37510   0.042   8.765   7.756 -0.5143  0.0324 -0.0069
11241SOL    HW137511   0.019   8.773   7.664  0.5055  0.7545 -0.2216
11241SOL    HW237512  -0.035   8.797   7.803 -1.0935 -0.4696 -0.5916
11242SOL     OW37513   0.674   5.061   7.592  0.1252 -0.4057 -0.0122
11242SOL    HW137514   0.718   5.085   7.511 -0.5497  0.4074 -0.1552
11242SOL    HW237515   0.609   4.996   7.566 -0.6059  0.4038 -0.2711
11243SOL     OW37516   9.807   0.877   9.227 -0.0097 -0.2058 -0.0334
11243SOL    HW137517   9.779   0.969   9.225 -1.4977 -0.5953  1.1521
11243SOL    HW237518   9.825   0.859   9.319  1.1969 -0.8755 -0.3678
11244SOL     OW37519   2.901   8.345   8.639  0.6731  0.3681 -0.4731
11244SOL    HW137520   2.991   8.376   8.628  0.9213 -0.1010  0.2229
11244SOL    HW237521   2.907   8.272   8.700 -0.1743  0.2873 -0.4688
11245SOL     OW37522   7.032   6.236   8.744  0.2344 -0.5103 -1.0239
11245SOL    HW137523   6.952   6.239   8.796  1.7739  0.2307  1.4791
11245SOL    HW237524   7.016   6.297   8.672 -1.0336  0.5275  0.0781
11246SOL     OW37525   9.968   3.149   4.700 -0.2170  0.0487  0.1321
11246SOL    HW137526  10.020   3.077   4.666 -1.0505 -0.0267 -1.0612
11246SOL    HW237527   9.879   3.114   4.706  0.0588 -0.5159  4.1318
11247SOL     OW37528   8.284   8.035   3.936 -0.2381  0.3529  0.0828
11247SOL    HW137529   8.282   8.072   3.848  0.4288  0.6684  0.1937
11247SOL    HW237530   8.257   7.944   3.925 -2.6797  1.0321 -0.0909
11248SOL     OW37531   5.871   1.285   9.337 -0.1237 -0.0572 -0.5061
11248SOL    HW137532   5.950   1.266   9.388 -0.7439 -1.9103 -0.1952
11248SOL    HW237533   5.815   1.334   9.397  1.6706  3.5235 -1.4629
11249SOL     OW37534   9.602   3.390   6.399  0.1942 -0.2930  0.5995
11249SOL    HW137535   9.534   3.325   6.384  0.4125 -0.8708  1.9274
11249SOL    HW237536   9.576   3.433   6.481  1.8794 -1.1939  1.6751
11250SOL     OW37537   1.153   5.736   1.478  0.1172 -0.4010  0.3824
11250SOL    HW137538   1.208   5.806   1.444 -0.6448  0.3173  0.5941
11250SOL    HW237539   1.154   5.749   1.573 -2.0163  0.8885  0.2896
11251SOL     OW37540   2.288   4.447   9.501  0.2899  0.1006 -0.1813
11251SOL    HW137541   2.337   4.408   9.428  0.3711  1.0695 -0.6590
11251SOL    HW237542   2.204   4.472   9.464 -0.1895 -0.5909  0.3917
11252SOL     OW37543   6.727   4.852   6.973 -0.1527 -0.0129 -0.3141
11252SOL    HW137544   6.727   4.939   6.932 -1.2640  0.2860  0.2598
11252SOL    HW237545   6.772   4.796   6.911  0.8638  1.0357 -0.5658
11253SOL     OW37546   9.621   7.137   1.634  0.2938  0.4926 -0.0018
11253SOL    HW137547   9.630   7.213   1.691 -0.2853  1.1408 -0.7614
11253SOL    HW237548   9.574   7.169   1.557 -0.5472 -0.7788 -0.0480
11254SOL     OW37549   0.495   3.405   5.247  0.6639 -0.4517 -0.2134
11254SOL    HW137550   0.425   3.461   5.212  1.1187  0.2530 -0.0003
11254SOL    HW237551   0.549   3.464   5.299 -0.1873 -1.5263  1.9991
11255SOL     OW37552   6.117  10.058   2.782  0.4413 -0.0450 -0.2826
11255SOL    HW137553   6.113  10.107   2.700  0.7213 -3.3684 -2.4847
11255SOL    HW237554   6.025  10.043   2.805  0.3362  1.9194  0.7930
11256SOL     OW37555   8.299   8.553   5.290 -0.2270 -0.6070  0.1847
11256SOL    HW137556   8.274   8.540   5.199  0.5826 -1.8707  0.1097
11256SOL    HW237557   8.263   8.477   5.336 -0.5991 -0.0006  0.9224
11257SOL     OW37558   1.681   8.581   5.733 -0.2688  0.1833  0.0476
11257SOL    HW137559   1.634   8.524   5.672 -1.0751 -0.7796  1.4936
11257SOL    HW237560   1.630   8.576   5.814  2.1900 -0.7167  1.6530
11258SOL     OW37561   3.326   6.584   6.800  0.0737 -0.2293 -0.3276
11258SOL    HW137562   3.385   6.646   6.843 -0.6654  0.7474 -0.7092
11258SOL    HW237563   3.382   6.509   6.780  0.2152 -1.3896  3.5538
11259SOL     OW37564   1.688   0.285   7.497  0.1864  0.3322  0.0073
11259SOL    HW137565   1.629   0.357   7.519  0.0243 -0.4310  2.2933
11259SOL    HW237566   1.632   0.208   7.491  0.5401  0.1368 -1.1527
11260SOL     OW37567   8.007   4.436   8.610  0.2268  0.0206 -0.1905
11260SOL    HW137568   7.918   4.471   8.605  0.1549 -0.0718  0.3800
11260SOL    HW237569   8.058   4.507   8.650  0.0523 -0.5447  1.1082
11261SOL     OW37570   2.412   2.934   1.548  0.6638  0.3727  0.5598
11261SOL    HW137571   2.433   2.851   1.506  0.9919  0.6174  0.2434
11261SOL    HW237572   2.316   2.940   1.543  0.6710  0.1955  0.2434
11262SOL     OW37573   7.684   8.873   1.714 -0.2307  0.4216 -0.2310
11262SOL    HW137574   7.685   8.951   1.659  3.4033  2.2054  1.9719
11262SOL    HW237575   7.609   8.885   1.772 -0.3535  1.7477 -0.6407
11263SOL     OW37576   3.110   3.029   4.031 -0.3033 -0.0491  0.4853
11263SOL    HW137577   3.103   2.938   4.059 -0.6238 -0.1181  0.1964
11263SOL    HW237578   3.020   3.062   4.033 -0.2904  0.0383 -0.1320
11264SOL     OW37579   1.428   0.425   7.859 -0.1334 -0.4289 -0.4200
11264SOL    HW137580   1.365   0.455   7.794  0.9721  2.9127 -0.1483
11264SOL    HW237581   1.507   0.405   7.808 -0.0347 -0.2215 -0.3502
11265SOL     OW37582   8.223   6.855   7.818  0.3286 -0.1909  0.2632
11265SOL    HW137583   8.255   6.935   7.860 -2.0022 -0.7099  3.3336
11265SOL    HW237584   8.297   6.794   7.825  1.4463  1.0357 -0.3310
11266SOL     OW37585   1.298  10.076   3.870  0.0520  0.3087 -0.5915
11266SOL    HW137586   1.272  10.130   3.795 -0.8967  0.2218 -0.3362
11266SOL    HW237587   1.216  10.037   3.901  0.4852  0.0731  0.2821
11267SOL     OW37588   1.590   8.206   7.000  0.5348  0.4793  0.0669
11267SOL    HW137589   1.666   8.203   7.057  1.7585  1.2350 -1.4359
11267SOL    HW237590   1.557   8.295   7.008 -0.0494  0.2321  0.5066
11268SOL     OW37591   1.283   9.490   0.847  0.4052 -0.0396  0.0003
11268SOL    HW137592   1.292   9.398   0.870  1.4732  0.2224  0.7548
11268SOL    HW237593   1.236   9.529   0.921 -1.2858 -0.2015 -0.9449
11269SOL     OW37594   2.561   4.564   9.923  0.4608  0.0083  0.6632
11269SOL    HW137595   2.613   4.576  10.003  0.4421 -0.6055  0.7721
11269SOL    HW237596   2.473   4.546   9.954  0.3248  0.3666  0.4892
11270SOL     OW37597   7.611   6.770   0.254 -0.4991 -0.5002 -0.0691
11270SOL    HW137598   7.617   6.769   0.158 -2.0771 -3.6443 -0.2724
11270SOL    HW237599   7.668   6.698   0.281  0.2389  0.6056  1.4475
11271SOL     OW37600  10.091   6.558   3.454 -0.0147 -0.0789  0.2088
11271SOL    HW137601  10.170   6.526   3.411 -0.3517 -0.6405 -0.0032
11271SOL    HW237602  10.099   6.527   3.544  0.1255  0.0812  0.2518
11272SOL     OW37603   1.422   7.396   7.813  0.4639  0.9323 -0.0956
11272SOL    HW137604   1.336   7.403   7.854  0.7398  0.9827  0.4929
11272SOL    HW237605   1.480   7.371   7.885  1.1154  1.8846 -0.2784
11273SOL     OW37606   7.147   6.584   4.343  0.0218  0.3579  0.2233
11273SOL    HW137607   7.119   6.583   4.435 -0.3893 -1.4995  0.1146
11273SOL    HW237608   7.236   6.619   4.345  0.2497 -0.2459  1.4217
11274SOL     OW37609   5.976   0.690   6.124 -0.0474  0.3076  0.0489
11274SOL    HW137610   6.034   0.758   6.158 -0.2098  0.0076  0.9657
11274SOL    HW237611   5.889   0.715   6.155  0.1687 -1.4052  2.2425
11275SOL     OW37612   2.808   1.402   4.612 -0.6813 -1.4003  0.2318
11275SOL    HW137613   2.868   1.364   4.549 -0.7433 -1.1340  0.0075
11275SOL    HW237614   2.749   1.456   4.559  1.2121  1.4435  0.7556
11276SOL     OW37615  10.041   2.923   9.015 -0.1298  0.5117 -0.7552
11276SOL    HW137616  10.103   2.855   9.039 -2.7590 -1.5166  0.7265
11276SOL    HW237617  10.025   2.909   8.921  0.1310 -0.2370 -0.6925
11277SOL     OW37618   3.427   3.471   3.578  0.4525 -0.0777 -0.0158
11277SOL    HW137619   3.468   3.467   3.491  0.0213  1.1267 -0.2890
11277SOL    HW237620   3.429   3.563   3.601  1.5591 -0.4930  1.7727
11278SOL     OW37621   9.330   8.443   6.517 -0.0347 -0.0492 -0.7225
11278SOL    HW137622   9.315   8.534   6.492  1.3086  0.7181  1.1236
11278SOL    HW237623   9.334   8.444   6.612 -1.8961 -2.3719 -0.5279
11279SOL     OW37624   4.285   3.664   1.614  0.6097  0.3751  0.0654
11279SOL    HW137625   4.284   3.573   1.645  2.1771 -0.4873 -2.1148
11279SOL    HW237626   4.341   3.661   1.536 -1.8079  2.6127 -1.9249
11280SOL     OW37627   1.644   8.345   0.679  0.3851 -0.9495 -0.3165
11280SOL    HW137628   1.687   8.273   0.725 -0.0928  0.4587  2.5594
11280SOL    HW237629   1.707   8.370   0.611  2.6408 -1.1311  1.5821
11281SOL     OW37630   9.292   7.442   3.874 -0.5014 -0.9074 -0.1479
11281SOL    HW137631   9.213   7.399   3.842 -1.0435  0.6625 -1.0317
11281SOL    HW237632   9.353   7.438   3.800 -0.3467 -0.6884 -0.0348
11282SOL     OW37633   2.721   2.085   3.351 -0.8160 -0.3415 -0.1296
11282SOL    HW137634   2.658   2.018   3.325 -2.8835  2.1595 -2.1255
11282SOL    HW237635   2.685   2.121   3.432  0.8208 -2.1338  1.5034
11283SOL     OW37636   8.427   2.322   6.710  0.3537 -0.1498  0.4312
11283SOL    HW137637   8.490   2.391   6.690 -0.1537 -0.0451 -0.8422
11283SOL    HW237638   8.481   2.252   6.747  1.1412  0.1880 -0.0413
11284SOL     OW37639   0.198   8.254   5.877 -0.1960 -0.2492 -0.2418
11284SOL    HW137640   0.207   8.195   5.801 -0.4301 -0.6711  0.0542
11284SOL    HW237641   0.287   8.287   5.892 -0.3237  0.6723 -1.3508
11285SOL     OW37642   3.125   5.371   9.207 -0.4412  0.4295  0.1286
11285SOL    HW137643   3.170   5.293   9.176  0.4003  0.1641  1.8476
11285SOL    HW237644   3.138   5.436   9.139  0.6584 -0.3210 -0.4020
11286SOL     OW37645   3.271   8.217   2.705  0.0588 -0.4466 -0.5126
11286SOL    HW137646   3.331   8.259   2.643 -0.6485  1.6088  0.1198
11286SOL    HW237647   3.199   8.186   2.650  0.2357 -0.1686 -0.9089
11287SOL     OW37648   6.835   1.714   8.161  0.4684  0.3312  0.1613
11287SOL    HW137649   6.910   1.766   8.190  0.7200 -0.4690  0.9615
11287SOL    HW237650   6.805   1.668   8.239 -1.0630  0.8682 -0.0719
11288SOL     OW37651   2.870   4.986   0.805 -0.2370  0.2289 -0.4390
11288SOL    HW137652   2.839   5.073   0.781 -1.3190  0.3729  1.3015
11288SOL    HW237653   2.829   4.927   0.742  1.7527  1.0460 -2.6494
11289SOL     OW37654   6.062   2.386   2.052 -0.1771  0.1620  0.9429
11289SOL    HW137655   5.971   2.395   2.025 -0.1476 -1.9463 -0.0656
11289SOL    HW237656   6.072   2.292   2.071  1.3994  0.5858  2.5266
11290SOL     OW37657   7.678  10.146   1.410 -0.4255  0.1122  0.3458
11290SOL    HW137658   7.681  10.052   1.389  2.5125  0.0692  0.4893
11290SOL    HW237659   7.752  10.160   1.469  0.1395  2.7598 -0.8235
11291SOL     OW37660   1.323  10.201   4.988  0.1118 -0.0802  0.1020
11291SOL    HW137661   1.256  10.155   5.038  0.4653 -1.1575 -0.3817
11291SOL    HW237662   1.301  10.184   4.897  1.2613 -0.8156 -0.0639
11292SOL     OW37663   0.380   3.599   9.075  0.2627 -0.0439 -0.1630
11292SOL    HW137664   0.296   3.563   9.104  1.0578 -1.8517  0.0642
11292SOL    HW237665   0.416   3.531   9.018  1.4112  0.8596 -0.5579
11293SOL     OW37666   7.528   0.121   5.088 -0.0417  0.0857  0.2427
11293SOL    HW137667   7.537   0.184   5.016  0.2958  0.8142  0.9143
11293SOL    HW237668   7.437   0.128   5.115 -0.2719 -0.4707 -0.3554
11294SOL     OW37669   4.925   4.765   3.050 -0.0321 -0.2809  0.2866
11294SOL    HW137670   4.950   4.851   3.084  1.1859 -0.4841 -0.0377
11294SOL    HW237671   4.912   4.711   3.127 -0.6304  0.1362  0.4872
11295SOL     OW37672   1.106   0.330   0.605  0.0337  0.6132 -0.6591
11295SOL    HW137673   1.077   0.404   0.659  2.0878  1.4858 -0.6542
11295SOL    HW237674   1.084   0.253   0.656 -1.4096  1.2310 -0.2837
11296SOL     OW37675   0.923   4.855   6.930 -0.0073 -0.0305  0.4456
11296SOL    HW137676   0.862   4.863   6.856  1.5163  0.9316 -0.7780
11296SOL    HW237677   0.911   4.936   6.979 -0.1972 -0.1482  0.5943
11297SOL     OW37678   0.698   0.116   3.948 -0.3924 -0.5256  0.1346
11297SOL    HW137679   0.672   0.025   3.937 -0.0659 -0.5458 -0.5047
11297SOL    HW237680   0.781   0.112   3.995  0.6694 -0.6684 -1.6727
11298SOL     OW37681   2.948   4.366   5.143  0.1783  0.6279 -0.5562
11298SOL    HW137682   2.950   4.278   5.105  0.3358  0.5482 -0.3632
11298SOL    HW237683   2.939   4.351   5.237 -0.7565  0.8337 -0.6090
11299SOL     OW37684   8.295   7.202   3.918  0.2163 -0.3457 -0.1691
11299SOL    HW137685   8.281   7.296   3.906 -1.4640 -0.7531 -1.6196
11299SOL    HW237686   8.360   7.179   3.852 -1.1442 -0.6073 -1.4649
11300SOL     OW37687   5.873  10.188   4.124  0.5485  0.3411 -0.1743
11300SOL    HW137688   5.944  10.212   4.184  0.7914 -1.3085  0.2669
11300SOL    HW237689   5.881  10.249   4.051  0.2293  2.4190  1.4571
11301SOL     OW37690   4.800   7.665   3.220  0.1930 -0.1905 -0.5180
11301SOL    HW137691   4.880   7.695   3.262  0.8845 -1.5065 -0.8262
11301SOL    HW237692   4.746   7.744   3.213  0.9326  0.4824  0.8256
11302SOL     OW37693   7.402   0.706   1.561  0.6569 -0.0068 -0.3457
11302SOL    HW137694   7.396   0.800   1.573  3.1210  0.1489  0.1855
11302SOL    HW237695   7.347   0.688   1.484 -1.5781  1.4869  0.8061
11303SOL     OW37696   7.427   9.145   1.501 -0.4865  0.1912  0.2194
11303SOL    HW137697   7.418   9.062   1.547  1.2948 -0.2809 -0.1821
11303SOL    HW237698   7.393   9.128   1.413  3.1441 -1.3623 -1.0972
11304SOL     OW37699   1.928   6.563   0.080  0.1152  0.5447 -0.1287
11304SOL    HW137700   1.870   6.610   0.140  0.3511  1.5610 -0.6851
11304SOL    HW237701   1.887   6.477   0.070 -0.5872  0.7969  0.5153
11305SOL     OW37702   6.942   4.626   6.342  0.0932 -0.0966  0.6206
11305SOL    HW137703   6.973   4.675   6.266 -1.0165  0.3073  0.4161
11305SOL    HW237704   7.012   4.563   6.360  0.6189  0.1877 -0.3778
11306SOL     OW37705   7.254   0.980   9.469 -0.3637 -0.1137 -0.2618
11306SOL    HW137706   7.256   1.057   9.526  1.1266 -0.0459 -0.3577
11306SOL    HW237707   7.323   0.997   9.405  0.9692 -2.1327  0.5466
11307SOL     OW37708   2.398   6.536   2.103 -1.2744  0.6372  0.2405
11307SOL    HW137709   2.449   6.573   2.031  0.9340 -0.3984  1.1850
11307SOL    HW237710   2.446   6.562   2.182 -2.4239 -0.0684  1.2036
11308SOL     OW37711   5.399   7.295   8.972 -0.1173  0.3942  0.0683
11308SOL    HW137712   5.494   7.298   8.971  0.1693 -3.0475  1.8897
11308SOL    HW237713   5.372   7.344   8.894  3.1230  1.0199 -0.7845
11309SOL     OW37714   7.003   8.609   1.669  0.3770  0.3164 -0.1408
11309SOL    HW137715   6.971   8.530   1.713  2.1314 -0.3595  0.0001
11309SOL    HW237716   7.004   8.675   1.737  1.5720 -0.3090  0.4730
11310SOL     OW37717   0.726   6.184   3.691 -0.1626 -0.1388  0.1116
11310SOL    HW137718   0.707   6.193   3.598  1.4653  0.5076 -0.1813
11310SOL    HW237719   0.788   6.254   3.710 -0.1053 -0.5598  1.5832
11311SOL     OW37720   2.859   9.603   1.720  1.0123 -0.0337  0.0195
11311SOL    HW137721   2.886   9.517   1.688  1.4261  0.0413  0.1627
11311SOL    HW237722   2.765   9.594   1.736  0.9209 -0.2575 -0.6115
11312SOL     OW37723   0.349   7.171   9.980  0.4298  0.2362 -0.8271
11312SOL    HW137724   0.418   7.184  10.046 -0.0221 -0.7070 -0.1393
11312SOL    HW237725   0.340   7.256   9.937  0.5021  0.9825  0.5796
11313SOL     OW37726   3.771   1.104   1.006  0.2066 -0.3596  0.5660
11313SOL    HW137727   3.738   1.061   1.085 -1.0747  0.6034  0.5985
11313SOL    HW237728   3.709   1.079   0.938  1.8667 -2.0067 -0.4118
11314SOL     OW37729   5.987   9.582   3.502 -0.9732  0.3853  0.2621
11314SOL    HW137730   5.980   9.601   3.408 -1.8124  0.0690  0.2573
11314SOL    HW237731   6.013   9.490   3.506 -0.6242  0.4846  0.3421
11315SOL     OW37732   3.145   1.196   1.829  0.1599  0.2535  0.1292
11315SOL    HW137733   3.217   1.143   1.862 -0.2781 -0.6360 -0.2899
11315SOL    HW237734   3.175   1.228   1.745  0.0528 -0.1584 -0.0682
11316SOL     OW37735   5.098   2.002   6.724 -0.1231  0.3448 -0.0211
11316SOL    HW137736   5.125   2.060   6.795 -1.9623  0.0279  0.9888
11316SOL    HW237737   5.074   1.920   6.767  1.0079 -0.7218 -1.2824
11317SOL     OW37738   8.305   3.497   7.249 -0.2221 -0.1859 -0.1820
11317SOL    HW137739   8.277   3.564   7.311  1.9289 -1.5135  2.4952
11317SOL    HW237740   8.226   3.445   7.232 -1.2937  1.3775 -0.1225
11318SOL     OW37741   8.746   0.451   4.793  0.1200  0.6127  0.6384
11318SOL    HW137742   8.687   0.457   4.868  0.7553  1.4452  1.0776
11318SOL    HW237743   8.822   0.402   4.826  0.0463  0.2691  0.3050
11319SOL     OW37744   0.335   7.444   9.063  0.0341  0.0127  0.2292
11319SOL    HW137745   0.348   7.352   9.089  0.1722  0.2293  0.9696
11319SOL    HW237746   0.419   7.471   9.027  0.5250  0.3263  1.5634
11320SOL     OW37747  10.324   2.310   9.894  0.1553  0.1851  0.3218
11320SOL    HW137748  10.306   2.370   9.966  0.0276 -0.4685  0.8345
11320SOL    HW237749  10.257   2.331   9.829  0.9489  1.5390 -0.0963
11321SOL     OW37750   3.892   0.106   6.637 -0.5927  0.3367 -0.6521
11321SOL    HW137751   3.908   0.060   6.554  1.0195 -0.3957  0.0328
11321SOL    HW237752   3.842   0.044   6.690 -1.7221  0.8465 -1.0665
11322SOL     OW37753   7.380   9.709   8.205 -0.1681  0.2771 -0.0729
11322SOL    HW137754   7.463   9.744   8.235  0.3835  0.6669 -1.9761
11322SOL    HW237755   7.324   9.712   8.283  1.1045  1.4698  0.8462
11323SOL     OW37756   0.578   1.679   5.953  0.0514 -0.4410  0.0115
11323SOL    HW137757   0.562   1.707   6.043 -1.2792 -2.1402  0.3394
11323SOL    HW237758   0.492   1.659   5.918  0.7335 -2.1335 -0.8251
11324SOL     OW37759   6.530   7.919   9.102  0.1356  0.3500  0.2404
11324SOL    HW137760   6.507   7.864   9.177  1.0942 -0.8042 -0.2670
11324SOL    HW237761   6.611   7.880   9.068  0.3833  1.5844 -0.6643
11325SOL     OW37762   3.565   2.279   9.315  0.2204  0.3605 -0.2101
11325SOL    HW137763   3.648   2.305   9.356 -0.1006  0.4458  0.3993
11325SOL    HW237764   3.580   2.189   9.287  0.0955 -0.0792  1.0880
11326SOL     OW37765   9.970   4.785   0.897 -0.0757 -0.4797 -0.3189
11326SOL    HW137766   9.939   4.695   0.893 -2.3209  0.1189  1.3848
11326SOL    HW237767   9.933   4.826   0.819  1.3136 -1.0917 -1.3300
11327SOL     OW37768   2.591   3.258   2.350 -0.3218 -0.2554  0.5142
11327SOL    HW137769   2.627   3.170   2.356  1.0508  0.2775  0.4093
11327SOL    HW237770   2.514   3.249   2.294  0.0161 -1.3244  0.2067
11328SOL     OW37771   7.022   0.012   4.312  0.6012 -0.1520 -0.4574
11328SOL    HW137772   7.009   0.066   4.234  0.6396  0.8790  0.2391
11328SOL    HW237773   7.117   0.014   4.327  0.3915  1.5972  0.9427
11329SOL     OW37774   7.082   5.124   7.512  0.4853 -0.0918  0.2701
11329SOL    HW137775   7.168   5.126   7.553 -0.1730  0.1888  1.6742
11329SOL    HW237776   7.022   5.104   7.583 -0.4578 -2.0838 -0.9777
11330SOL     OW37777   5.666   1.506   7.925 -0.1819 -0.5611  0.4649
11330SOL    HW137778   5.689   1.486   8.016  1.2139 -1.2694 -0.0107
11330SOL    HW237779   5.750   1.528   7.883 -0.6875 -0.9552 -0.8168
11331SOL     OW37780   8.667   9.981   3.767 -0.1506  0.1096 -0.6739
11331SOL    HW137781   8.606   9.992   3.694 -1.1784 -0.4313  0.0746
11331SOL    HW237782   8.654  10.059   3.821  1.3775  1.0430 -1.5623
11332SOL     OW37783   6.680   8.970   0.385 -0.5652  0.0474  0.1431
11332SOL    HW137784   6.709   9.038   0.325  0.1724  1.5370  2.1280
11332SOL    HW237785   6.749   8.904   0.381  0.0596  0.6894  0.2548
11333SOL     OW37786   3.382   3.025  10.123 -0.4775  0.2049 -0.7610
11333SOL    HW137787   3.328   3.092  10.164  0.2421  0.0889  0.4267
11333SOL    HW237788   3.471   3.059  10.129 -0.0095 -1.1119  0.4757
11334SOL     OW37789   7.348   7.618   4.907 -0.5062  0.0910 -0.9950
11334SOL    HW137790   7.379   7.696   4.953  0.3426 -0.4086 -0.6916
11334SOL    HW237791   7.259   7.604   4.939  0.2804 -0.6446  1.0696
11335SOL     OW37792   2.598  10.121   3.862  0.4164 -0.1896  0.3210
11335SOL    HW137793   2.591  10.216   3.872  0.3917 -0.2728  1.2527
11335SOL    HW237794   2.511  10.089   3.887 -0.0939 -0.3699 -1.5577
11336SOL     OW37795   6.782   3.831   0.351 -0.7436  0.5556  0.2984
11336SOL    HW137796   6.724   3.844   0.276 -0.4722  1.0690  0.1727
11336SOL    HW237797   6.789   3.736   0.360 -0.5334  0.4883 -0.5149
11337SOL     OW37798   7.595   7.103   8.288  0.2988 -0.1294 -1.0316
11337SOL    HW137799   7.507   7.112   8.324  0.7480  1.2020 -0.1885
11337SOL    HW237800   7.582   7.061   8.203 -1.0895 -0.3836 -0.7252
11338SOL     OW37801   0.781   9.981   8.562  0.3382  0.6496 -0.1642
11338SOL    HW137802   0.861   9.951   8.605  0.3779  0.6298 -0.2507
11338SOL    HW237803   0.767  10.069   8.596 -0.7258 -0.0744  1.3907
11339SOL     OW37804  10.079   3.691   0.467  0.3688  0.0999  0.5568
11339SOL    HW137805  10.073   3.776   0.422  0.7902  1.1467  2.3734
11339SOL    HW237806  10.099   3.629   0.397  0.6551  1.5904 -0.7586
11340SOL     OW37807   3.675   3.627   8.336 -0.1535  0.0409  0.1171
11340SOL    HW137808   3.673   3.703   8.394 -1.3698  0.3384 -0.2692
11340SOL    HW237809   3.765   3.622   8.305  0.2263  0.6036  1.0790
11341SOL     OW37810   2.485   5.604   0.175 -0.1485 -0.4428  0.3070
11341SOL    HW137811   2.418   5.561   0.228 -0.5803 -0.7288 -0.4534
11341SOL    HW237812   2.566   5.557   0.195 -0.5598 -1.4281 -0.2962
11342SOL     OW37813   1.497   3.235   2.910 -0.2370 -0.6522 -0.0228
11342SOL    HW137814   1.512   3.152   2.955 -2.9385 -1.1359  0.1006
11342SOL    HW237815   1.420   3.272   2.951  0.6855  1.7880 -0.3381
11343SOL     OW37816   3.940   5.380   0.953  0.6069 -0.0478  0.1084
11343SOL    HW137817   3.958   5.343   0.866  0.3848 -0.5076  0.2536
11343SOL    HW237818   3.845   5.375   0.961  0.5554  0.7233  0.0621
11344SOL     OW37819  10.159   3.427   5.443 -0.5103  0.6990 -0.8218
11344SOL    HW137820  10.104   3.467   5.509 -0.1416 -0.5316  0.2801
11344SOL    HW237821  10.126   3.461   5.360 -1.3126  1.8823 -0.0496
11345SOL     OW37822   4.737   8.980   9.337  0.0342 -0.1882  0.0788
11345SOL    HW137823   4.788   8.992   9.257  0.3653  1.1791  0.4770
11345SOL    HW237824   4.689   9.062   9.349  0.9266  0.1318  1.9273
11346SOL     OW37825   9.145   3.857   3.487  0.0866  0.2365  0.0597
11346SOL    HW137826   9.079   3.824   3.549  1.0285 -1.4199  0.2245
11346SOL    HW237827   9.223   3.805   3.505  1.1964  1.5917 -0.7119
11347SOL     OW37828   7.469   6.787   5.183 -0.3982  0.0107  1.1216
11347SOL    HW137829   7.506   6.699   5.183 -2.0710 -0.7373  0.2469
11347SOL    HW237830   7.545   6.845   5.178  0.6691 -1.4309 -0.6353
11348SOL     OW37831   6.201   6.706   1.636  0.6612 -0.2108 -0.2676
11348SOL    HW137832   6.206   6.677   1.727  1.5249 -0.4968 -0.3969
11348SOL    HW237833   6.186   6.625   1.586  0.3976 -0.0811 -0.4016
11349SOL     OW37834   2.816   9.476   3.468  0.4870  0.0885 -0.0670
11349SOL    HW137835   2.905   9.492   3.501  0.9106 -2.4652  0.2143
11349SOL    HW237836   2.770   9.436   3.542 -0.5342  0.2626 -0.5902
11350SOL     OW37837   3.651   9.999   0.545 -0.3846 -0.1281 -0.0440
11350SOL    HW137838   3.731   9.950   0.565  0.1846  1.0950  0.7392
11350SOL    HW237839   3.679  10.070   0.489 -0.8815  0.4465  0.4234
11351SOL     OW37840   3.662   2.867   1.411 -0.1192 -0.2044 -0.0963
11351SOL    HW137841   3.706   2.792   1.451  0.8561  1.3734  1.9982
11351SOL    HW237842   3.717   2.890   1.336  0.2753 -0.8015  0.0017
11352SOL     OW37843   9.351   1.478   6.650  0.0368  0.3784  0.2386
11352SOL    HW137844   9.304   1.472   6.733  0.6261 -0.6323  0.5158
11352SOL    HW237845   9.406   1.400   6.648  1.3612  1.2926 -0.2809
11353SOL     OW37846   5.795   2.860   7.924 -0.1017 -0.0413  0.1122
11353SOL    HW137847   5.723   2.919   7.947 -1.7473 -1.7981 -0.2376
11353SOL    HW237848   5.872   2.898   7.966 -1.7221  0.4885  2.8601
11354SOL     OW37849  10.164   1.985   6.388 -0.0206 -0.2219  0.1863
11354SOL    HW137850  10.162   1.895   6.420  1.6321 -0.7459 -1.0323
11354SOL    HW237851  10.098   1.987   6.319 -0.1609 -0.4596  0.3120
11355SOL     OW37852   9.345   0.510  10.156 -0.5983 -0.3271 -0.6960
11355SOL    HW137853   9.362   0.443  10.223 -1.5715 -0.4311 -0.5406
11355SOL    HW237854   9.377   0.471  10.075 -0.0289 -0.4753 -0.4060
11356SOL     OW37855   3.323   3.373   8.203 -0.4187  0.4745  0.0304
11356SOL    HW137856   3.388   3.339   8.141  0.5500  0.6565  0.9249
11356SOL    HW237857   3.250   3.311   8.199 -0.5135  0.6485 -1.5146
11357SOL     OW37858   9.107   2.881   0.913  0.5459  0.8204 -0.1073
11357SOL    HW137859   9.201   2.865   0.903  0.8110  2.1729  0.0899
11357SOL    HW237860   9.081   2.919   0.829  0.4918  1.8703  0.3801
11358SOL     OW37861   9.248   8.027   4.124  0.1288 -0.0288  0.1944
11358SOL    HW137862   9.185   7.990   4.061  1.8518 -1.6114 -0.7089
11358SOL    HW237863   9.318   7.962   4.129 -0.6597 -0.9476  5.1612
11359SOL     OW37864   4.139   9.125   3.054 -0.1226  0.6639 -0.9670
11359SOL    HW137865   4.224   9.122   3.100 -0.0406 -0.9527 -1.1496
11359SOL    HW237866   4.121   9.218   3.042  0.6369  1.0999  0.9048
11360SOL     OW37867   1.715   3.079   5.556  0.2790  0.2905  0.1351
11360SOL    HW137868   1.640   3.079   5.616  1.0065  0.3326  1.0489
11360SOL    HW237869   1.786   3.120   5.605  0.7622  0.7572 -0.9177
11361SOL     OW37870   1.611   5.743   9.617  0.2964  0.2105 -0.4975
11361SOL    HW137871   1.591   5.701   9.701  1.0392  1.1941  0.1974
11361SOL    HW237872   1.546   5.707   9.557 -0.9469  0.2785  0.7330
11362SOL     OW37873   2.333   1.061   0.346 -0.1253 -0.3951  0.1566
11362SOL    HW137874   2.261   1.108   0.306 -0.9002 -2.2542 -0.7388
11362SOL    HW237875   2.412   1.106   0.315 -0.7765 -0.5951 -1.9169
11363SOL     OW37876   8.951   2.207   5.246 -0.0143 -0.1741 -0.4265
11363SOL    HW137877   8.899   2.273   5.292  0.9965 -0.1334  0.7199
11363SOL    HW237878   8.915   2.123   5.276 -0.3501 -0.1471 -0.7521
11364SOL     OW37879   7.855   7.123   8.001  0.7970  0.2583 -0.9201
11364SOL    HW137880   7.831   7.210   8.034  1.0998 -0.1351  0.4136
11364SOL    HW237881   7.950   7.124   7.997  0.8402 -0.2133 -0.2616
11365SOL     OW37882   2.786   0.143   7.523  0.2980 -0.6823  0.1706
11365SOL    HW137883   2.778   0.211   7.590  1.5802 -0.9774  0.6437
11365SOL    HW237884   2.702   0.146   7.476 -0.7659 -0.6828  1.9807
11366SOL     OW37885   6.911   4.307   3.387  0.1423 -0.6319  0.3504
11366SOL    HW137886   6.925   4.401   3.392  1.8595 -0.7903 -0.5727
11366SOL    HW237887   6.929   4.275   3.476 -0.1527 -0.1231  0.5927
11367SOL     OW37888   1.203   3.144   1.407 -0.2492 -0.5307  0.3243
11367SOL    HW137889   1.296   3.165   1.413  0.2798 -2.8737  1.4531
11367SOL    HW237890   1.169   3.156   1.495 -1.2282  1.0182 -0.2302
11368SOL     OW37891   2.784   7.048   4.717 -0.3598 -0.1562  0.2846
11368SOL    HW137892   2.701   7.004   4.733 -0.7253  0.3393 -0.2023
11368SOL    HW237893   2.846   7.007   4.778 -0.3923 -2.1654 -0.9607
11369SOL     OW37894   3.449   6.236   1.755 -0.6498 -0.4186 -0.1104
11369SOL    HW137895   3.414   6.270   1.837 -2.8061 -1.1153 -0.6935
11369SOL    HW237896   3.409   6.150   1.745  1.1480 -1.2294 -0.9284
11370SOL     OW37897   0.794   8.028   4.503  0.0963  0.2654  0.4484
11370SOL    HW137898   0.830   7.963   4.442 -1.7977 -0.1835 -0.2484
11370SOL    HW237899   0.756   7.976   4.573 -0.6416  0.6425  0.3346
11371SOL     OW37900   9.877   9.812   8.248 -0.1473  0.0434 -0.3732
11371SOL    HW137901   9.890   9.756   8.324 -0.9687  0.2359 -0.0829
11371SOL    HW237902   9.807   9.872   8.273  1.8005  2.3480 -0.0316
11372SOL     OW37903   2.354   4.624   3.732 -0.4817 -0.4979 -0.2618
11372SOL    HW137904   2.308   4.677   3.797 -1.0967 -1.1748 -0.1355
11372SOL    HW237905   2.388   4.549   3.782  0.3854 -0.2383 -0.4376
11373SOL     OW37906   5.994   2.658   6.983 -0.7663  0.1200  0.0970
11373SOL    HW137907   5.922   2.614   7.028 -2.6465  2.7439 -0.1630
11373SOL    HW237908   5.982   2.634   6.891  1.1035 -2.5326  0.4160
11374SOL     OW37909   8.602   9.004   9.682 -0.2466 -0.0946 -0.8061
11374SOL    HW137910   8.633   8.999   9.773  0.8722 -0.2211 -1.1807
11374SOL    HW237911   8.586   9.097   9.667  0.6729  0.0628 -0.8305
11375SOL     OW37912   5.041   9.291   5.505  0.1696  0.2203  0.2749
11375SOL    HW137913   4.957   9.244   5.509  1.4188 -2.2540 -0.5900
11375SOL    HW237914   5.103   9.234   5.551  1.4211  1.9997  0.9079
11376SOL     OW37915   5.220   2.810   0.292 -0.0657  0.4325  0.2847
11376SOL    HW137916   5.170   2.778   0.217  0.2233  1.3426 -0.3160
11376SOL    HW237917   5.311   2.805   0.264  0.1376 -0.3888  1.0511
11377SOL     OW37918   2.149   1.298   1.632  0.0611  0.1743 -0.0179
11377SOL    HW137919   2.104   1.218   1.656 -0.3979  0.2079 -0.7143
11377SOL    HW237920   2.092   1.368   1.664 -0.2220  0.2164 -0.5962
11378SOL     OW37921   3.697   8.477   7.300  0.3218 -0.4774  0.1486
11378SOL    HW137922   3.708   8.414   7.372 -1.6764 -3.0717 -1.6106
11378SOL    HW237923   3.756   8.447   7.232 -1.2898 -1.1075 -1.0476
11379SOL     OW37924   7.151   3.789   9.439  0.7841 -0.4977  0.2907
11379SOL    HW137925   7.180   3.726   9.373  0.5645  0.5362 -0.8216
11379SOL    HW237926   7.056   3.777   9.442  0.4588  1.1498 -1.4501
11380SOL     OW37927   6.145   9.799   8.577  0.1979 -0.2478 -0.2933
11380SOL    HW137928   6.221   9.856   8.568  0.7169 -0.8933 -0.0265
11380SOL    HW237929   6.093   9.840   8.647  0.1623  0.3357 -0.6522
11381SOL     OW37930   9.125   5.522   9.646  0.2586  0.2523 -0.4553
11381SOL    HW137931   9.115   5.516   9.741  0.7869  1.4980 -0.2936
11381SOL    HW237932   9.036   5.541   9.615 -0.1515 -1.4115 -0.3577
11382SOL     OW37933   9.609   0.086   7.758  0.4228  0.2606 -0.1117
11382SOL    HW137934   9.561   0.113   7.836  1.8515  1.0144  0.5402
11382SOL    HW237935   9.641  -0.002   7.778  0.3244  0.2343 -0.0722
11383SOL     OW37936   6.854   8.966   0.883  0.1853 -0.1862 -0.0858
11383SOL    HW137937   6.810   8.889   0.844  2.1952 -0.8085 -1.2640
11383SOL    HW237938   6.908   8.930   0.952  1.3275  0.1068 -0.8058
11384SOL     OW37939   3.944  10.189   2.119  0.3090 -0.0496  0.2312
11384SOL    HW137940   3.952  10.229   2.033 -2.1128  0.0539 -0.0224
11384SOL    HW237941   3.949  10.262   2.180  1.6883 -0.0871  0.2055
11385SOL     OW37942   1.912   7.003   2.203  0.6703  0.5953  0.2491
11385SOL    HW137943   1.884   6.913   2.186  0.0456  1.2898 -2.9308
11385SOL    HW237944   1.943   7.001   2.294 -1.0933 -2.3566  0.9283
11386SOL     OW37945   0.994   7.567   7.870 -0.2362 -0.1235 -0.2626
11386SOL    HW137946   0.962   7.601   7.954 -1.6648 -1.8088 -0.0659
11386SOL    HW237947   0.989   7.642   7.811 -0.3775  0.7796  0.8550
11387SOL     OW37948   6.962   8.214   2.714  0.3952 -0.6181 -0.1184
11387SOL    HW137949   6.986   8.142   2.654 -1.7138 -2.2028  0.8223
11387SOL    HW237950   6.888   8.180   2.764 -0.0250  1.8823  1.1072
11388SOL     OW37951   6.763   3.262   1.058 -0.0483  0.0013  0.0452
11388SOL    HW137952   6.748   3.168   1.069  0.0133  0.0297  0.4019
11388SOL    HW237953   6.762   3.296   1.147 -1.2868  0.5314 -0.1656
11389SOL     OW37954   5.750   0.631   0.278  0.2625 -0.2272  0.5255
11389SOL    HW137955   5.665   0.648   0.237 -1.5146 -3.7326  2.3134
11389SOL    HW237956   5.741   0.665   0.367 -0.5048 -3.0735  1.6509
11390SOL     OW37957  10.184   7.045   6.868 -0.2968 -0.8844  0.0473
11390SOL    HW137958  10.145   6.963   6.838  0.8090 -1.0003 -1.1557
11390SOL    HW237959  10.276   7.039   6.842 -0.3955  1.1341 -0.9905
11391SOL     OW37960   4.194   8.134   8.108  0.1677 -0.5959  0.1767
11391SOL    HW137961   4.278   8.114   8.067  0.2545  0.1057 -0.0056
11391SOL    HW237962   4.214   8.201   8.173 -0.0255 -1.4555  1.1580
11392SOL     OW37963   5.422   5.680   0.139 -0.2633 -0.2915 -0.2937
11392SOL    HW137964   5.505   5.634   0.153 -0.0901 -0.3319 -1.3546
11392SOL    HW237965   5.414   5.686   0.044 -0.3597  1.7217 -0.2145
11393SOL     OW37966   7.845   2.205   3.085  0.1316  0.1207 -0.1198
11393SOL    HW137967   7.786   2.258   3.139 -0.4732  0.2628 -0.9052
11393SOL    HW237968   7.901   2.268   3.041 -0.1868  0.0868 -0.5876
11394SOL     OW37969   7.297   5.414   5.524  0.4433 -0.5607 -0.0739
11394SOL    HW137970   7.238   5.479   5.487 -0.0844 -1.3937 -0.7285
11394SOL    HW237971   7.285   5.421   5.619  1.0396  0.8771 -0.0770
11395SOL     OW37972   4.706   2.056   8.362  0.6101 -0.1979 -0.1920
11395SOL    HW137973   4.711   1.962   8.348  2.4424 -0.1086 -0.3518
11395SOL    HW237974   4.756   2.072   8.442  2.0756  0.8223 -1.2571
11396SOL     OW37975   7.119   5.878   3.593  0.1652 -0.5162 -0.3678
11396SOL    HW137976   7.078   5.803   3.551  0.5640 -0.2614 -1.2403
11396SOL    HW237977   7.171   5.919   3.523  3.3035 -1.7865  1.0395
11397SOL     OW37978   3.658   6.954   4.314 -0.1788 -0.4884 -0.6785
11397SOL    HW137979   3.724   7.000   4.262 -1.4067 -1.3463 -3.1402
11397SOL    HW237980   3.575   6.985   4.280 -1.0398 -1.7219  0.2181
11398SOL     OW37981   0.452   8.682   0.102  0.0377 -0.0513 -0.3942
11398SOL    HW137982   0.409   8.739   0.165  1.9692 -0.1553  1.1282
11398SOL    HW237983   0.389   8.612   0.086 -1.1844  0.9192  0.0291
11399SOL     OW37984   1.866   5.287   9.420 -0.4398  0.0313 -0.2167
11399SOL    HW137985   1.899   5.316   9.335 -1.4048 -1.9262 -1.3303
11399SOL    HW237986   1.876   5.191   9.417 -2.9242 -0.3118  0.7991
11400SOL     OW37987   6.152   5.979   3.037 -0.1471  0.5151  0.5377
11400SOL    HW137988   6.223   5.984   2.972 -1.1435 -0.2177 -0.6600
11400SOL    HW237989   6.176   6.043   3.104  1.3392  0.7085 -0.1458
11401SOL     OW37990   1.122   9.226   9.855 -0.2687 -0.3460  0.0618
11401SOL    HW137991   1.035   9.262   9.875 -0.4199 -1.0615  0.7256
11401SOL    HW237992   1.173   9.241   9.935  0.5168  0.9273 -0.6551
11402SOL     OW37993   8.754   1.738   5.063 -0.2909  0.4351  0.3252
11402SOL    HW137994   8.807   1.659   5.057  0.6041  1.1317 -2.6394
11402SOL    HW237995   8.789   1.785   5.139  1.9959 -0.0727 -0.3416
11403SOL     OW37996   1.658  10.059   7.169 -0.0090  0.1731  0.1390
11403SOL    HW137997   1.569  10.096   7.168 -0.3081 -0.5308  0.0996
11403SOL    HW237998   1.676  10.043   7.262  0.0169  0.1881  0.1363
11404SOL     OW37999   0.293   3.446   6.821  0.0406  0.3272  0.4055
11404SOL    HW138000   0.296   3.439   6.916  1.8809  0.3877  0.4016
11404SOL    HW238001   0.365   3.390   6.791  0.1591  1.1168 -0.8738
11405SOL     OW38002   8.241   2.344   3.675 -0.1954  0.5731 -0.4297
11405SOL    HW138003   8.170   2.332   3.738 -0.4308 -0.2060 -0.8253
11405SOL    HW238004   8.218   2.426   3.629 -1.0626  0.1239 -0.8254
11406SOL     OW38005   7.064   4.953   7.053  0.0510  0.4635 -0.0009
11406SOL    HW138006   7.036   5.012   7.122  0.0326 -1.1510  1.4280
11406SOL    HW238007   6.985   4.907   7.027  0.0571  1.0516 -1.1359
11407SOL     OW38008   2.227   6.108   2.176 -0.2839 -0.4785  0.0680
11407SOL    HW138009   2.206   6.082   2.266  0.7556  0.0267  0.4809
11407SOL    HW238010   2.154   6.163   2.149 -0.6767 -0.7564  0.5549
11408SOL     OW38011   2.609   3.969   4.177  0.4663  0.0371  0.0366
11408SOL    HW138012   2.686   3.979   4.234  2.8963  1.8268 -3.2277
11408SOL    HW238013   2.551   4.040   4.204  2.8081  2.6513 -1.2760
11409SOL     OW38014   7.102   0.883   1.165 -0.1365 -0.6963 -0.2187
11409SOL    HW138015   7.176   0.850   1.114  1.0940  1.8630 -0.2532
11409SOL    HW238016   7.114   0.978   1.166 -3.0062 -0.2394  0.4799
11410SOL     OW38017   0.695   2.214   2.499 -0.0103 -0.1301 -0.1328
11410SOL    HW138018   0.665   2.297   2.536 -0.7486  0.7810 -2.6062
11410SOL    HW238019   0.624   2.152   2.517 -1.1370  0.7318 -1.4657
11411SOL     OW38020   6.526   3.115   7.288 -0.0630  0.0547 -0.2709
11411SOL    HW138021   6.581   3.174   7.339  0.1940 -1.9204  1.9206
11411SOL    HW238022   6.457   3.171   7.252  0.2450  1.7230  1.5822
11412SOL     OW38023   8.990   9.292   4.732 -0.4510 -0.5040 -0.5622
11412SOL    HW138024   9.057   9.292   4.664  0.4782  0.3910  0.3232
11412SOL    HW238025   8.966   9.199   4.741 -1.9607 -0.4975 -3.3513
11413SOL     OW38026   7.041   8.995   8.903 -0.4178  0.4770  0.0022
11413SOL    HW138027   7.040   9.043   8.985 -1.5361  0.2562  0.1259
11413SOL    HW238028   7.117   8.936   8.910 -0.9196 -0.0537  1.1779
11414SOL     OW38029   6.428   7.475   3.113  0.0237 -0.0343  0.1148
11414SOL    HW138030   6.430   7.383   3.139 -0.0654  0.2399  1.1375
11414SOL    HW238031   6.380   7.519   3.184 -0.2563  0.7412 -0.5369
11415SOL     OW38032   2.403   2.161   2.142 -0.5479  0.1322  0.3083
11415SOL    HW138033   2.486   2.185   2.183 -0.6951  1.4828 -0.1397
11415SOL    HW238034   2.360   2.244   2.124 -1.4024 -0.5060 -0.7237
11416SOL     OW38035   1.333   6.089   0.002  0.3568 -0.3393 -0.0431
11416SOL    HW138036   1.379   6.079  -0.081  0.3757 -1.9768  0.1323
11416SOL    HW238037   1.387   6.150   0.052  0.4809  0.4625 -1.1260
11417SOL     OW38038   9.571   2.361   7.086  0.0618 -0.3743 -0.3036
11417SOL    HW138039   9.569   2.452   7.058  1.3104 -0.2586 -0.0882
11417SOL    HW238040   9.626   2.317   7.021  0.4922 -0.7186  0.2776
11418SOL     OW38041   5.781   3.257   1.311 -0.8565 -0.5106  0.1826
11418SOL    HW138042   5.741   3.329   1.359  2.9037  1.7462  0.3778
11418SOL    HW238043   5.771   3.181   1.369 -2.0843  0.6148  1.5122
11419SOL     OW38044   7.890  10.263   3.460 -0.0445 -0.1369  0.2404
11419SOL    HW138045   7.883  10.285   3.367  0.5355  0.5053  0.3356
11419SOL    HW238046   7.978  10.228   3.469 -0.6783 -1.8163  0.2520
11420SOL     OW38047   4.322   6.464   4.176  0.0927  0.2769  0.1544
11420SOL    HW138048   4.232   6.469   4.144 -0.7314 -0.1735  2.2144
11420SOL    HW238049   4.375   6.496   4.104 -1.6660  0.0283 -1.3336
11421SOL     OW38050   4.685   9.289   9.666 -0.7751  0.4743  0.3440
11421SOL    HW138051   4.618   9.223   9.649 -0.1797  0.2365 -1.2179
11421SOL    HW238052   4.726   9.261   9.748 -1.7114 -0.0880  0.6321
11422SOL     OW38053   6.783   8.560  10.326  0.4580  0.5144  0.3169
11422SOL    HW138054   6.818   8.588  10.242  2.1859  0.1800  0.8800
11422SOL    HW238055   6.841   8.489  10.354 -0.3488  0.3137  1.5779
11423SOL     OW38056   1.354   7.615   7.143 -0.5807 -0.2920 -0.2325
11423SOL    HW138057   1.433   7.564   7.154  0.8143  2.0000  1.1838
11423SOL    HW238058   1.366   7.660   7.059 -0.7539 -0.5214 -0.3825
11424SOL     OW38059   6.865   5.945   9.932  0.1245  0.2608 -0.0452
11424SOL    HW138060   6.879   5.851   9.920 -1.1116 -0.1508  1.3829
11424SOL    HW238061   6.773   5.960   9.909 -0.6367  0.4666  2.6922
11425SOL     OW38062   6.645   9.004   0.650 -0.6608 -0.1285  0.0998
11425SOL    HW138063   6.655   9.009   0.555 -0.5746  0.8722  0.1475
11425SOL    HW238064   6.671   9.091   0.681  1.7170 -1.1570  1.2607
11426SOL     OW38065   3.436   5.621   6.066  0.5480  0.5390 -0.1829
11426SOL    HW138066   3.517   5.588   6.106  0.2313  0.7964  0.6876
11426SOL    HW238067   3.377   5.636   6.140  0.1815  1.6811 -0.6846
11427SOL     OW38068   4.676   4.591   4.983 -0.0804  0.2121  0.1507
11427SOL    HW138069   4.735   4.667   4.977  4.4135 -2.9529 -0.8016
11427SOL    HW238070   4.682   4.565   5.075 -2.7784  1.6506  0.8237
11428SOL     OW38071   8.072   2.042   6.009 -0.1109  0.5826 -0.5566
11428SOL    HW138072   8.163   2.057   6.035 -0.5191  1.3323  0.5156
11428SOL    HW238073   8.021   2.061   6.088 -1.3197  1.6910 -1.5560
11429SOL     OW38074   0.652   4.705   8.025 -0.4344 -0.3696 -0.0063
11429SOL    HW138075   0.740   4.707   7.988 -0.9385  2.0776 -1.2432
11429SOL    HW238076   0.601   4.763   7.969 -2.3340 -0.0054  1.9820
11430SOL     OW38077   1.826   4.632   3.367 -0.0914  0.1970 -0.2271
11430SOL    HW138078   1.835   4.537   3.367  0.1222  0.2068  0.7846
11430SOL    HW238079   1.763   4.650   3.436  0.5622  0.8346  0.2202
11431SOL     OW38080   9.649   1.202   6.135 -0.4349  0.3415 -0.3752
11431SOL    HW138081   9.646   1.109   6.114 -0.8240  0.2011  0.2774
11431SOL    HW238082   9.618   1.208   6.226  1.9378  0.8234  0.5005
11432SOL     OW38083   5.251   1.233   8.527  0.2255 -0.1579  0.3356
11432SOL    HW138084   5.319   1.299   8.514 -0.2224  0.2736  0.1599
11432SOL    HW238085   5.175   1.283   8.557  0.1416 -0.7007  1.0428
11433SOL     OW38086   7.348   0.447   0.209  0.3420 -0.0946 -0.1972
11433SOL    HW138087   7.369   0.536   0.236 -1.0464 -0.0462  0.8393
11433SOL    HW238088   7.374   0.443   0.117  0.1245  1.4769 -0.3517
11434SOL     OW38089   1.458   7.095   4.720  0.6461  0.3651  0.3598
11434SOL    HW138090   1.433   7.084   4.811 -0.4895 -0.2450 -0.0017
11434SOL    HW238091   1.468   7.189   4.708 -1.0621  0.6030  0.6580
11435SOL     OW38092   2.673  10.113   6.244 -0.1839 -0.2200  0.1348
11435SOL    HW138093   2.740  10.177   6.223 -1.6278  1.0872 -0.6720
11435SOL    HW238094   2.614  10.114   6.169 -0.8308 -1.7364  0.5763
11436SOL     OW38095   0.788   6.014   1.147  0.4173 -0.5943  0.0482
11436SOL    HW138096   0.799   5.946   1.212  1.5588 -1.3419 -0.8855
11436SOL    HW238097   0.732   5.975   1.080  0.2071 -0.2422  0.0147
11437SOL     OW38098   9.538   9.598   4.817  0.0883 -0.0499  0.6931
11437SOL    HW138099   9.516   9.687   4.791  0.1624 -0.1270  0.3578
11437SOL    HW238100   9.628   9.585   4.787 -0.7614 -1.1100 -1.6512
11438SOL     OW38101   3.784   2.374   3.341  0.7196 -0.5637  0.1557
11438SOL    HW138102   3.715   2.440   3.350  0.9883 -0.3946  1.1080
11438SOL    HW238103   3.832   2.399   3.262  2.1284  1.6543  1.6034
11439SOL     OW38104   0.593  10.241   8.461  0.4127 -0.3436  0.2721
11439SOL    HW138105   0.521  10.185   8.490  0.4560 -0.3915  0.2882
11439SOL    HW238106   0.560  10.331   8.470 -0.2854 -0.3952 -1.3532
11440SOL     OW38107   4.312   8.672   2.994  0.0427 -0.0160  0.0333
11440SOL    HW138108   4.284   8.600   3.050  1.0087  0.2077  0.8351
11440SOL    HW238109   4.252   8.669   2.920 -0.6400 -0.9402  0.5927
11441SOL     OW38110   3.010   5.975   9.304 -0.2557 -0.2450 -0.3435
11441SOL    HW138111   3.079   6.040   9.317 -0.5986 -0.0096  0.3902
11441SOL    HW238112   2.957   5.981   9.384 -1.3100 -0.1896 -1.0273
11442SOL     OW38113   1.147   2.818   1.376  0.2056  0.2476  0.1925
11442SOL    HW138114   1.189   2.886   1.324  2.9508 -0.5358  1.1991
11442SOL    HW238115   1.195   2.818   1.459 -0.6393 -1.9499  0.7613
11443SOL     OW38116   0.094   9.597   5.571 -0.4457  0.0468  0.0044
11443SOL    HW138117   0.144   9.618   5.650 -0.8644  0.0960  0.2565
11443SOL    HW238118   0.158   9.606   5.500  0.7778 -2.8750  0.5764
11444SOL     OW38119   1.061   8.093   1.182 -0.3926  0.3743 -0.6573
11444SOL    HW138120   0.974   8.128   1.198 -0.0051  1.3640 -0.6516
11444SOL    HW238121   1.052   8.041   1.102 -1.2007 -0.3910 -0.0878
11445SOL     OW38122   8.900   7.092   8.610 -0.0892  0.3342 -0.1052
11445SOL    HW138123   8.871   7.001   8.608  0.9520  0.0039 -0.9258
11445SOL    HW238124   8.916   7.110   8.703 -1.2943  0.0129  0.1725
11446SOL     OW38125   1.640   6.807   1.223  0.1626  0.2961 -0.2681
11446SOL    HW138126   1.709   6.863   1.260 -0.6982  0.9999  0.3245
11446SOL    HW238127   1.568   6.868   1.204 -0.3214 -0.4332 -0.8116
11447SOL     OW38128   8.135   3.292   6.940 -0.2104  0.2339  0.3670
11447SOL    HW138129   8.048   3.331   6.943 -0.0146  0.6146  1.4565
11447SOL    HW238130   8.120   3.198   6.949 -0.5007  0.3062  0.6352
11448SOL     OW38131   3.893   1.379   4.060  0.1146  0.4550 -0.2489
11448SOL    HW138132   3.925   1.451   4.006 -0.5063  0.4513 -0.6316
11448SOL    HW238133   3.896   1.413   4.150 -0.7371  1.1881 -0.4784
11449SOL     OW38134   1.360   1.191   0.859  0.3675  0.7492  0.1602
11449SOL    HW138135   1.291   1.136   0.898  1.1709  0.4713  1.2255
11449SOL    HW238136   1.428   1.129   0.834  0.5587  1.0956 -0.1787
11450SOL     OW38137  10.194   8.107   8.378  0.1094  0.1464 -0.0397
11450SOL    HW138138  10.187   8.055   8.297 -1.4109 -1.4567  1.0421
11450SOL    HW238139  10.172   8.196   8.351 -2.1237 -0.6504 -1.1690
11451SOL     OW38140   1.084   2.594   8.674  0.8454 -0.1510 -0.2893
11451SOL    HW138141   1.072   2.532   8.602 -0.1685 -0.1374 -0.1459
11451SOL    HW238142   1.133   2.666   8.634 -0.4172  0.2385 -1.2195
11452SOL     OW38143   0.656   0.090   2.026  0.2881  0.1830 -0.6683
11452SOL    HW138144   0.586   0.041   2.068  0.3800 -0.4811 -1.2741
11452SOL    HW238145   0.653   0.177   2.067  0.3269 -0.4085  0.6433
11453SOL     OW38146   0.283  10.161   8.801  0.2881 -0.5695  0.3968
11453SOL    HW138147   0.319  10.248   8.786 -0.0430 -0.5223 -0.1582
11453SOL    HW238148   0.332  10.103   8.742 -0.6911 -0.4608 -0.5599
11454SOL     OW38149   3.119   4.196   0.023 -0.1192 -0.0962  0.5578
11454SOL    HW138150   3.118   4.101   0.029  1.0918 -0.0996  1.1111
11454SOL    HW238151   3.196   4.216  -0.030 -1.2419  0.5467 -0.8915
11455SOL     OW38152   8.757   2.600   1.795 -0.2378  0.1476  0.2327
11455SOL    HW138153   8.818   2.558   1.855  1.0564 -1.0153 -1.7877
11455SOL    HW238154   8.772   2.694   1.808  0.4063 -0.0860  1.3109
11456SOL     OW38155   9.584   6.593   8.294  0.2463 -0.3117  0.6219
11456SOL    HW138156   9.629   6.617   8.213 -0.2348  2.0285  0.9696
11456SOL    HW238157   9.655   6.574   8.356  0.6224 -1.6072 -0.1899
11457SOL     OW38158   1.003   4.759   3.306  0.7046 -0.2404  0.3936
11457SOL    HW138159   1.051   4.781   3.226  0.5815 -1.1635  0.0412
11457SOL    HW238160   0.912   4.758   3.279  0.7690 -2.2809  0.0633
11458SOL     OW38161   2.705   7.159   6.214  0.4634 -0.1913  0.4752
11458SOL    HW138162   2.731   7.216   6.141 -1.2317 -0.3850 -0.3127
11458SOL    HW238163   2.718   7.071   6.181  2.1631 -0.3151  1.3614
11459SOL     OW38164   0.804   9.578   1.376 -0.6589 -0.3543 -0.4668
11459SOL    HW138165   0.772   9.666   1.394  0.0918 -0.1933  0.1715
11459SOL    HW238166   0.729   9.521   1.391 -0.4368 -0.1084  2.1026
11460SOL     OW38167   0.492   1.743   9.188  0.0497 -0.4139 -0.0277
11460SOL    HW138168   0.510   1.821   9.240 -1.6692 -0.2390  0.3756
11460SOL    HW238169   0.573   1.693   9.190  1.1463  1.2649 -0.1629
11461SOL     OW38170   1.502   0.453   4.231  0.2172  0.0361 -0.2038
11461SOL    HW138171   1.560   0.508   4.178  1.0326  0.3114  0.9272
11461SOL    HW238172   1.419   0.453   4.183  0.1213  2.4185 -0.1771
11462SOL     OW38173   7.052   3.550   7.815  0.3728  0.1587  0.4384
11462SOL    HW138174   7.121   3.500   7.772  0.8509  2.3708 -1.5792
11462SOL    HW238175   6.984   3.559   7.748 -0.8074  0.1256  1.5896
11463SOL     OW38176   6.830   0.494   6.957  0.3287  0.0943 -0.3290
11463SOL    HW138177   6.919   0.458   6.965  0.6274  0.7911 -0.4320
11463SOL    HW238178   6.785   0.463   7.035  0.6425 -0.3237 -0.3092
11464SOL     OW38179   7.046   5.203   9.000  0.1729  0.7390  0.6558
11464SOL    HW138180   7.125   5.247   9.033 -0.1099  0.4712  1.7164
11464SOL    HW238181   7.021   5.143   9.070  0.6054 -1.2372 -0.7828
11465SOL     OW38182   6.468   4.748   1.776 -0.3174  0.1821 -0.5558
11465SOL    HW138183   6.472   4.653   1.768 -1.9498  0.0542 -0.1741
11465SOL    HW238184   6.525   4.769   1.850  1.5904 -0.2676 -1.8163
11466SOL     OW38185   8.875   0.794   2.816 -0.1830  0.3167 -0.0637
11466SOL    HW138186   8.906   0.884   2.828 -0.0880  0.6644 -2.3915
11466SOL    HW238187   8.817   0.799   2.740 -1.0853 -1.4109  0.4569
11467SOL     OW38188   7.645   6.399   8.786 -0.1360 -0.1377 -0.2776
11467SOL    HW138189   7.607   6.377   8.871  1.0313  0.9101  0.5611
11467SOL    HW238190   7.577   6.449   8.741 -0.1853  0.7607  0.7489
11468SOL     OW38191   4.985   8.204   3.445  0.2297  0.0697 -0.4022
11468SOL    HW138192   5.078   8.229   3.452  0.0133  0.9188 -0.4382
11468SOL    HW238193   4.954   8.252   3.369 -0.3951  0.2553 -0.0321
11469SOL     OW38194   9.032   7.856   9.497 -1.0677 -0.0676 -0.6767
11469SOL    HW138195   9.079   7.934   9.526 -0.6699 -1.1579  1.8823
11469SOL    HW238196   9.057   7.846   9.405 -0.5645  2.3631 -0.8682
11470SOL     OW38197   7.703   0.579   8.149  0.2362 -0.3504 -0.1539
11470SOL    HW138198   7.724   0.562   8.241  1.3585 -0.6441 -0.4500
11470SOL    HW238199   7.773   0.636   8.118 -1.3972  1.7282 -0.2299
11471SOL     OW38200   5.652   5.590   8.438 -0.4085 -0.0734  0.0299
11471SOL    HW138201   5.647   5.546   8.353 -1.7806 -3.1396  1.5421
11471SOL    HW238202   5.573   5.644   8.441  0.0701  0.7266 -0.9085
11472SOL     OW38203   8.935   7.735   9.728  0.5075  0.2279  0.0202
11472SOL    HW138204   9.009   7.738   9.789  1.0406  0.7125 -0.6437
11472SOL    HW238205   8.970   7.767   9.645 -0.7194  1.5627 -0.0255
11473SOL     OW38206   1.654   2.422   6.917 -0.3609 -0.2717  0.3403
11473SOL    HW138207   1.608   2.501   6.944  1.0402  0.3827  0.9040
11473SOL    HW238208   1.713   2.402   6.990 -0.1876 -1.4401 -0.0945
11474SOL     OW38209   8.376   1.317   8.702  0.0614 -0.3205  0.1735
11474SOL    HW138210   8.402   1.255   8.633 -1.0878  1.4479 -1.9837
11474SOL    HW238211   8.337   1.262   8.770 -0.6254 -2.0350 -1.5038
11475SOL     OW38212   5.728   2.007   7.167  0.0854 -0.5388  0.9648
11475SOL    HW138213   5.675   2.084   7.188 -0.9088 -0.6286 -1.0076
11475SOL    HW238214   5.699   1.940   7.228 -1.3309 -0.2693  0.6222
11476SOL     OW38215   9.609   9.641   1.836 -0.2782  0.2299  0.0117
11476SOL    HW138216   9.639   9.608   1.921 -0.5182 -0.5222 -0.1933
11476SOL    HW238217   9.516   9.660   1.849 -0.5300 -0.7412 -0.3323
11477SOL     OW38218   9.819   6.145   6.842 -0.3648  0.4863 -0.2918
11477SOL    HW138219   9.853   6.100   6.920 -0.8689  0.3839 -0.1225
11477SOL    HW238220   9.858   6.232   6.845 -1.2165  0.8559  0.6724
11478SOL     OW38221   7.233   5.245   0.199  0.2291  0.0995  0.4424
11478SOL    HW138222   7.212   5.178   0.264 -1.1259  1.4806  1.5104
11478SOL    HW238223   7.267   5.318   0.249 -0.4262  1.0344 -0.4332
11479SOL     OW38224   5.586   4.057   7.518  0.2774 -0.4553  0.1038
11479SOL    HW138225   5.575   4.017   7.604 -0.0526 -0.3068  0.1353
11479SOL    HW238226   5.506   4.034   7.471 -0.1809  0.6204  0.3161
11480SOL     OW38227   9.459   6.208   3.623 -0.4131  0.3845  0.1322
11480SOL    HW138228   9.367   6.182   3.616 -0.2229 -1.2357  2.4011
11480SOL    HW238229   9.460   6.278   3.688 -0.1418  1.1637 -0.6971
11481SOL     OW38230   0.871   8.442   6.686  0.1046 -0.0677 -0.0256
11481SOL    HW138231   0.959   8.434   6.650 -0.2448 -1.1305 -0.6780
11481SOL    HW238232   0.814   8.452   6.610 -0.3657  0.4021  0.3781
11482SOL     OW38233   8.962   1.340   7.012  0.7018  0.4166 -0.3105
11482SOL    HW138234   8.879   1.333   6.964  0.4103 -0.7150  0.3238
11482SOL    HW238235   8.991   1.430   6.997 -0.7579  0.9000 -0.3601
11483SOL     OW38236   8.595   3.082   7.946 -0.0198  0.1214 -0.1632
11483SOL    HW138237   8.608   3.152   7.882  0.8547  2.0437  1.9712
11483SOL    HW238238   8.571   3.127   8.027  0.7157 -2.0176  1.3635
11484SOL     OW38239   7.968   3.890  10.327  0.1304 -0.4338  0.0775
11484SOL    HW138240   7.942   3.960  10.387 -0.2848  1.2060 -1.8819
11484SOL    HW238241   8.061   3.907  10.310  0.0157 -0.2961 -0.4376
11485SOL     OW38242   2.342   5.580   6.602 -0.1348  0.0467  0.6278
11485SOL    HW138243   2.321   5.499   6.555 -1.0260  0.4068  0.3820
11485SOL    HW238244   2.391   5.551   6.679  0.5545 -0.6252 -0.0434
11486SOL     OW38245   7.796   3.720   6.195  0.0677 -0.1845  0.4697
11486SOL    HW138246   7.805   3.657   6.124 -0.4441  1.4908 -1.1537
11486SOL    HW238247   7.886   3.736   6.224  0.6589  1.3950 -1.9528
11487SOL     OW38248   4.762   7.892   5.483 -0.4944  0.4119 -0.1674
11487SOL    HW138249   4.793   7.943   5.557 -0.9948  0.7742 -0.2073
11487SOL    HW238250   4.810   7.809   5.489 -1.2596  0.0380  1.1375
11488SOL     OW38251   7.972   1.774   6.087 -0.1053 -0.5268  0.3639
11488SOL    HW138252   7.981   1.823   6.169  1.2060  0.8531 -0.5277
11488SOL    HW238253   8.032   1.700   6.097  2.2996  1.1909 -0.3428
11489SOL     OW38254   0.083   0.518   7.763  0.0911  0.3066 -0.5333
11489SOL    HW138255   0.006   0.461   7.773 -1.1415  1.8396 -0.8057
11489SOL    HW238256   0.151   0.461   7.728 -1.2354 -0.8886 -1.2657
11490SOL     OW38257   8.853   4.867   2.139  0.7303 -0.1039 -1.0352
11490SOL    HW138258   8.868   4.844   2.231 -0.6545 -0.0526 -0.7869
11490SOL    HW238259   8.934   4.912   2.112  1.0454  0.1044  0.2206
11491SOL     OW38260  10.290   9.476   7.150  0.4472  0.5218 -0.0097
11491SOL    HW138261  10.386   9.477   7.142  0.5991  1.0653  1.5287
11491SOL    HW238262  10.266   9.385   7.136  1.0864  0.5386 -1.3367
11492SOL     OW38263   7.259   5.244   1.915  0.1428  0.0722 -0.0315
11492SOL    HW138264   7.203   5.263   1.990  1.6812  0.6256  1.0252
11492SOL    HW238265   7.249   5.319   1.857 -0.3032  0.1081  0.0905
11493SOL     OW38266   5.823   8.720   1.323  0.5767  0.4690 -0.0288
11493SOL    HW138267   5.882   8.726   1.398 -0.8652 -0.2820  1.2239
11493SOL    HW238268   5.840   8.634   1.286  0.2994  0.2608  0.3190
11494SOL     OW38269   8.258   1.566   8.645  0.6043 -0.2184  0.0561
11494SOL    HW138270   8.178   1.512   8.640  0.8964 -0.6198 -0.4860
11494SOL    HW238271   8.329   1.502   8.652  0.7787  0.1621  2.5767
11495SOL     OW38272   2.373   1.829   9.253  0.6933  0.5392 -0.3483
11495SOL    HW138273   2.350   1.764   9.319  0.4285  1.3054  0.3409
11495SOL    HW238274   2.463   1.853   9.274  0.2728  1.5438  0.4202
11496SOL     OW38275   7.031   9.891  10.136  0.0150 -0.1986 -0.0176
11496SOL    HW138276   6.942   9.912  10.108 -0.2170 -0.4442  0.5310
11496SOL    HW238277   7.071   9.850  10.059 -0.6892 -1.0690  0.0706
11497SOL     OW38278   1.852   1.855   9.531  0.2483  0.0375 -0.5476
11497SOL    HW138279   1.947   1.861   9.520  0.1697 -1.1313 -2.0451
11497SOL    HW238280   1.819   1.934   9.489  0.5359  0.5346  0.1243
11498SOL     OW38281   5.675   2.077   9.461 -0.3396  0.2256  0.5945
11498SOL    HW138282   5.736   2.112   9.396 -0.5400  0.1061  0.3448
11498SOL    HW238283   5.674   1.983   9.446  1.3007 -0.1239  2.1910
11499SOL     OW38284   0.620   7.525   6.231 -0.5986  0.0002 -0.3388
11499SOL    HW138285   0.654   7.579   6.160 -0.4021  1.1197  0.5814
11499SOL    HW238286   0.532   7.501   6.202 -1.5372  2.5890  0.0963
11500SOL     OW38287   6.494   1.107   9.335  0.2554  0.1545 -0.1660
11500SOL    HW138288   6.588   1.110   9.351  0.1465  0.6987  0.4060
11500SOL    HW238289   6.463   1.195   9.356 -0.3263  0.1004 -0.7341
11501SOL     OW38290   6.656   7.259   8.786  0.5172  0.1498 -0.0440
11501SOL    HW138291   6.701   7.206   8.721  0.1755 -0.8337  0.4895
11501SOL    HW238292   6.702   7.241   8.868 -1.2422 -1.5107  0.6780
11502SOL     OW38293   5.529   7.860   8.956 -0.1463 -0.8425 -0.3507
11502SOL    HW138294   5.564   7.796   9.018 -0.5440  0.1570  0.9410
11502SOL    HW238295   5.484   7.925   9.010  0.5910  0.7688 -1.5600
11503SOL     OW38296   3.337   0.240   5.925 -0.3977  0.1834 -0.1273
11503SOL    HW138297   3.373   0.329   5.931  0.1811  0.0428 -1.3100
11503SOL    HW238298   3.246   0.253   5.898 -0.3186  0.4199 -0.2855
11504SOL     OW38299   5.878   3.677   5.026 -0.3887 -0.4338  0.2505
11504SOL    HW138300   5.886   3.589   5.064 -1.1442 -0.7939 -0.3710
11504SOL    HW238301   5.802   3.670   4.968 -0.3953  0.6117  0.1217
11505SOL     OW38302   0.408   1.077   7.519 -0.0929  0.4063 -0.6657
11505SOL    HW138303   0.345   1.149   7.529  1.3828  1.6039  0.3431
11505SOL    HW238304   0.368   1.003   7.565 -0.3650  1.4164  0.7713
11506SOL     OW38305   9.530   4.126   0.819 -0.2854 -0.1901  0.3124
11506SOL    HW138306   9.524   4.044   0.771 -2.4658  0.5255 -0.7509
11506SOL    HW238307   9.511   4.193   0.754  0.8218  1.1436  1.3026
11507SOL     OW38308   6.926   4.994   1.661  0.4146  0.2528 -0.1920
11507SOL    HW138309   6.849   4.978   1.606  0.2428 -0.4789  0.2455
11507SOL    HW238310   6.899   5.063   1.722 -0.2480 -0.6995  0.6208
11508SOL     OW38311   8.038   2.362   1.011  0.2498  0.4103  0.0173
11508SOL    HW138312   8.004   2.447   0.981  0.6213  0.9908  1.1704
11508SOL    HW238313   8.133   2.376   1.017  0.7279 -1.0619 -2.7799
11509SOL     OW38314   4.982   6.945   3.578  0.7228 -0.6530 -0.1322
11509SOL    HW138315   4.918   6.886   3.537 -1.2282  1.7881 -0.8947
11509SOL    HW238316   5.050   6.957   3.511  0.7857 -1.5094 -0.2258
11510SOL     OW38317   9.939   6.382   6.853 -0.2806  0.4650 -0.6243
11510SOL    HW138318   9.944   6.385   6.758  2.0648 -0.0894 -0.5771
11510SOL    HW238319  10.028   6.359   6.881 -0.8241  0.9533  1.7095
11511SOL     OW38320   2.922   3.146   5.848  0.6461 -0.0863  0.8194
11511SOL    HW138321   2.947   3.132   5.940  0.9178  0.9816  0.9139
11511SOL    HW238322   2.988   3.205   5.813  0.5618 -0.5133 -0.0850
11512SOL     OW38323   1.134   6.535   8.534 -0.6192 -0.0181 -0.3123
11512SOL    HW138324   1.061   6.496   8.486 -1.8318  0.6284  0.9377
11512SOL    HW238325   1.203   6.469   8.531 -1.7421 -1.2300 -0.3547
11513SOL     OW38326   6.991   2.418   8.911 -0.3876  0.2326 -0.1051
11513SOL    HW138327   7.057   2.486   8.895 -0.4166  0.4216  0.5639
11513SOL    HW238328   7.020   2.344   8.857 -0.7773  1.0190 -1.4589
11514SOL     OW38329   6.019   8.023   4.139  0.3622  1.1253  0.1822
11514SOL    HW138330   6.076   7.956   4.101 -1.1232 -0.6943  0.9831
11514SOL    HW238331   6.060   8.044   4.223 -0.7335 -1.1505  1.3632
11515SOL     OW38332   8.882   4.078   9.898 -0.0084 -0.3213  0.9714
11515SOL    HW138333   8.916   4.043   9.816  0.1033  2.0325 -0.0810
11515SOL    HW238334   8.952   4.061   9.962  1.2077  0.3875 -0.1187
11516SOL     OW38335   4.748   3.298   4.101  0.0484  0.7354  0.5295
11516SOL    HW138336   4.716   3.322   4.014 -0.5885  0.5697  0.7152
11516SOL    HW238337   4.675   3.318   4.160 -0.3314 -1.1393  0.7638
11517SOL     OW38338   9.469   9.871   2.945 -0.4816  0.6008  0.0192
11517SOL    HW138339   9.545   9.927   2.960  0.2231 -0.4812  0.6614
11517SOL    HW238340   9.479   9.840   2.855  1.4596 -1.8050  0.9552
11518SOL     OW38341   7.522   0.808   5.900 -0.2419  0.2024 -0.1123
11518SOL    HW138342   7.579   0.740   5.863  0.7456  1.4351 -0.9420
11518SOL    HW238343   7.439   0.798   5.853  0.9401  1.6711 -2.7469
11519SOL     OW38344   7.279   2.336   8.713  0.4884 -0.0751  0.0086
11519SOL    HW138345   7.199   2.364   8.669 -0.0694 -2.0074 -0.2754
11519SOL    HW238346   7.343   2.405   8.693 -1.1073  1.5797  0.3779
11520SOL     OW38347   5.343   2.468   6.109 -0.1468  1.2459 -0.8695
11520SOL    HW138348   5.339   2.411   6.186  2.2341 -0.8932 -2.1595
11520SOL    HW238349   5.391   2.545   6.139 -0.3731  1.0146  0.1043
11521SOL     OW38350   4.060   6.646   5.150  0.7631 -0.6044 -0.2580
11521SOL    HW138351   4.148   6.657   5.187  1.2479 -2.3897 -0.7743
11521SOL    HW238352   4.012   6.597   5.217 -0.2978  1.4920  0.5988
11522SOL     OW38353   5.261   5.365   7.165  0.3527  0.0050 -0.0364
11522SOL    HW138354   5.218   5.287   7.201 -0.4421 -0.0434 -1.0408
11522SOL    HW238355   5.353   5.340   7.157  0.6396  0.1402  2.2537
11523SOL     OW38356   4.952   5.321   1.577 -0.2687 -0.1079  0.3489
11523SOL    HW138357   4.893   5.353   1.509 -0.3656  0.3154  0.6356
11523SOL    HW238358   4.961   5.227   1.558  0.3296  0.1431 -0.7248
11524SOL     OW38359   8.176   5.837   2.143  0.3623  0.1978 -0.0715
11524SOL    HW138360   8.252   5.867   2.194  0.0389  0.1488  0.4492
11524SOL    HW238361   8.192   5.870   2.055  2.1357 -1.7411 -0.5510
11525SOL     OW38362   7.566   5.919   6.423  0.1490  0.1979  0.4126
11525SOL    HW138363   7.624   5.967   6.363 -0.2309 -2.2274 -2.1060
11525SOL    HW238364   7.486   5.971   6.424  0.6958  1.0854  0.0482
11526SOL     OW38365   6.115   3.578   0.157  0.2178 -0.1333  0.6965
11526SOL    HW138366   6.128   3.671   0.176  1.6969  0.0154 -0.8355
11526SOL    HW238367   6.062   3.577   0.077 -0.0863 -0.6283  0.9015
11527SOL     OW38368  10.042   6.018   0.067 -0.3425  0.2176 -0.8568
11527SOL    HW138369   9.959   5.978   0.044 -0.7271 -0.2119  1.1057
11527SOL    HW238370  10.024   6.067   0.147  1.3324 -0.0403 -0.2798
11528SOL     OW38371   3.175   0.446   9.417 -0.5298  0.5105 -0.2379
11528SOL    HW138372   3.255   0.495   9.402 -0.2146  0.3004  0.6706
11528SOL    HW238373   3.145   0.420   9.330  1.7168 -1.5400 -0.4869
11529SOL     OW38374   5.847   3.512   3.210 -0.2393  0.1526  0.0200
11529SOL    HW138375   5.894   3.429   3.205 -0.3368 -0.0659  1.8617
11529SOL    HW238376   5.856   3.538   3.302 -1.0245  1.6949 -0.3210
11530SOL     OW38377   6.264   8.448   3.928 -0.3568  0.1213  0.0090
11530SOL    HW138378   6.176   8.426   3.960 -0.3583  0.0471 -0.0468
11530SOL    HW238379   6.248   8.506   3.853 -0.4185 -1.3275 -1.1511
11531SOL     OW38380   7.966   5.300   8.528 -0.5501 -0.1493  0.5041
11531SOL    HW138381   7.940   5.367   8.464 -1.1395 -0.3033  0.5717
11531SOL    HW238382   7.941   5.337   8.613  3.6746  1.7665  1.1501
11532SOL     OW38383   1.178   9.930   4.199 -0.1323  0.1072 -0.2326
11532SOL    HW138384   1.129   9.914   4.279  1.2268  0.3261  0.6934
11532SOL    HW238385   1.143   9.867   4.135 -0.0155 -1.3496  1.0761
11533SOL     OW38386   1.501   8.107  10.252 -0.5853 -0.1941 -0.0223
11533SOL    HW138387   1.537   8.186  10.294 -0.3315 -0.6329  0.6029
11533SOL    HW238388   1.488   8.046  10.324  1.2098 -1.5004 -0.7230
11534SOL     OW38389   5.961   8.116   1.830 -0.1600 -0.1803  0.2314
11534SOL    HW138390   5.967   8.024   1.806  1.8301  0.2260 -1.0869
11534SOL    HW238391   5.887   8.150   1.780  1.2244 -0.3481 -2.0794
11535SOL     OW38392   4.933   0.820   2.364 -0.5541  0.1401  0.6380
11535SOL    HW138393   4.936   0.832   2.269  1.1458  1.6354  0.8426
11535SOL    HW238394   5.004   0.759   2.382  1.4653  2.5130  1.2299
11536SOL     OW38395   9.160   7.182   1.536  0.0507 -0.2476  0.3170
11536SOL    HW138396   9.142   7.275   1.547 -1.4054 -0.4758  0.0355
11536SOL    HW238397   9.076   7.139   1.553  0.7272 -1.5213  0.5572
11537SOL     OW38398   9.108   5.114   0.728  0.3134 -0.5338 -0.0145
11537SOL    HW138399   9.098   5.080   0.817  1.6426 -0.0393  0.3571
11537SOL    HW238400   9.171   5.055   0.687 -0.1447 -0.6433 -0.5640
11538SOL     OW38401   8.877   0.020   9.359  0.2854  0.4194 -0.2368
11538SOL    HW138402   8.899   0.047   9.448  1.8219  0.3689 -0.5665
11538SOL    HW238403   8.784   0.002   9.362  0.2611  0.6282  1.3081
11539SOL     OW38404   6.888   2.904   9.394  1.0640  0.1052 -0.1645
11539SOL    HW138405   6.896   2.835   9.327 -0.8149  0.8779 -1.2500
11539SOL    HW238406   6.866   2.856   9.474  1.0008 -0.6607 -0.6249
11540SOL     OW38407   8.454   6.362   7.446 -0.0680  0.0584 -0.2937
11540SOL    HW138408   8.382   6.425   7.443 -1.3924 -1.3391  0.6331
11540SOL    HW238409   8.411   6.276   7.454  1.7000 -0.7955  0.6694
11541SOL     OW38410   1.985   8.101   2.728  0.0523 -0.6265  0.0646
11541SOL    HW138411   1.994   8.026   2.788  0.1006 -1.3274 -0.7953
11541SOL    HW238412   1.892   8.125   2.733  0.1783 -0.2751  0.8813
11542SOL     OW38413   8.853  10.359   4.159  0.3249 -0.4075 -0.3306
11542SOL    HW138414   8.900  10.388   4.080  0.2957 -2.0299 -0.9772
11542SOL    HW238415   8.852  10.437   4.215  1.6097  0.3826 -1.3178
11543SOL     OW38416   6.393   5.797   1.269 -0.3566  0.5746  0.0395
11543SOL    HW138417   6.318   5.738   1.271  0.5123 -0.6472 -1.4367
11543SOL    HW238418   6.376   5.855   1.195 -0.8057  1.6899  0.9780
11544SOL     OW38419   0.998   2.235   8.261  0.3289 -0.2001 -0.4393
11544SOL    HW138420   0.927   2.202   8.316  0.9891 -1.0834 -0.0855
11544SOL    HW238421   0.956   2.295   8.200 -0.8136 -1.1384 -0.5958
11545SOL     OW38422   0.184   3.252   6.259  0.2173 -0.1912 -0.0039
11545SOL    HW138423   0.205   3.250   6.352 -0.5149  0.4278  0.1879
11545SOL    HW238424   0.220   3.336   6.228 -0.5145  0.1230 -0.0250
11546SOL     OW38425   7.073   3.387   8.296  0.2918 -0.4772  0.1224
11546SOL    HW138426   7.127   3.314   8.266  0.8331 -0.0239 -0.0302
11546SOL    HW238427   7.043   3.430   8.216 -0.1682 -0.6346  0.2088
11547SOL     OW38428   4.941   5.734   9.918 -0.5295 -0.2750 -0.1800
11547SOL    HW138429   4.858   5.781   9.928 -1.5706 -1.5273 -2.2006
11547SOL    HW238430   4.955   5.693  10.003 -1.0041  1.3957  0.7652
11548SOL     OW38431   8.872   4.546   0.314  0.0192  0.0273 -0.3251
11548SOL    HW138432   8.843   4.493   0.240  2.3221 -1.1237 -0.4713
11548SOL    HW238433   8.967   4.553   0.304  0.1020  1.9524  1.1788
11549SOL     OW38434   3.455   6.501   3.387 -0.3497  0.1698 -0.1975
11549SOL    HW138435   3.406   6.545   3.318 -0.3021 -0.5724 -0.7123
11549SOL    HW238436   3.392   6.442   3.428 -0.2317  0.2007  0.0336
11550SOL     OW38437   3.677  10.222   3.984  0.5097  0.3450  0.4817
11550SOL    HW138438   3.702  10.283   3.915  2.6107  0.7020  1.4690
11550SOL    HW238439   3.638  10.277   4.052  1.3259  0.4318  0.8826
11551SOL     OW38440   2.171   9.450   0.468  0.0512  0.4197  0.0568
11551SOL    HW138441   2.258   9.483   0.445 -0.6166  2.4327  0.2580
11551SOL    HW238442   2.117   9.467   0.391 -0.2413 -0.6148  0.0141
11552SOL     OW38443   7.112   0.079   0.704 -0.3393  0.9992  0.1423
11552SOL    HW138444   7.091   0.088   0.611  0.7119  1.8574 -0.0232
11552SOL    HW238445   7.140   0.166   0.731 -2.4430  1.2425  1.7638
11553SOL     OW38446   2.161   3.752   1.218 -0.4115 -0.6404  0.1052
11553SOL    HW138447   2.243   3.801   1.213 -0.1475 -1.2054 -2.5423
11553SOL    HW238448   2.187   3.660   1.217 -1.0243 -0.8745  2.0204
11554SOL     OW38449   1.784   7.966   1.770  0.0835  0.0624 -0.4821
11554SOL    HW138450   1.869   7.977   1.811 -0.7923 -0.6786  1.6777
11554SOL    HW238451   1.780   7.873   1.748 -0.5842 -0.1379  0.4535
11555SOL     OW38452   3.774   2.706   6.697  0.4381 -0.3956  0.2994
11555SOL    HW138453   3.830   2.669   6.766  0.4769  2.4017  1.8957
11555SOL    HW238454   3.754   2.794   6.727  1.6287  1.5734 -3.9182
11556SOL     OW38455   3.312   9.791   7.040 -0.0865 -0.0405  0.0262
11556SOL    HW138456   3.237   9.744   7.003 -0.5750  0.5740  0.2031
11556SOL    HW238457   3.293   9.797   7.134  0.9504 -1.2393  0.3345
11557SOL     OW38458   1.554   5.819   2.958  0.0227  0.0324  0.4839
11557SOL    HW138459   1.584   5.853   3.043 -0.8695 -0.9852  1.2413
11557SOL    HW238460   1.562   5.724   2.967 -0.6752 -0.1153 -0.3527
11558SOL     OW38461  10.139   4.617   2.631  0.2003 -0.1365  0.2752
11558SOL    HW138462  10.119   4.674   2.557  0.2531  0.8397  1.0011
11558SOL    HW238463  10.229   4.639   2.655  0.4059 -0.9078  0.2296
11559SOL     OW38464   0.941   0.140   4.130  0.0737  0.7697  0.6500
11559SOL    HW138465   0.904   0.078   4.193  2.3443 -0.5957  0.7678
11559SOL    HW238466   1.022   0.171   4.172 -0.1196  2.4878 -0.1680
11560SOL     OW38467   2.044   7.288  10.318 -0.2649 -0.4726  0.1850
11560SOL    HW138468   2.132   7.282  10.279 -0.1226 -0.9215  0.5635
11560SOL    HW238469   2.055   7.253  10.406 -0.5596  0.6196  0.6810
11561SOL     OW38470   9.933   4.428   8.589 -0.4473 -0.3273  0.9966
11561SOL    HW138471  10.007   4.478   8.624 -2.0369  2.0741  1.1162
11561SOL    HW238472   9.884   4.400   8.667 -0.0390 -1.3766  0.8949
11562SOL     OW38473   7.552   8.124   4.616 -0.1557  0.5006  0.4283
11562SOL    HW138474   7.533   8.052   4.676  1.5344 -0.3988 -0.0758
11562SOL    HW238475   7.487   8.115   4.546  0.0167 -0.5029  0.3952
11563SOL     OW38476   7.871   3.487   7.503  1.1527 -0.1851 -0.0089
11563SOL    HW138477   7.877   3.466   7.410 -0.1825 -1.6681  0.2079
11563SOL    HW238478   7.917   3.571   7.512  1.3382 -0.0450 -1.9791
11564SOL     OW38479   7.917   1.104   7.096  0.3323  0.0576 -0.6594
11564SOL    HW138480   7.898   1.193   7.069  1.2735  0.6838  0.6643
11564SOL    HW238481   7.837   1.055   7.076 -0.3835  1.2977 -0.8816
11565SOL     OW38482   3.747   6.161   1.466 -0.3942  0.1842 -0.0162
11565SOL    HW138483   3.664   6.123   1.436 -0.4297 -0.7210  1.1649
11565SOL    HW238484   3.721   6.223   1.535 -0.0282 -1.2702  1.4960
11566SOL     OW38485   3.279   5.209   2.513 -0.3877  0.1914 -0.0208
11566SOL    HW138486   3.277   5.192   2.418  0.1493  0.1559 -0.0299
11566SOL    HW238487   3.320   5.130   2.550  0.5238  0.7088  0.1139
11567SOL     OW38488   1.807  10.240   5.751  0.1956 -0.1637 -0.0005
11567SOL    HW138489   1.886  10.188   5.736 -0.1743 -0.9983  0.8189
11567SOL    HW238490   1.737  10.175   5.758 -0.1156  0.3210  2.1513
11568SOL     OW38491   0.286   1.561   0.232 -0.3860 -0.1611 -0.5791
11568SOL    HW138492   0.241   1.500   0.291  0.3947 -0.5130 -0.3341
11568SOL    HW238493   0.218   1.622   0.205 -0.9628 -0.5456 -0.0370
11569SOL     OW38494   7.531   4.311   0.024  0.4642  0.5778 -0.0216
11569SOL    HW138495   7.569   4.225   0.005  0.6150  0.7658 -0.6156
11569SOL    HW238496   7.607   4.368   0.038  0.3669  0.1414  2.7539
11570SOL     OW38497  10.241   8.845   2.647 -0.4137 -0.3344  0.4602
11570SOL    HW138498  10.289   8.927   2.659  0.6069 -1.0355  1.3786
11570SOL    HW238499  10.275   8.787   2.715 -0.2870 -1.8968 -0.8591
11571SOL     OW38500   7.747   8.239   4.420  0.5199  0.3620 -0.0111
11571SOL    HW138501   7.656   8.248   4.389  0.6423  1.1170 -0.1814
11571SOL    HW238502   7.739   8.192   4.503 -0.2256  2.0842  0.9494
11572SOL     OW38503   8.567   9.345   0.626  0.0430 -0.4804  0.2958
11572SOL    HW138504   8.614   9.425   0.605 -0.5926 -0.0685  0.3960
11572SOL    HW238505   8.563   9.343   0.722  1.4576 -1.4778  0.3626
11573SOL     OW38506   5.792   9.843   3.332  0.2282  0.2548 -0.4922
11573SOL    HW138507   5.739   9.922   3.317 -2.0520 -1.0354  0.3784
11573SOL    HW238508   5.729   9.775   3.356  2.0680 -1.9596 -1.5139
11574SOL     OW38509   9.383   4.438   0.282 -0.6007 -0.1167 -0.4003
11574SOL    HW138510   9.386   4.346   0.256  0.9244  0.1859 -1.4360
11574SOL    HW238511   9.474   4.466   0.281 -1.0515  1.4585 -0.2786
11575SOL     OW38512   0.400   8.741   8.640 -0.2538  0.0329  0.1306
11575SOL    HW138513   0.327   8.745   8.578 -0.0380  0.8596 -0.0887
11575SOL    HW238514   0.370   8.683   8.709 -0.3730 -1.1915 -0.9145
11576SOL     OW38515  10.033   4.298   9.798  0.2408 -0.1081 -0.6103
11576SOL    HW138516  10.033   4.218   9.851 -1.3178 -0.7424 -1.5239
11576SOL    HW238517  10.098   4.281   9.730  1.4288  0.2726  0.3636
11577SOL     OW38518   3.635   9.571   5.164 -0.6939 -0.9479 -0.0237
11577SOL    HW138519   3.666   9.628   5.234 -0.2473 -1.0845 -0.1086
11577SOL    HW238520   3.544   9.598   5.150 -0.7550 -0.8465  0.5307
11578SOL     OW38521   9.283   0.857   2.332 -0.0776  0.4269  1.0558
11578SOL    HW138522   9.316   0.772   2.359  1.0121  1.1604  2.1502
11578SOL    HW238523   9.202   0.838   2.284  1.6149 -1.4153 -1.2831
11579SOL     OW38524   1.922   3.244   0.404 -0.0566  0.6303 -0.5339
11579SOL    HW138525   1.837   3.285   0.414 -0.0034  0.6675 -0.2043
11579SOL    HW238526   1.941   3.249   0.310  0.1828  1.8291 -0.4375
11580SOL     OW38527   9.054   0.132   0.737 -0.0192 -0.1967 -0.1008
11580SOL    HW138528   8.997   0.059   0.760 -0.6223  0.4775  0.6261
11580SOL    HW238529   8.994   0.201   0.707  0.3179  0.7558  1.3002
11581SOL     OW38530   8.800   3.114   8.107  0.1616 -0.0097 -0.7450
11581SOL    HW138531   8.751   3.069   8.038 -4.0347  0.3313  1.6721
11581SOL    HW238532   8.802   3.205   8.079 -2.8952  0.4211  0.0601
11582SOL     OW38533   2.558   0.129   2.828 -0.1291  0.4159 -0.0321
11582SOL    HW138534   2.653   0.122   2.838 -0.2706 -3.0393  0.1332
11582SOL    HW238535   2.538   0.079   2.749 -1.8631  0.4043  0.3664
11583SOL     OW38536   3.661   5.531   2.260 -0.3397 -0.3459 -0.1969
11583SOL    HW138537   3.596   5.543   2.329  1.2033  0.8688  1.1056
11583SOL    HW238538   3.647   5.441   2.230 -2.2411 -0.2946  0.4024
11584SOL     OW38539   9.110   0.599   9.255  0.0943 -0.2296  0.0070
11584SOL    HW138540   9.198   0.627   9.231 -0.9985  2.1826 -1.5292
11584SOL    HW238541   9.054   0.674   9.235 -2.6827 -2.4992 -1.5059
11585SOL     OW38542   2.449   0.433   0.767 -0.1466  0.1842  0.2605
11585SOL    HW138543   2.523   0.478   0.807  0.1579  0.3471 -0.4693
11585SOL    HW238544   2.466   0.340   0.780 -0.0784  0.2372  0.5506
11586SOL     OW38545   6.312   5.975   1.586  0.6959 -0.1486 -0.0627
11586SOL    HW138546   6.272   5.908   1.641  0.8395 -0.7259 -0.6562
11586SOL    HW238547   6.385   6.009   1.639 -0.9439  1.4247  1.3341
11587SOL     OW38548   2.992   9.238   8.705  0.6564 -0.3128  0.0337
11587SOL    HW138549   3.031   9.188   8.777  1.3032  1.1735  0.7621
11587SOL    HW238550   2.898   9.220   8.713  0.5927  0.5425  1.8892
11588SOL     OW38551   3.036   6.916   5.300  0.5022 -0.1892 -0.4683
11588SOL    HW138552   3.120   6.871   5.309  0.9875  0.7830  0.0191
11588SOL    HW238553   3.057   6.999   5.257 -0.2534 -0.0459 -0.5860
11589SOL     OW38554   1.675   7.610   9.686  0.6692  0.5159  0.0544
11589SOL    HW138555   1.601   7.591   9.628 -0.4349  1.1421  1.1985
11589SOL    HW238556   1.712   7.692   9.652  0.0195  0.8885  0.2239
11590SOL     OW38557   1.666   8.278   2.870 -0.1977  0.3401  0.3002
11590SOL    HW138558   1.705   8.282   2.783 -0.8948  0.3182 -0.0162
11590SOL    HW238559   1.578   8.244   2.856 -0.4358  0.6513  0.9717
11591SOL     OW38560   6.207   7.268   1.975  0.4013  0.1030  0.2675
11591SOL    HW138561   6.182   7.198   1.914 -0.6096  0.4680  0.2535
11591SOL    HW238562   6.127   7.319   1.987  0.7353  0.3663  1.4608
11592SOL     OW38563   6.935   9.826   5.741  0.3938  0.8024  0.1378
11592SOL    HW138564   6.935   9.870   5.826  2.0931  1.8094 -0.3199
11592SOL    HW238565   6.885   9.884   5.684 -0.3019  0.3898  0.3257
11593SOL     OW38566   5.767   7.261   3.353  0.1503  0.4869  0.3075
11593SOL    HW138567   5.788   7.215   3.271  1.4891 -0.6453  1.2435
11593SOL    HW238568   5.683   7.223   3.381  0.0903  0.2936 -0.1244
11594SOL     OW38569   8.621   1.420   1.970  0.1563 -0.2280  0.6091
11594SOL    HW138570   8.656   1.430   2.059 -1.4083  0.8802  1.1471
11594SOL    HW238571   8.567   1.341   1.973  0.9865 -0.8159  0.3239
11595SOL     OW38572   5.178   3.655   7.315  0.4170  0.0794 -0.7833
11595SOL    HW138573   5.177   3.567   7.276 -1.4609 -0.3940  0.1894
11595SOL    HW238574   5.186   3.640   7.409 -2.0096  0.7632 -0.3890
11596SOL     OW38575   2.414   4.944   2.368 -0.3185 -0.3849  0.3961
11596SOL    HW138576   2.476   4.894   2.421  0.0721 -1.1604 -0.7608
11596SOL    HW238577   2.466   4.974   2.293 -1.4244 -1.4469 -0.8363
11597SOL     OW38578   5.881   9.542   2.218 -0.3027 -0.0031 -0.0359
11597SOL    HW138579   5.839   9.547   2.132 -0.2752 -1.1470 -0.1294
11597SOL    HW238580   5.880   9.632   2.250 -1.0398  0.3095 -0.8868
11598SOL     OW38581   9.464   8.457   5.678  0.0028 -0.4637  0.2100
11598SOL    HW138582   9.478   8.376   5.629  0.1732 -0.4346  0.2112
11598SOL    HW238583   9.389   8.438   5.734 -3.0248  0.7890 -3.0267
11599SOL     OW38584   4.592   6.137   5.723 -0.1500 -0.5642 -0.1713
11599SOL    HW138585   4.620   6.201   5.657 -1.4839  0.3890  0.1354
11599SOL    HW238586   4.671   6.118   5.773 -0.0411  2.3392  0.9395
11600SOL     OW38587   2.066   8.342   2.588 -0.2120  0.1191 -0.3313
11600SOL    HW138588   2.053   8.277   2.657  0.7648 -0.9659 -1.1126
11600SOL    HW238589   2.129   8.404   2.625 -1.4948  0.9281  0.5877
11601SOL     OW38590   7.526  10.007   3.402 -0.1915  0.5396  0.1347
11601SOL    HW138591   7.532  10.093   3.360  0.2434  0.0997 -0.7267
11601SOL    HW238592   7.609   9.964   3.382 -0.5818 -0.2534  0.1817
11602SOL     OW38593   5.227   5.309   1.559  0.6163 -0.6132  0.3283
11602SOL    HW138594   5.140   5.346   1.574  1.4114  0.8017  1.7591
11602SOL    HW238595   5.228   5.228   1.611  0.2720 -0.4645  0.5710
11603SOL     OW38596   4.181   8.127   5.650 -0.0221 -0.3225 -0.8994
11603SOL    HW138597   4.124   8.050   5.656  1.0140 -1.1658 -1.3635
11603SOL    HW238598   4.166   8.174   5.731 -1.2162 -0.6273 -0.9237
11604SOL     OW38599   4.564   3.570   4.040 -0.6737 -0.0992 -0.2569
11604SOL    HW138600   4.562   3.666   4.035 -1.1477 -0.1343 -0.8078
11604SOL    HW238601   4.539   3.541   3.953 -2.7279 -0.7427  0.4850
11605SOL     OW38602   9.043   3.524   2.343  0.0624  0.5964 -0.1482
11605SOL    HW138603   8.989   3.565   2.411  0.0054 -0.3898  0.4161
11605SOL    HW238604   8.980   3.485   2.282  0.0252 -2.2689  1.5381
11606SOL     OW38605   7.091   7.123   7.982 -0.7315  0.2686 -0.1393
11606SOL    HW138606   7.063   7.042   8.024  1.9988  0.0329  1.4972
11606SOL    HW238607   7.049   7.192   8.034 -0.7593 -0.0633  0.2857
11607SOL     OW38608   0.446   2.383   9.161  0.1776  0.0059 -0.0055
11607SOL    HW138609   0.472   2.395   9.069 -1.4137 -0.6759 -0.5776
11607SOL    HW238610   0.512   2.431   9.211  2.6082 -1.7009 -1.3365
11608SOL     OW38611   5.411   2.647   2.554 -0.1183  0.1504 -0.0606
11608SOL    HW138612   5.437   2.571   2.606 -1.2321  0.1059  0.4635
11608SOL    HW238613   5.386   2.713   2.619  0.6732  0.9208 -0.5077
11609SOL     OW38614   8.927   0.411   2.681 -0.5611  0.0797  0.1749
11609SOL    HW138615   8.969   0.463   2.750 -0.8601 -0.0386  0.4489
11609SOL    HW238616   8.835   0.436   2.685 -0.6180 -0.0953 -0.0307
11610SOL     OW38617   3.173   6.297   7.274 -0.1401  0.1248 -0.0316
11610SOL    HW138618   3.178   6.207   7.241 -1.1391 -0.2353  0.7271
11610SOL    HW238619   3.258   6.335   7.253  0.8050 -1.4197  0.7864
11611SOL     OW38620   2.527   2.386   2.456 -0.1484  0.0619 -0.4655
11611SOL    HW138621   2.569   2.327   2.392  1.3108  1.2471 -0.6514
11611SOL    HW238622   2.513   2.467   2.408 -0.9663  0.2954  0.1542
11612SOL     OW38623   7.885   2.152   5.250 -0.2860  0.1808 -0.0732
11612SOL    HW138624   7.794   2.129   5.232 -0.5091  1.7595 -1.1327
11612SOL    HW238625   7.881   2.241   5.286  0.8880  0.7238 -1.2005
11613SOL     OW38626   8.178   9.812  10.068  0.0858 -0.4582 -0.0797
11613SOL    HW138627   8.120   9.742  10.098  0.7097 -0.6812  0.6179
11613SOL    HW238628   8.119   9.884  10.048 -0.3774 -0.3289  1.6146
11614SOL     OW38629   7.864   0.983   2.159 -0.1539 -0.6196  0.1762
11614SOL    HW138630   7.931   0.935   2.108 -0.4115 -1.4226  0.5776
11614SOL    HW238631   7.801   1.013   2.093 -0.1189 -1.0534 -0.0614
11615SOL     OW38632   2.329   9.865   8.174  0.0827  0.1698  0.2152
11615SOL    HW138633   2.255   9.877   8.233  1.3916  3.1755  1.4612
11615SOL    HW238634   2.294   9.885   8.087 -0.9007  0.0290  0.5669
11616SOL     OW38635   4.936   9.889   7.963  0.0909 -0.2254 -0.0067
11616SOL    HW138636   5.019   9.924   7.931 -0.5262  0.2678 -1.1399
11616SOL    HW238637   4.870   9.935   7.911 -0.7894 -2.7899 -1.3119
11617SOL     OW38638   6.179   3.202   8.459 -0.2912  0.6224 -0.0290
11617SOL    HW138639   6.194   3.265   8.529 -0.6465 -1.2315  1.7967
11617SOL    HW238640   6.084   3.204   8.446 -0.4989 -0.6411  1.1557
11618SOL     OW38641   1.333   7.698   4.722 -0.2792 -0.2106  0.3831
11618SOL    HW138642   1.266   7.673   4.658 -1.4220  1.6635  0.7509
11618SOL    HW238643   1.405   7.732   4.670  0.1007 -1.5599  0.0044
11619SOL     OW38644   1.614   9.781   9.855  0.5100  0.0553 -0.5391
11619SOL    HW138645   1.688   9.835   9.883  0.5437  0.2822 -1.0444
11619SOL    HW238646   1.655   9.698   9.828  0.5756  0.1545 -0.7510
11620SOL     OW38647   5.540   2.518   1.066 -0.1724  0.0540  0.4818
11620SOL    HW138648   5.607   2.511   0.998  0.0277  1.3366  0.5331
11620SOL    HW238649   5.491   2.436   1.059  1.5895 -1.0746  0.6790
11621SOL     OW38650   3.426   6.377   1.050 -0.0446 -0.0246  0.3345
11621SOL    HW138651   3.373   6.304   1.018 -0.5254  1.1146 -1.6925
11621SOL    HW238652   3.496   6.386   0.986 -0.1083  1.3806  0.4227
11622SOL     OW38653   7.633   2.904   0.799  0.5142  0.6931  0.6487
11622SOL    HW138654   7.594   2.861   0.875 -3.0903  0.3147 -1.1833
11622SOL    HW238655   7.652   2.993   0.830  1.0167  0.0060  2.4746
11623SOL     OW38656   9.936   3.120   4.089 -0.2216  0.1263  0.6381
11623SOL    HW138657  10.008   3.176   4.059  1.4357 -2.3188 -0.2787
11623SOL    HW238658   9.958   3.101   4.181 -1.6815  2.2031  1.4825
11624SOL     OW38659   4.895   3.217   2.625  0.2360  0.3893  0.0366
11624SOL    HW138660   4.802   3.216   2.601  0.2102  2.8815 -0.1217
11624SOL    HW238661   4.896   3.176   2.712 -0.7854 -0.8958 -0.5063
11625SOL     OW38662   1.006   1.358   3.759 -0.2229  0.5081  0.6512
11625SOL    HW138663   1.034   1.334   3.670 -0.0740  0.0483  0.8180
11625SOL    HW238664   0.925   1.407   3.747  0.1280  0.9886  0.2199
11626SOL     OW38665   5.517   0.401   3.161 -0.3798 -0.0542 -0.5761
11626SOL    HW138666   5.495   0.428   3.072 -0.4747  1.0988 -0.2302
11626SOL    HW238667   5.532   0.307   3.156 -0.5352 -0.0217 -1.7748
11627SOL     OW38668   7.487   3.198   1.030  0.1360 -0.1110  0.4585
11627SOL    HW138669   7.577   3.216   1.002 -0.5630  1.5366 -0.9546
11627SOL    HW238670   7.493   3.118   1.082  2.1060 -1.3708 -1.5235
11628SOL     OW38671   4.299   8.779   9.703  0.6246  0.2423  0.1221
11628SOL    HW138672   4.228   8.812   9.757 -0.0314 -0.6484 -0.1807
11628SOL    HW238673   4.311   8.846   9.635 -0.3409  0.1094 -0.1855
11629SOL     OW38674   2.954   2.964   1.838 -0.0881  0.1025  0.0892
11629SOL    HW138675   2.914   2.913   1.908 -3.2512  1.5459 -0.4659
11629SOL    HW238676   3.001   2.900   1.785 -0.8960 -1.6283  1.3730
11630SOL     OW38677   4.087   6.998   2.153  0.2466 -0.3046  0.2073
11630SOL    HW138678   4.043   7.065   2.204  0.7941  0.1646  0.0766
11630SOL    HW238679   4.112   6.932   2.217 -0.7838 -0.6649  0.2553
11631SOL     OW38680   8.897   4.320   0.735 -0.1502  0.6324 -0.4862
11631SOL    HW138681   8.990   4.324   0.713 -0.2646  1.2200 -0.9173
11631SOL    HW238682   8.853   4.318   0.650 -0.4921 -1.4528 -0.2958
11632SOL     OW38683   6.452   6.084   4.272 -0.1109  0.6729 -0.0319
11632SOL    HW138684   6.366   6.126   4.277  0.8409  2.7478  0.1210
11632SOL    HW238685   6.461   6.061   4.179 -1.5966 -1.4393  0.2735
11633SOL     OW38686   2.235   4.174   7.398 -0.2398  0.5576 -0.2917
11633SOL    HW138687   2.265   4.264   7.399 -0.1409  0.5345  0.8482
11633SOL    HW238688   2.308   4.124   7.362 -0.2311  0.9121 -0.7637
11634SOL     OW38689   1.063   6.776   8.146  0.1259 -0.1698  0.4066
11634SOL    HW138690   1.017   6.857   8.121 -3.0486 -2.2043 -0.9731
11634SOL    HW238691   1.020   6.749   8.227 -0.2507 -1.4623 -0.2023
11635SOL     OW38692   0.701   0.285   0.544  0.1694 -0.1921  0.3473
11635SOL    HW138693   0.749   0.343   0.486  1.6246  0.0024  1.6709
11635SOL    HW238694   0.694   0.202   0.496 -1.5085  0.8570 -1.3575
11636SOL     OW38695   0.205   6.259   3.509  0.6423  0.4136  0.2778
11636SOL    HW138696   0.269   6.329   3.495  0.9328  0.3497  1.2185
11636SOL    HW238697   0.258   6.183   3.533  0.2623  0.1664  0.3482
11637SOL     OW38698   6.861   3.726   9.916  0.1882 -0.8424  0.1391
11637SOL    HW138699   6.793   3.760   9.858  1.7701 -1.8489 -2.4694
11637SOL    HW238700   6.834   3.637   9.936 -1.8674  0.3498  3.6255
11638SOL     OW38701   6.845   7.170   2.136  0.0005  0.6363  0.6246
11638SOL    HW138702   6.853   7.217   2.218  0.5467  0.7157  0.5324
11638SOL    HW238703   6.753   7.147   2.130  0.3581 -1.8102  2.6351
11639SOL     OW38704   5.312   4.350   4.650 -0.0619 -0.2719 -0.4267
11639SOL    HW138705   5.282   4.315   4.734 -0.0266 -0.2976 -0.4248
11639SOL    HW238706   5.405   4.328   4.647  0.1306  0.4604 -0.0965
11640SOL     OW38707   5.987   5.585   8.303  0.2184  0.0484  0.1907
11640SOL    HW138708   5.906   5.632   8.284 -0.0887 -1.2839 -2.3032
11640SOL    HW238709   5.958   5.496   8.324  0.9842 -0.7608 -1.8764
11641SOL     OW38710   7.404   4.674   3.244 -0.4491 -0.3011 -0.4951
11641SOL    HW138711   7.404   4.597   3.301 -1.0847  0.4744  0.5931
11641SOL    HW238712   7.313   4.683   3.216 -0.2987 -0.1809 -0.9498
11642SOL     OW38713   2.425   6.057   6.642 -0.6518 -0.6239 -0.0878
11642SOL    HW138714   2.415   5.975   6.594 -1.1189  0.8562 -2.7527
11642SOL    HW238715   2.491   6.106   6.592 -0.8630  0.8883  1.0305
11643SOL     OW38716   8.422   6.780   7.187  0.1212  0.0428 -0.5011
11643SOL    HW138717   8.463   6.694   7.200  0.5214  0.3383  0.2414
11643SOL    HW238718   8.353   6.764   7.122 -1.3204 -1.3183  1.2615
11644SOL     OW38719   1.467   5.202   3.972  1.0477  0.0472 -0.0466
11644SOL    HW138720   1.447   5.116   4.011  2.2842 -0.4256 -0.4052
11644SOL    HW238721   1.500   5.181   3.884  1.2094  0.9000 -0.1969
11645SOL     OW38722   2.509   3.888   2.402 -0.8796  0.3694 -0.0319
11645SOL    HW138723   2.573   3.939   2.353 -2.4660  2.8711  0.3426
11645SOL    HW238724   2.448   3.856   2.336  0.5687 -1.9530 -0.3791
11646SOL     OW38725   0.958   3.162   5.988  0.0538 -0.4471 -0.2134
11646SOL    HW138726   0.957   3.075   6.028  0.3268 -0.1814  0.3865
11646SOL    HW238727   1.020   3.212   6.041 -2.5490  1.1008  1.5669
11647SOL     OW38728  10.142   3.583   0.893 -0.0763 -0.5601  0.2598
11647SOL    HW138729  10.089   3.523   0.841 -0.9548 -2.4683  3.0966
11647SOL    HW238730  10.226   3.537   0.904  0.8177  0.6856 -0.9410
11648SOL     OW38731   9.542   9.567   3.227  1.2212 -0.3181  0.3251
11648SOL    HW138732   9.618   9.545   3.173  0.0118 -0.0808 -1.6001
11648SOL    HW238733   9.531   9.493   3.286  0.8062 -2.1606 -1.8989
11649SOL     OW38734   5.590   9.859  10.314  0.2459 -0.2540  0.2539
11649SOL    HW138735   5.557   9.784  10.265  0.7107 -0.4902  0.2942
11649SOL    HW238736   5.539   9.858  10.395  0.6196 -0.8472  0.4860
11650SOL     OW38737   2.084   4.138   2.195 -0.2263  0.0842 -0.3178
11650SOL    HW138738   2.125   4.189   2.125 -0.9180 -0.5487 -1.2173
11650SOL    HW238739   2.155   4.118   2.256  0.0465  2.1325  0.0873
11651SOL     OW38740   8.403   3.326   5.535  0.4339 -0.0671  0.1995
11651SOL    HW138741   8.366   3.413   5.520  0.1572 -0.2961 -0.4825
11651SOL    HW238742   8.355   3.292   5.610  1.0603  0.6542  0.9486
11652SOL     OW38743   6.891   1.901   2.951  0.5876 -0.0037 -0.5073
11652SOL    HW138744   6.798   1.920   2.964  0.5903  0.7784 -1.5317
11652SOL    HW238745   6.892   1.813   2.914  0.3938 -0.8095  1.2789
11653SOL     OW38746   7.170   1.993   2.282  0.0695  0.2588 -0.3143
11653SOL    HW138747   7.111   1.923   2.257  1.3741 -1.0098  0.0176
11653SOL    HW238748   7.187   1.978   2.375 -1.9033  2.7755  0.5555
11654SOL     OW38749   4.475   2.387   8.700  0.6633 -0.3556 -0.0477
11654SOL    HW138750   4.503   2.297   8.716 -2.4796 -1.3712  0.5021
11654SOL    HW238751   4.549   2.441   8.728  1.8266 -2.6878  1.6939
11655SOL     OW38752   9.744   4.948   0.398  0.8192  0.7600  0.5143
11655SOL    HW138753   9.830   4.966   0.361  0.6336 -0.0021 -0.3211
11655SOL    HW238754   9.760   4.934   0.491  1.8173 -0.8379  0.1263
11656SOL     OW38755   3.929   4.631   1.019 -0.0185 -0.5800 -0.4958
11656SOL    HW138756   3.840   4.662   1.032 -0.7008 -1.8637 -1.8212
11656SOL    HW238757   3.984   4.708   1.035 -1.3203  0.1697  0.5856
11657SOL     OW38758   7.479   5.108   8.573  0.4268  0.0771  0.3530
11657SOL    HW138759   7.553   5.163   8.548  0.7672  0.0081  1.1724
11657SOL    HW238760   7.407   5.137   8.516  1.1127  0.0417 -0.5557
11658SOL     OW38761   6.388   5.296   0.749  0.5250  0.3521  0.7009
11658SOL    HW138762   6.474   5.310   0.789  1.6403  0.3146 -1.5239
11658SOL    HW238763   6.384   5.362   0.679  0.6560 -2.3911 -2.0768
11659SOL     OW38764   4.259   1.552   3.066  0.1244  0.3040 -0.7894
11659SOL    HW138765   4.320   1.582   2.999 -1.9226  4.4146 -1.0867
11659SOL    HW238766   4.233   1.632   3.113 -1.5653 -1.8508  2.3456
11660SOL     OW38767   7.762   2.661   5.462  0.7275  0.1839  0.1255
11660SOL    HW138768   7.760   2.757   5.458  1.3681  0.2513  1.0586
11660SOL    HW238769   7.760   2.641   5.555 -1.8475 -0.8085 -0.0574
11661SOL     OW38770   9.718   3.172   7.793 -0.3897  0.0393 -0.3642
11661SOL    HW138771   9.740   3.219   7.874  0.6778  0.4580 -0.8753
11661SOL    HW238772   9.738   3.080   7.813  1.3487  0.3231 -0.5977
11662SOL     OW38773   6.459   7.619   0.851 -0.1111  0.6072  0.2073
11662SOL    HW138774   6.510   7.543   0.824  0.6313  0.6963  1.2928
11662SOL    HW238775   6.384   7.582   0.897 -0.5265  0.5081 -0.5228
11663SOL     OW38776   2.324   1.760  10.290  0.8247  0.4986 -0.2924
11663SOL    HW138777   2.252   1.720  10.339  1.5763  0.6941  1.0310
11663SOL    HW238778   2.285   1.835  10.247  0.2614  0.7193  0.5726
11664SOL     OW38779   1.183   1.643   5.903 -0.4828 -0.1268  0.3581
11664SOL    HW138780   1.215   1.635   5.992 -1.1741 -1.3600  0.5081
11664SOL    HW238781   1.167   1.553   5.874 -1.5743  0.3220 -0.5195
11665SOL     OW38782   3.670   5.046   7.001 -0.2312  0.4313 -0.1319
11665SOL    HW138783   3.599   5.021   6.942 -0.3630  1.1178 -0.2628
11665SOL    HW238784   3.746   4.998   6.968 -0.6511 -0.3928  0.0761
11666SOL     OW38785   6.562   1.390   6.038 -0.4522  0.0735 -0.4551
11666SOL    HW138786   6.644   1.401   6.087  0.3314 -1.4916 -1.3265
11666SOL    HW238787   6.536   1.478   6.014  1.0303  0.6040 -0.2217
11667SOL     OW38788   1.840   2.391   5.797  0.5568  0.2392  0.4500
11667SOL    HW138789   1.779   2.387   5.723  1.7815  1.7196 -0.7183
11667SOL    HW238790   1.909   2.329   5.773  1.3423  1.2766 -0.0769
11668SOL     OW38791   0.654   9.093   0.406  0.1311  0.0943  0.8145
11668SOL    HW138792   0.586   9.135   0.353  1.1435  0.2716 -0.3963
11668SOL    HW238793   0.644   8.999   0.388  1.8056  0.2584 -1.4891
11669SOL     OW38794   0.679   9.742   0.995  0.6216 -0.0898  0.3986
11669SOL    HW138795   0.640   9.823   1.028  1.4630  0.0241  1.1336
11669SOL    HW238796   0.769   9.744   1.027  1.5851  0.1532 -2.1295
11670SOL     OW38797   4.579   7.874   9.296  0.0677  0.3100 -0.3120
11670SOL    HW138798   4.666   7.834   9.294 -0.1483 -0.1494 -1.8365
11670SOL    HW238799   4.571   7.910   9.384  1.2311 -0.8934  0.3143
11671SOL     OW38800   3.347   6.374   4.096  0.4069 -0.2499 -0.2504
11671SOL    HW138801   3.271   6.339   4.143 -0.2003  2.5136  1.0904
11671SOL    HW238802   3.314   6.455   4.056  2.4897  0.7071 -0.1483
11672SOL     OW38803   1.341   5.515   0.214 -0.2341 -0.3529 -0.1839
11672SOL    HW138804   1.290   5.563   0.149  0.9923 -1.3930 -2.0043
11672SOL    HW238805   1.296   5.431   0.224 -0.5806 -0.0915  0.5758
11673SOL     OW38806   2.164   2.873   2.180 -0.4235  1.0595 -0.9611
11673SOL    HW138807   2.185   2.819   2.104  1.4845 -0.6804  0.6758
11673SOL    HW238808   2.082   2.836   2.213 -0.2009  0.4995 -1.0285
11674SOL     OW38809   5.017   4.756   9.200 -0.5067  0.2427  0.2977
11674SOL    HW138810   4.940   4.781   9.251  0.1162  1.3732  0.7068
11674SOL    HW238811   5.091   4.790   9.250  0.1700  0.6275 -0.9324
11675SOL     OW38812   9.359   1.527   8.941 -0.4039 -0.0020 -0.1774
11675SOL    HW138813   9.272   1.489   8.952 -0.4877  0.4226  0.7119
11675SOL    HW238814   9.392   1.487   8.860 -1.4134 -0.1731 -0.5255
11676SOL     OW38815   9.605   7.474   0.951  0.3469  0.5214 -0.1718
11676SOL    HW138816   9.595   7.481   0.856  0.9579 -0.0930 -0.2893
11676SOL    HW238817   9.700   7.472   0.965  0.3571  2.7534  0.6184
11677SOL     OW38818   8.565   1.507   6.275 -0.3006  0.1005  0.2321
11677SOL    HW138819   8.622   1.470   6.207 -0.9094  0.5519 -0.5530
11677SOL    HW238820   8.497   1.553   6.225 -2.4596 -2.0127  1.0496
11678SOL     OW38821   0.762   7.687   8.053 -0.2744  0.1441 -0.1212
11678SOL    HW138822   0.755   7.688   8.148 -0.6074 -1.5142 -0.1104
11678SOL    HW238823   0.694   7.627   8.024  1.2377 -1.1026 -1.2545
11679SOL     OW38824   4.387   1.449   6.234  0.2267  0.2045 -0.4149
11679SOL    HW138825   4.462   1.393   6.252  0.4939  1.2315  2.0660
11679SOL    HW238826   4.347   1.463   6.320 -1.9797  0.8497 -1.4786
11680SOL     OW38827   4.889   4.757   5.343 -0.0045  0.0467 -0.3437
11680SOL    HW138828   4.798   4.733   5.326 -1.4923  3.1142  2.2708
11680SOL    HW238829   4.921   4.687   5.401 -1.4856  0.0258  0.5149
11681SOL     OW38830   0.160   2.470   8.414 -0.4770 -0.0126  0.4899
11681SOL    HW138831   0.207   2.507   8.338  2.3749  0.3823  2.2973
11681SOL    HW238832   0.137   2.546   8.467 -0.1804 -0.4170  1.2142
11682SOL     OW38833   4.322   0.102   4.206 -0.1692 -0.1527 -0.7559
11682SOL    HW138834   4.255   0.138   4.148 -0.3447 -0.2281 -0.6006
11682SOL    HW238835   4.347   0.176   4.262  0.7161  0.1911 -1.5765
11683SOL     OW38836   0.231   9.158   3.958 -1.0009 -0.2229  0.4703
11683SOL    HW138837   0.227   9.064   3.939 -0.8911 -0.2705  0.6675
11683SOL    HW238838   0.164   9.171   4.025 -1.7232  0.0321 -0.2967
11684SOL     OW38839   6.962   9.326  10.186  0.0381  0.5669  0.2050
11684SOL    HW138840   6.933   9.266  10.117  0.7957 -1.1715  1.3344
11684SOL    HW238841   6.979   9.408  10.140 -0.4308 -0.2409 -1.5093
11685SOL     OW38842   2.013   7.077   4.386 -0.3444  0.2676  0.1432
11685SOL    HW138843   1.966   7.102   4.466  0.9858 -1.0251  1.4187
11685SOL    HW238844   2.105   7.096   4.406  0.1019 -0.8395 -0.7427
11686SOL     OW38845   2.494   8.121   9.262 -0.4199  0.2798  0.0662
11686SOL    HW138846   2.415   8.124   9.207 -1.6201 -0.6352  1.6477
11686SOL    HW238847   2.531   8.035   9.246  0.2686  0.6908 -0.6369
11687SOL     OW38848   1.561   6.870   2.454  0.8274 -0.1686 -0.2995
11687SOL    HW138849   1.568   6.936   2.385 -0.9286  3.3079  2.5094
11687SOL    HW238850   1.470   6.876   2.483  0.6185 -3.8291  0.3144
11688SOL     OW38851   2.339   5.877   5.247  0.5911 -0.0682 -0.4021
11688SOL    HW138852   2.433   5.870   5.229  0.7206 -0.5469  0.4012
11688SOL    HW238853   2.305   5.932   5.176  1.9297  2.4926  0.7881
11689SOL     OW38854   9.729   6.968   5.198  0.1175 -0.1689  0.4499
11689SOL    HW138855   9.687   7.013   5.271 -2.9414 -1.2973 -0.4555
11689SOL    HW238856   9.668   6.979   5.125  3.1637  1.1499 -2.1305
11690SOL     OW38857   2.768   3.485   4.226  0.0072  0.5143 -0.2668
11690SOL    HW138858   2.803   3.506   4.139 -1.0431 -0.4458 -0.9428
11690SOL    HW238859   2.678   3.516   4.224 -0.5042 -0.9292 -0.0824
11691SOL     OW38860   1.837   2.657   9.309 -0.3164  0.2967 -0.8395
11691SOL    HW138861   1.815   2.670   9.401 -0.0656 -0.9163 -0.5941
11691SOL    HW238862   1.931   2.638   9.309 -1.0645 -4.6983 -0.6978
11692SOL     OW38863   5.372   7.322   3.875 -0.1636 -0.1570 -0.2268
11692SOL    HW138864   5.284   7.288   3.886 -0.2827 -0.0001 -0.6695
11692SOL    HW238865   5.378   7.344   3.782 -0.1436  1.1706  0.0597
11693SOL     OW38866   2.475   4.581   3.078  0.4630  0.1571 -0.2599
11693SOL    HW138867   2.497   4.574   2.986 -0.1597  0.6684 -0.4522
11693SOL    HW238868   2.477   4.491   3.110 -0.6223 -0.1745 -1.0809
11694SOL     OW38869   3.814   5.329   5.014 -0.0968  0.0409 -0.1387
11694SOL    HW138870   3.903   5.343   5.046 -0.2645 -1.0551  0.8799
11694SOL    HW238871   3.801   5.398   4.949  0.4815  2.0114  1.7194
11695SOL     OW38872   2.149   3.896   4.754  0.5806 -0.2215 -0.1754
11695SOL    HW138873   2.122   3.930   4.669  2.7485 -1.2550 -1.3734
11695SOL    HW238874   2.169   3.804   4.737  0.6245 -0.5638  1.5708
11696SOL     OW38875   4.543   0.641   3.683  0.1392 -0.7574 -0.2222
11696SOL    HW138876   4.527   0.730   3.714 -0.8353 -1.0304  0.1129
11696SOL    HW238877   4.638   0.631   3.685  0.2752  0.3203 -0.4078
11697SOL     OW38878   9.132   2.255   2.027 -0.1127  0.3169 -0.4760
11697SOL    HW138879   9.151   2.314   2.100  2.3228  1.8951 -2.2737
11697SOL    HW238880   9.115   2.171   2.070 -0.1930  1.4697  1.9682
11698SOL     OW38881   0.818   0.649   7.152  0.0475 -0.3990  0.0129
11698SOL    HW138882   0.838   0.557   7.173 -1.9404 -2.0838 -4.1758
11698SOL    HW238883   0.729   0.662   7.184 -0.0791 -0.3563 -0.3461
11699SOL     OW38884   0.372   2.303   5.452  0.9903 -0.1114 -0.2795
11699SOL    HW138885   0.306   2.351   5.402  1.2906  1.7325  0.9897
11699SOL    HW238886   0.384   2.222   5.403 -0.3569  0.6042 -1.9276
11700SOL     OW38887   8.424   7.121   8.284  0.0351 -0.4067  0.2627
11700SOL    HW138888   8.409   7.181   8.211 -0.1824  2.6444  2.6125
11700SOL    HW238889   8.349   7.062   8.281 -0.9031  0.7541 -0.9605
11701SOL     OW38890   2.706   5.806   4.319  0.2725 -0.2941  0.2479
11701SOL    HW138891   2.665   5.770   4.240  0.8308 -0.7799  0.1789
11701SOL    HW238892   2.794   5.831   4.292  0.5842 -0.7713  0.7888
11702SOL     OW38893   3.903   3.629   3.321 -0.1425  0.2729  0.5408
11702SOL    HW138894   3.918   3.697   3.387  1.5992  0.1444  0.3298
11702SOL    HW238895   3.934   3.667   3.239 -0.7978 -0.1474  0.0850
11703SOL     OW38896   0.570   4.335   9.999  0.0677 -0.1958  0.0233
11703SOL    HW138897   0.579   4.246  10.035  0.4522 -1.5815 -3.1542
11703SOL    HW238898   0.477   4.345   9.982  0.2829 -1.1454 -2.0389
11704SOL     OW38899   5.611   7.304   2.542 -0.4432 -0.2343  0.3999
11704SOL    HW138900   5.643   7.387   2.578 -0.9310 -0.4142  1.2863
11704SOL    HW238901   5.639   7.238   2.605 -0.0856 -0.7411 -0.2872
11705SOL     OW38902   8.858   0.675   1.561  0.4348  0.3144  0.0705
11705SOL    HW138903   8.932   0.670   1.621  0.7873  0.9253 -0.3050
11705SOL    HW238904   8.781   0.669   1.618  0.7421 -1.4725  0.3655
11706SOL     OW38905   0.945   0.975   4.428 -0.1641 -0.2184  0.4840
11706SOL    HW138906   0.949   1.014   4.340 -0.2440 -1.6932 -0.2000
11706SOL    HW238907   1.036   0.969   4.456 -0.1180 -0.0147  0.3821
11707SOL     OW38908   2.202   8.599   3.877 -0.5444  0.2786 -0.1756
11707SOL    HW138909   2.212   8.504   3.872 -0.4866  0.2962 -0.4405
11707SOL    HW238910   2.254   8.632   3.803 -0.3093  0.5326  0.1005
11708SOL     OW38911   2.841   0.272   9.096  0.5178 -0.4577  0.0566
11708SOL    HW138912   2.806   0.345   9.147 -0.1280  1.2895 -2.6798
11708SOL    HW238913   2.770   0.208   9.094  0.5443 -0.5490  1.2626
11709SOL     OW38914   9.778   2.003   9.245  0.4496 -0.1283 -0.4130
11709SOL    HW138915   9.722   1.945   9.296  0.4702 -0.7854 -1.1215
11709SOL    HW238916   9.824   1.945   9.184  1.8214  0.4098  0.0746
11710SOL     OW38917   7.900   2.472   8.679  0.0633  0.3602  0.2316
11710SOL    HW138918   7.828   2.413   8.656 -0.2355 -0.1202  2.1998
11710SOL    HW238919   7.967   2.414   8.715  0.0796  1.1218  1.4868
11711SOL     OW38920   6.456   5.830   7.881 -0.0571  0.0572  0.1289
11711SOL    HW138921   6.381   5.815   7.824  0.7427 -0.3466 -0.8516
11711SOL    HW238922   6.483   5.742   7.909 -0.0664  0.2122  0.6467
11712SOL     OW38923   4.734   5.607   8.029 -0.3834 -0.3895 -0.1777
11712SOL    HW138924   4.783   5.606   7.947  0.6566 -2.1441  0.4249
11712SOL    HW238925   4.644   5.584   8.003 -0.2184 -0.2427 -0.9047
11713SOL     OW38926   5.028   6.912   8.684 -0.4264  0.0308  0.0437
11713SOL    HW138927   5.083   6.967   8.739 -0.2413 -0.9551  0.8772
11713SOL    HW238928   4.948   6.963   8.669  0.1046  0.8700  0.0535
11714SOL     OW38929   2.392   5.811   6.498 -0.3094  0.5794 -0.2656
11714SOL    HW138930   2.306   5.825   6.456 -0.4293 -1.4460 -0.7756
11714SOL    HW238931   2.384   5.727   6.542  1.3453  0.4992 -0.0589
11715SOL     OW38932   8.363   4.482   7.762  0.7042  0.8264  0.3763
11715SOL    HW138933   8.410   4.426   7.824 -0.6685  0.5287  1.1951
11715SOL    HW238934   8.343   4.561   7.812 -2.4214 -0.3224  1.1632
11716SOL     OW38935   1.327   0.884   0.050  0.0128 -0.3929  0.7720
11716SOL    HW138936   1.347   0.977   0.044 -0.7776 -0.3072 -1.3209
11716SOL    HW238937   1.409   0.843   0.078  0.8376  0.7500  0.1088
11717SOL     OW38938   7.414   2.651   5.215  0.1014  0.2162 -0.7143
11717SOL    HW138939   7.417   2.667   5.120  0.8762 -1.6162 -1.0404
11717SOL    HW238940   7.500   2.680   5.247  0.0184  0.3803 -0.6346
11718SOL     OW38941   5.732   3.502   0.584  0.4937  0.5530 -0.1018
11718SOL    HW138942   5.664   3.456   0.534 -0.2083  0.2818  1.0434
11718SOL    HW238943   5.768   3.434   0.641  0.3096  1.1434  0.7308
11719SOL     OW38944   6.169   6.666   6.465  0.2450  0.3232 -0.3774
11719SOL    HW138945   6.236   6.617   6.417  0.4145  0.1921 -0.0193
11719SOL    HW238946   6.090   6.612   6.458  0.0117  0.7793 -1.3176
11720SOL     OW38947   5.281   0.056   4.110  0.3382 -0.0738  0.2439
11720SOL    HW138948   5.199   0.029   4.068  0.3269 -0.7844  0.6921
11720SOL    HW238949   5.275   0.151   4.116 -0.8212 -0.1778  1.0115
11721SOL     OW38950   1.866   4.153   7.615  0.1697  0.0526 -0.6564
11721SOL    HW138951   1.910   4.071   7.592 -0.5197 -0.2310 -0.9901
11721SOL    HW238952   1.917   4.187   7.688  0.0083 -1.0738  0.0071
11722SOL     OW38953   1.645   8.813   7.928  0.0449 -0.5183  0.9091
11722SOL    HW138954   1.556   8.782   7.944 -0.7253  1.2470  0.3819
11722SOL    HW238955   1.636   8.873   7.854  1.5516  0.2669  1.3227
11723SOL     OW38956   1.993   5.443   3.639  0.7364 -0.5223 -0.0097
11723SOL    HW138957   1.903   5.432   3.607  0.6650  1.0078 -0.3920
11723SOL    HW238958   1.987   5.420   3.732 -0.3262  0.7347  0.2554
11724SOL     OW38959   4.784   3.291   1.195  0.3997  0.4022 -0.0619
11724SOL    HW138960   4.785   3.199   1.221 -0.1337  0.5377  0.4541
11724SOL    HW238961   4.694   3.319   1.209  0.5973  1.0490 -0.0579
11725SOL     OW38962   4.060   7.839   8.853 -0.0144  0.3243  0.2085
11725SOL    HW138963   3.973   7.857   8.889  0.5213  1.8503  0.8076
11725SOL    HW238964   4.115   7.822   8.929  0.7332  1.8152  0.0366
11726SOL     OW38965   0.765   5.766   2.040 -0.5263 -0.5830  0.0471
11726SOL    HW138966   0.672   5.744   2.038 -0.6568 -0.2961  1.5491
11726SOL    HW238967   0.780   5.800   2.128  0.6651  0.8804 -0.6692
11727SOL     OW38968   0.247   5.090   7.998  0.0579  0.2727  0.1808
11727SOL    HW138969   0.329   5.054   8.030  0.2133  0.5051  0.0438
11727SOL    HW238970   0.266   5.116   7.908 -0.2236  0.1327  0.0786
11728SOL     OW38971   1.890   5.803   0.667  0.4249 -0.3968 -0.4051
11728SOL    HW138972   1.867   5.752   0.589 -1.0999  0.2528 -0.4158
11728SOL    HW238973   1.932   5.882   0.633 -0.1817 -0.1433 -0.5704
11729SOL     OW38974   6.261   8.097   6.212  0.5618  0.0409 -0.0267
11729SOL    HW138975   6.346   8.087   6.255  0.4948 -0.9626 -0.1067
11729SOL    HW238976   6.204   8.135   6.280  0.6196 -0.9335  0.5864
11730SOL     OW38977   6.111   1.751   0.075 -0.2187  0.4792  0.1401
11730SOL    HW138978   6.104   1.819   0.008 -0.3440 -0.4902 -0.8564
11730SOL    HW238979   6.192   1.772   0.122 -0.8464  1.9632  0.6230
11731SOL     OW38980   2.484   7.547   4.072 -0.7063 -0.1023 -0.3549
11731SOL    HW138981   2.464   7.457   4.046  0.4615 -0.0406 -1.6230
11731SOL    HW238982   2.580   7.549   4.079 -0.8497  0.2086  3.0424
11732SOL     OW38983   2.432   3.645   3.292  0.1927 -0.0296 -0.3186
11732SOL    HW138984   2.502   3.617   3.232  0.2737 -2.1494  0.6781
11732SOL    HW238985   2.372   3.571   3.294  0.4656 -0.2613  2.6072
11733SOL     OW38986   0.585   2.918   2.592 -0.5892 -0.3720 -0.2238
11733SOL    HW138987   0.600   2.965   2.509 -0.0583 -2.4019 -1.3330
11733SOL    HW238988   0.491   2.900   2.592 -0.2426 -2.5559 -1.6937
11734SOL     OW38989   9.329   8.618   4.172 -0.0793 -0.2873  0.3134
11734SOL    HW138990   9.387   8.543   4.163  0.6008  0.2847 -0.2344
11734SOL    HW238991   9.242   8.581   4.179  0.2142 -1.1148 -0.2698
11735SOL     OW38992   2.597   7.710   9.660  0.0915  0.1795  0.5420
11735SOL    HW138993   2.541   7.643   9.620  0.1999  1.2277 -1.5085
11735SOL    HW238994   2.538   7.782   9.679  0.3212  0.3051  0.7751
11736SOL     OW38995   6.252   3.395   3.963 -0.0024  0.2720 -0.1256
11736SOL    HW138996   6.241   3.489   3.979  0.3461 -0.1455  3.1841
11736SOL    HW238997   6.342   3.376   3.988 -0.1666 -1.0072 -0.4095
11737SOL     OW38998   1.377   7.625   0.925  0.1945  0.2477  0.5445
11737SOL    HW138999   1.444   7.561   0.949 -1.3257 -1.1551  1.2508
11737SOL    HW239000   1.296   7.591   0.963 -0.8126  2.2564  0.3518
11738SOL     OW39001   8.315   8.525   6.971 -0.1295 -0.2816 -0.1826
11738SOL    HW139002   8.373   8.556   6.901  1.3261 -0.9866  0.6460
11738SOL    HW239003   8.371   8.467   7.023 -1.3560 -0.2810  1.1854
11739SOL     OW39004   8.753   0.146  10.202  0.2761  0.4123 -0.1302
11739SOL    HW139005   8.778   0.231  10.164 -1.2750  0.5792 -0.8503
11739SOL    HW239006   8.660   0.155  10.221  0.2409 -0.9155  0.4261
11740SOL     OW39007   5.275   3.421   2.576 -0.1249 -0.0588 -0.6176
11740SOL    HW139008   5.218   3.382   2.510  1.0050 -1.8597 -0.6011
11740SOL    HW239009   5.287   3.352   2.640  1.0356  0.7289  0.0355
11741SOL     OW39010   9.075   1.365   7.283  0.1317  0.5853 -0.0541
11741SOL    HW139011   9.105   1.456   7.287 -0.2613  0.6843  1.4598
11741SOL    HW239012   9.017   1.362   7.207 -0.6267  1.8710  0.4354
11742SOL     OW39013   0.186   3.068   4.194 -0.0119 -0.5458 -0.0684
11742SOL    HW139014   0.100   3.031   4.177  0.3099 -1.4032  0.1382
11742SOL    HW239015   0.228   3.071   4.109 -0.3010  0.0477 -0.1999
11743SOL     OW39016   2.232   0.027   2.016  0.2895 -0.2318 -0.0223
11743SOL    HW139017   2.223  -0.009   1.928  0.9058 -0.4844  0.0103
11743SOL    HW239018   2.143   0.028   2.051 -0.0747  0.6197 -0.9276
11744SOL     OW39019   0.683   3.816   0.294  0.5115 -0.3210  0.1273
11744SOL    HW139020   0.778   3.802   0.295  0.4327 -1.0393  2.0733
11744SOL    HW239021   0.653   3.784   0.379 -1.7092 -1.6309 -1.0543
11745SOL     OW39022   1.196   9.340   4.711  0.0834 -0.6032  0.1898
11745SOL    HW139023   1.106   9.308   4.718 -0.2004  0.3617  1.3601
11745SOL    HW239024   1.244   9.269   4.669 -1.3524 -0.8787 -1.0610
11746SOL     OW39025   8.560   3.507   7.539  0.7120 -0.3100 -0.0002
11746SOL    HW139026   8.623   3.506   7.611  1.0986  1.7788 -0.2598
11746SOL    HW239027   8.475   3.492   7.582  0.9662  0.6954  0.8938
11747SOL     OW39028   8.276   0.570   7.655 -0.4904 -0.1366 -0.0590
11747SOL    HW139029   8.292   0.508   7.726 -2.4265  0.2159  0.7486
11747SOL    HW239030   8.319   0.530   7.579 -0.2633 -1.6260  0.8023
11748SOL     OW39031   8.650   3.016   8.303 -0.2766 -1.0004  0.6834
11748SOL    HW139032   8.603   2.953   8.247 -2.5904  0.5245  0.7537
11748SOL    HW239033   8.708   3.062   8.243 -1.2055 -0.7987 -0.0892
11749SOL     OW39034   7.166   5.530  10.289 -0.1365  0.1415 -0.5051
11749SOL    HW139035   7.122   5.445  10.288 -1.0685  0.5944  0.0559
11749SOL    HW239036   7.111   5.584  10.346  0.2180  1.2406 -1.1790
11750SOL     OW39037   1.974   1.038   4.022  0.2211  0.3154  0.2281
11750SOL    HW139038   2.032   0.962   4.033  2.1604  1.3613 -1.8682
11750SOL    HW239039   2.015   1.106   4.076  1.0707  1.0935 -1.3496
11751SOL     OW39040   0.154   1.275   0.657 -0.2184 -0.0179  0.2223
11751SOL    HW139041   0.089   1.334   0.697 -0.2517  0.8290 -1.0445
11751SOL    HW239042   0.101   1.215   0.604 -0.1274 -0.7778  0.9713
11752SOL     OW39043   0.917   5.994   0.771 -0.7992 -0.4005 -0.3447
11752SOL    HW139044   0.910   6.068   0.831  1.0004 -0.1339 -0.4356
11752SOL    HW239045   0.899   6.031   0.684 -4.6347 -1.0041  0.0158
11753SOL     OW39046   2.882   1.200   8.773 -0.2190 -0.1646 -0.0139
11753SOL    HW139047   2.843   1.236   8.694  1.5806  2.4473  0.1857
11753SOL    HW239048   2.811   1.205   8.838 -0.7972  0.5495 -0.6794
11754SOL     OW39049   0.053   6.567   2.712 -0.2813  0.6206  0.5090
11754SOL    HW139050   0.023   6.651   2.745 -0.7093  0.3766  0.7492
11754SOL    HW239051  -0.013   6.504   2.742  2.0773 -0.4792  3.9467
11755SOL     OW39052   6.557   2.758   8.753  0.1120 -0.0645 -0.2876
11755SOL    HW139053   6.631   2.814   8.731  0.4874 -0.3931  0.1040
11755SOL    HW239054   6.505   2.811   8.814  1.6771 -0.9189  1.9491
11756SOL     OW39055   1.775   2.848   7.770  0.0907  0.4284  0.3647
11756SOL    HW139056   1.850   2.907   7.771  0.5569 -0.0976 -0.6753
11756SOL    HW239057   1.722   2.877   7.695 -0.3068  0.2892  0.5891
11757SOL     OW39058   7.442   6.751   3.442 -0.1471  0.0386  0.2167
11757SOL    HW139059   7.501   6.679   3.464 -0.6001 -0.5285 -0.3789
11757SOL    HW239060   7.499   6.828   3.440  0.9221 -0.7132 -1.8713
11758SOL     OW39061   9.192   6.057   6.588  0.6094  0.1050 -0.0692
11758SOL    HW139062   9.135   6.131   6.609  1.0987  0.4457  0.0904
11758SOL    HW239063   9.152   5.982   6.632 -0.0910  0.1988 -0.5375
11759SOL     OW39064   8.986   6.955   3.425 -0.4322  0.7063  0.0737
11759SOL    HW139065   9.022   6.892   3.486  2.0775 -0.3452 -2.2732
11759SOL    HW239066   9.023   7.039   3.451  0.9297  0.2037 -0.1842
11760SOL     OW39067   7.134   9.460   8.959 -0.0101 -0.6172 -0.7168
11760SOL    HW139068   7.104   9.516   9.031  2.0645 -2.5108  1.8205
11760SOL    HW239069   7.216   9.499   8.931  0.2574 -1.0568 -0.5567
11761SOL     OW39070   4.398   1.430   0.607  0.1581  0.1380  0.2631
11761SOL    HW139071   4.377   1.523   0.619 -0.4010 -0.1818  2.1022
11761SOL    HW239072   4.327   1.397   0.552 -0.9252  0.3614  1.4577
11762SOL     OW39073   4.680   5.724   5.599 -0.2457  0.2047 -0.0572
11762SOL    HW139074   4.721   5.637   5.595  0.1113  0.4015 -2.8175
11762SOL    HW239075   4.606   5.719   5.538 -0.0871  1.8842 -0.4480
11763SOL     OW39076   9.913   5.794   6.321  0.2909 -0.4914 -0.0530
11763SOL    HW139077   9.899   5.775   6.228  0.4944 -0.2246 -0.1426
11763SOL    HW239078   9.825   5.796   6.359  0.1988 -0.4813 -0.2655
11764SOL     OW39079   9.942  10.066   1.470 -0.0639  0.2837  1.0148
11764SOL    HW139080  10.012  10.083   1.533  0.1043  1.0295  0.6369
11764SOL    HW239081   9.866  10.113   1.506  0.0331  0.7149  0.6733
11765SOL     OW39082   7.779   4.864   9.038 -0.4336 -0.4563 -0.2401
11765SOL    HW139083   7.870   4.858   9.011 -0.1984  1.8028 -0.1463
11765SOL    HW239084   7.782   4.864   9.134 -0.5910 -0.8991 -0.2323
11766SOL     OW39085   4.947   2.165   7.920  0.0815  0.3077 -0.3632
11766SOL    HW139086   4.985   2.252   7.938  0.0783  0.8428 -2.6682
11766SOL    HW239087   4.887   2.180   7.847  0.4170 -1.7218 -1.1029
11767SOL     OW39088   5.452   2.691   7.233 -0.1714 -0.2283  0.2159
11767SOL    HW139089   5.382   2.751   7.207 -1.9242 -2.4226 -0.5046
11767SOL    HW239090   5.513   2.745   7.283 -2.6180  1.7085  1.3119
11768SOL     OW39091   5.422  10.173   0.635  0.5865 -0.1417  0.4195
11768SOL    HW139092   5.479  10.216   0.572 -1.0232 -0.8061 -1.6026
11768SOL    HW239093   5.374  10.245   0.677 -1.6568  0.2948 -2.5037
11769SOL     OW39094   0.677   6.775   3.567  0.3313  0.2399  0.5266
11769SOL    HW139095   0.732   6.799   3.492 -1.9286 -0.5138 -1.4779
11769SOL    HW239096   0.628   6.855   3.588  0.0820  0.1149  0.4178
11770SOL     OW39097   3.199   3.226  10.199  0.1213 -0.4524  0.3007
11770SOL    HW139098   3.156   3.179  10.271 -0.6420 -0.7415 -0.3258
11770SOL    HW239099   3.207   3.316  10.231  0.3713 -0.7144  0.9902
11771SOL     OW39100   4.801   6.820   8.457  0.0690  0.5537  0.5640
11771SOL    HW139101   4.721   6.856   8.496 -0.5488  0.2713 -0.4032
11771SOL    HW239102   4.849   6.896   8.425  0.4997  0.7741  1.6921
11772SOL     OW39103   3.556   2.528   4.579 -0.4874 -0.4330  0.2957
11772SOL    HW139104   3.469   2.499   4.553 -0.6332  0.4062 -0.1810
11772SOL    HW239105   3.544   2.618   4.608  0.3056 -0.1159 -0.3128
11773SOL     OW39106   7.261   6.810   5.041 -0.6304 -0.4407  0.1694
11773SOL    HW139107   7.194   6.810   5.109 -0.4913 -2.1827  0.3331
11773SOL    HW239108   7.344   6.803   5.089 -0.4529 -0.3301 -0.1190
11774SOL     OW39109   5.316   8.808  10.227  0.5866 -0.3736 -0.2931
11774SOL    HW139110   5.271   8.856  10.297 -0.0281  1.1551 -1.6737
11774SOL    HW239111   5.372   8.873  10.185 -0.6723 -0.6504 -2.5778
11775SOL     OW39112   4.499  10.269   0.666 -0.5921 -0.1830  0.1819
11775SOL    HW139113   4.510  10.345   0.723  1.0014  0.2346 -0.6356
11775SOL    HW239114   4.417  10.286   0.619  0.2399  1.5577 -0.7227
11776SOL     OW39115   3.222   0.417   0.923 -0.0780 -0.5307  0.3201
11776SOL    HW139116   3.276   0.485   0.882 -0.2962  0.0218  0.9183
11776SOL    HW239117   3.185   0.368   0.850 -1.2930  1.0839 -0.2077
11777SOL     OW39118   8.931  10.218   3.002  0.4248  0.0702  0.5528
11777SOL    HW139119   9.023  10.240   2.986  0.9140 -0.5390  2.3044
11777SOL    HW239120   8.915  10.142   2.947  2.0272 -1.9248  2.6172
11778SOL     OW39121   9.947   2.680   6.955 -0.7582 -0.0736 -0.1939
11778SOL    HW139122  10.007   2.687   7.029 -1.1478  0.1192  0.1099
11778SOL    HW239123   9.961   2.592   6.920  0.6409  0.4250 -0.9500
11779SOL     OW39124   2.528   7.762   0.166  0.5454  0.0370  0.0705
11779SOL    HW139125   2.597   7.806   0.116  0.5305  0.1036  0.1088
11779SOL    HW239126   2.474   7.721   0.099  1.7364 -1.6921  0.1050
11780SOL     OW39127  10.284   7.240   9.041  0.2050 -0.1003  0.2128
11780SOL    HW139128  10.231   7.163   9.063 -2.0568  2.0980  3.2744
11780SOL    HW239129  10.353   7.241   9.107 -0.4383  1.0145  0.9060
11781SOL     OW39130   5.441   2.758   8.127  0.0890  0.1832  0.2261
11781SOL    HW139131   5.483   2.843   8.142 -2.0625  1.4330 -0.3422
11781SOL    HW239132   5.410   2.762   8.037 -1.1497 -0.6812  0.5881
11782SOL     OW39133   5.911   7.227   4.353  0.0173  0.5118  0.2243
11782SOL    HW139134   5.945   7.138   4.363  0.1436  0.5829  0.4293
11782SOL    HW239135   5.974   7.271   4.297 -0.4641  0.2405 -0.5438
11783SOL     OW39136  10.182   9.650   0.263  0.3460 -0.1389 -0.0248
11783SOL    HW139137  10.123   9.629   0.334 -0.2681  0.3576 -0.3727
11783SOL    HW239138  10.144   9.607   0.186  0.6555 -0.1532 -0.1730
11784SOL     OW39139   0.706   8.854   5.154  0.0509  0.1664  0.1902
11784SOL    HW139140   0.635   8.795   5.180 -0.7489  1.2949  0.6882
11784SOL    HW239141   0.782   8.824   5.203 -0.1385 -0.9044 -0.1464
11785SOL     OW39142   2.966   0.448   7.490 -0.2381 -0.9769 -0.2337
11785SOL    HW139143   2.893   0.452   7.553 -1.9349  4.0708 -2.0023
11785SOL    HW239144   3.036   0.498   7.531 -0.6743  0.7137 -1.4282
11786SOL     OW39145   7.387   4.148   5.156  0.2591 -0.0921  0.0031
11786SOL    HW139146   7.337   4.229   5.159  0.8227  0.4107 -2.3200
11786SOL    HW239147   7.423   4.139   5.245 -2.0350  0.7009  1.0750
11787SOL     OW39148   3.384   9.660   8.232  0.0018 -0.2966 -0.0354
11787SOL    HW139149   3.462   9.605   8.244 -1.1266 -1.7639  0.7861
11787SOL    HW239150   3.323   9.631   8.300 -0.9890  1.3625 -0.1608
11788SOL     OW39151   4.303   1.578   2.431  0.6714 -0.4554  0.1661
11788SOL    HW139152   4.382   1.555   2.479  2.9251 -1.0455 -3.4403
11788SOL    HW239153   4.296   1.510   2.364 -0.5824  1.7344 -2.0750
11789SOL     OW39154  10.004   9.403   1.151  0.3136  0.3416  0.0276
11789SOL    HW139155  10.040   9.453   1.224  0.7346 -0.7272  0.5637
11789SOL    HW239156   9.952   9.334   1.191  2.3802 -1.6740 -0.5623
11790SOL     OW39157  10.208   2.006   1.349  0.7321 -0.5205 -0.6032
11790SOL    HW139158  10.200   2.035   1.258 -1.8616 -0.1863 -0.3612
11790SOL    HW239159  10.264   2.072   1.390 -0.1040  0.7787 -1.4437
11791SOL     OW39160   5.787   3.245   9.041  0.2425 -0.3363 -0.3128
11791SOL    HW139161   5.878   3.257   9.068 -0.1426 -0.6791  1.2724
11791SOL    HW239162   5.754   3.334   9.030  0.7012 -0.2073 -0.6809
11792SOL     OW39163   2.064   6.887   9.955 -0.2119 -0.6103  0.3032
11792SOL    HW139164   2.002   6.924  10.017  1.9562  2.5086  0.8332
11792SOL    HW239165   2.012   6.868   9.876 -2.1606 -0.2130  1.4382
11793SOL     OW39166   5.503   5.550   5.359 -0.0672  0.0678 -0.8250
11793SOL    HW139167   5.503   5.643   5.381 -0.3858 -0.0620 -0.2602
11793SOL    HW239168   5.439   5.511   5.418 -0.1602 -0.4644 -1.2703
11794SOL     OW39169   7.544   0.227   1.456 -0.2991 -0.1504 -0.6074
11794SOL    HW139170   7.591   0.215   1.374  1.2699  0.8358  0.0976
11794SOL    HW239171   7.565   0.317   1.482 -0.3074 -0.6230  1.1427
11795SOL     OW39172   9.380   6.410   7.113 -0.0995 -0.3583  0.0138
11795SOL    HW139173   9.366   6.482   7.175  0.3937  0.0991 -0.3877
11795SOL    HW239174   9.455   6.362   7.148  0.5196  0.2147 -0.4857
11796SOL     OW39175   1.003   3.199   4.024 -0.3751 -0.2872 -0.8692
11796SOL    HW139176   0.987   3.242   3.940  1.4892  1.3764 -0.4475
11796SOL    HW239177   1.019   3.107   4.001 -1.9209 -0.2976 -2.0653
11797SOL     OW39178  10.169   1.680   1.768 -0.0141  0.8570  0.4282
11797SOL    HW139179  10.100   1.747   1.763  0.5658  1.4043 -0.5747
11797SOL    HW239180  10.227   1.701   1.695  2.0717  1.3493  2.1400
11798SOL     OW39181   7.024   4.420   1.432 -0.4547 -0.3252  0.0590
11798SOL    HW139182   6.953   4.364   1.464 -0.6447 -0.3674 -0.4306
11798SOL    HW239183   7.005   4.506   1.470 -0.4907 -0.4553  0.3370
11799SOL     OW39184   6.134   1.347   9.004  0.2839 -0.9106 -0.1152
11799SOL    HW139185   6.164   1.295   9.079  1.5428 -0.6827 -0.4250
11799SOL    HW239186   6.137   1.286   8.931  2.8965 -0.2094 -0.7111
11800SOL     OW39187   9.443   6.876   9.143  0.2664 -0.3240  0.1063
11800SOL    HW139188   9.516   6.843   9.195  0.9750  0.2444 -0.5040
11800SOL    HW239189   9.423   6.806   9.082  0.0664 -0.6143  0.4989
11801SOL     OW39190   2.290   9.995   1.213 -0.4737  0.3643  0.2068
11801SOL    HW139191   2.347  10.050   1.159 -1.0090  0.9253  0.1963
11801SOL    HW239192   2.318   9.905   1.194  0.6363  0.6460  0.4838
11802SOL     OW39193   0.318   8.578   2.612 -0.4682  0.0672  0.2068
11802SOL    HW139194   0.323   8.580   2.707 -0.3643  0.4841  0.1955
11802SOL    HW239195   0.321   8.485   2.589 -2.3403 -0.1407  0.6902
11803SOL     OW39196   8.559   4.854   5.982  0.8511 -0.7306 -0.2099
11803SOL    HW139197   8.518   4.936   6.010  0.9707 -0.4600 -0.8293
11803SOL    HW239198   8.592   4.816   6.063 -1.3321 -1.3640  0.4698
11804SOL     OW39199   1.878   3.947   5.230 -0.0163  0.7943  0.4608
11804SOL    HW139200   1.825   4.018   5.193 -0.7226 -0.6198 -1.4264
11804SOL    HW239201   1.844   3.937   5.319 -1.6137  1.2249 -0.0506
11805SOL     OW39202   4.216   7.531   4.727  0.1708  0.5059  0.3223
11805SOL    HW139203   4.125   7.502   4.737  0.3993 -0.5113 -0.4621
11805SOL    HW239204   4.220   7.567   4.638  0.8385 -0.6317 -0.1211
11806SOL     OW39205   5.840   4.094   9.170 -0.5535  0.7396 -0.0656
11806SOL    HW139206   5.752   4.123   9.191 -0.8562 -0.2209  0.0355
11806SOL    HW239207   5.896   4.131   9.238 -1.0150  0.5744  0.3995
11807SOL     OW39208   4.421   2.959   1.718 -0.3944 -0.1511 -0.1185
11807SOL    HW139209   4.376   3.043   1.729 -0.0672  0.0905 -0.5937
11807SOL    HW239210   4.380   2.901   1.782 -0.3300  0.4923  0.5242
11808SOL     OW39211   4.080   4.340   2.717 -0.6757 -0.5493 -0.1987
11808SOL    HW139212   4.021   4.290   2.773  0.4138 -1.3502  0.2708
11808SOL    HW239213   4.026   4.413   2.684 -1.5090 -0.4165  1.3731
11809SOL     OW39214   9.069   5.135   3.577 -0.0058  0.0882  0.0464
11809SOL    HW139215   9.136   5.100   3.636 -0.9431 -1.5867  0.1630
11809SOL    HW239216   8.998   5.071   3.579 -1.8370  1.9958  0.2593
11810SOL     OW39217  10.258   1.842   3.080 -0.6274 -0.3122  0.0281
11810SOL    HW139218  10.321   1.863   3.011 -1.6300 -1.9244 -1.4484
11810SOL    HW239219  10.185   1.903   3.064  0.3445  1.3574  1.5631
11811SOL     OW39220   2.988   7.587   6.745  0.0153  0.2189  0.1902
11811SOL    HW139221   3.025   7.610   6.660 -1.2499  0.2553 -0.3677
11811SOL    HW239222   2.931   7.512   6.727  0.1966 -0.1622  1.1242
11812SOL     OW39223   8.001   3.959   1.640  0.1496  0.4716  0.4442
11812SOL    HW139224   7.927   4.010   1.672 -1.4122 -0.4599 -1.4980
11812SOL    HW239225   8.038   4.012   1.569 -0.4807 -0.3190 -0.5028
11813SOL     OW39226   2.409   8.122   8.304  0.1332  0.2345  0.4488
11813SOL    HW139227   2.345   8.126   8.233  0.9557  1.0638 -0.2566
11813SOL    HW239228   2.366   8.167   8.377 -0.5719 -0.3066  0.3832
11814SOL     OW39229   6.651   7.985   9.887  0.4232 -0.9090 -0.2526
11814SOL    HW139230   6.618   8.058   9.836  0.8004 -0.0459  0.6934
11814SOL    HW239231   6.588   7.915   9.873 -0.3812 -0.1409 -0.5380
11815SOL     OW39232   4.502   5.392   0.112 -0.1789 -0.4965  0.2876
11815SOL    HW139233   4.594   5.385   0.087 -0.8168 -2.0267 -1.9306
11815SOL    HW239234   4.490   5.485   0.133  1.8794 -0.2926  0.7386
11816SOL     OW39235   5.162   3.682   3.146  0.4127  0.1689 -0.5445
11816SOL    HW139236   5.131   3.636   3.224  3.4964 -1.2088  0.0199
11816SOL    HW239237   5.114   3.765   3.147 -0.8495 -0.4818  1.8859
11817SOL     OW39238   8.086   9.471   9.122  0.4146 -0.8197  0.2935
11817SOL    HW139239   8.136   9.531   9.067 -0.8963 -1.1024 -1.2848
11817SOL    HW239240   8.128   9.386   9.108  0.6730 -0.7253  0.4894
11818SOL     OW39241  10.102  10.065   3.114  0.4423 -0.1121 -0.3564
11818SOL    HW139242  10.055  10.036   3.193  0.6717 -0.6114 -0.3985
11818SOL    HW239243  10.071  10.154   3.099 -1.2574 -0.7610 -0.9515
11819SOL     OW39244   6.497   4.281   8.637 -0.0440 -0.2596 -0.3920
11819SOL    HW139245   6.410   4.292   8.675  0.9437  1.3043  1.6606
11819SOL    HW239246   6.522   4.192   8.662 -0.5365 -0.2450  0.1817
11820SOL     OW39247   1.072   7.098   2.016 -0.0992 -0.0543 -0.0307
11820SOL    HW139248   1.065   7.042   1.939  1.7525  0.6418 -0.7665
11820SOL    HW239249   1.166   7.116   2.024 -0.2300 -0.0636  2.3705
11821SOL     OW39250   3.055   6.679   0.929 -0.3473 -0.3864  0.3711
11821SOL    HW139251   2.963   6.665   0.909 -0.5076 -0.9264  1.4453
11821SOL    HW239252   3.064   6.656   1.021  0.2843  2.3390  1.1054
11822SOL     OW39253   6.498   5.843   7.565  0.0804 -0.5777  0.2647
11822SOL    HW139254   6.501   5.755   7.528 -1.1177 -1.2180  1.5932
11822SOL    HW239255   6.405   5.867   7.563  0.4095  0.7730 -0.2845
11823SOL     OW39256   5.269   9.242   9.179 -0.0837 -0.2428  0.0212
11823SOL    HW139257   5.227   9.179   9.120 -0.9787  1.1399 -0.8569
11823SOL    HW239258   5.213   9.244   9.256 -0.5653  0.1434 -0.3335
11824SOL     OW39259   2.574   5.211   0.367 -0.0159  0.1413  0.1463
11824SOL    HW139260   2.509   5.255   0.422 -2.9786 -2.1445 -1.1988
11824SOL    HW239261   2.523   5.179   0.292  2.4750 -2.7641 -0.4834
11825SOL     OW39262   4.456   5.004   9.272  0.2904  0.4983 -0.0836
11825SOL    HW139263   4.405   5.085   9.276 -0.8710 -0.2620  1.6476
11825SOL    HW239264   4.505   5.002   9.354  0.4856 -0.4331 -0.2167
11826SOL     OW39265   3.102   6.708   6.633 -0.4770  0.1448  0.4499
11826SOL    HW139266   3.112   6.653   6.555 -0.1791  2.8520 -1.5567
11826SOL    HW239267   3.178   6.688   6.687  0.3902 -0.3793 -0.9148
11827SOL     OW39268   3.234   5.792   8.042  0.3909 -0.4598  0.7438
11827SOL    HW139269   3.278   5.733   8.103 -1.0039 -0.6040  1.6643
11827SOL    HW239270   3.148   5.753   8.029  0.1291  0.3762 -0.1557
11828SOL     OW39271   4.133   6.448   3.057 -0.2655 -0.3783 -0.3886
11828SOL    HW139272   4.182   6.428   3.136  1.3866  0.2830 -1.2105
11828SOL    HW239273   4.093   6.365   3.032  0.1078 -0.8452  0.5158
11829SOL     OW39274   4.731   3.909   2.877 -0.1359  0.2608  0.2167
11829SOL    HW139275   4.762   3.824   2.845  0.4248  0.0133  1.3436
11829SOL    HW239276   4.712   3.894   2.970 -0.4297  1.2674  0.3356
11830SOL     OW39277   8.270   5.081   6.935  0.4869 -0.3137 -0.3247
11830SOL    HW139278   8.197   5.133   6.967  1.5926  0.2928  1.3619
11830SOL    HW239279   8.230   4.999   6.905 -0.9404  0.2890 -0.1422
11831SOL     OW39280   9.367   5.063   6.648  0.2237  0.3484 -0.2768
11831SOL    HW139281   9.272   5.060   6.634  0.2254 -0.1096 -0.2126
11831SOL    HW239282   9.389   5.156   6.644 -0.1244  0.4058 -1.0081
11832SOL     OW39283   2.987   1.263   4.450  0.4938  0.0463 -0.0315
11832SOL    HW139284   3.043   1.186   4.464  0.7236  0.3370  0.7279
11832SOL    HW239285   2.942   1.245   4.368  3.9188  1.1257 -2.3720
11833SOL     OW39286   0.302   3.854   4.921  0.4516 -0.4067  0.1983
11833SOL    HW139287   0.394   3.862   4.895  0.2957  1.2294  0.0112
11833SOL    HW239288   0.262   3.936   4.891 -0.3143  0.4773  3.2310
11834SOL     OW39289   4.794   3.108   4.465 -0.4756  0.1798 -0.0170
11834SOL    HW139290   4.771   3.015   4.459  0.5956 -0.2443  1.7955
11834SOL    HW239291   4.751   3.148   4.389  0.8431 -2.1454 -2.1625
11835SOL     OW39292   0.642   8.231   4.790  0.5427 -0.2226  0.4929
11835SOL    HW139293   0.615   8.271   4.707 -0.7182  1.3687  1.6055
11835SOL    HW239294   0.716   8.284   4.818  0.7612 -0.5591  0.5556
11836SOL     OW39295   6.681   5.740   6.480 -0.2732  0.0452 -0.1180
11836SOL    HW139296   6.601   5.764   6.527 -0.3323 -1.9716  0.9130
11836SOL    HW239297   6.650   5.704   6.396 -0.3084  1.0804 -0.5672
11837SOL     OW39298   2.325   6.732   5.710 -0.5843  0.1423  0.2979
11837SOL    HW139299   2.278   6.742   5.793  0.7978  0.5550  1.0575
11837SOL    HW239300   2.417   6.737   5.734  0.0169 -3.1329 -0.7672
11838SOL     OW39301   9.971   5.883   3.964  0.2768  0.3693  0.3366
11838SOL    HW139302   9.974   5.791   3.990 -0.7267  0.2162 -0.0463
11838SOL    HW239303   9.925   5.883   3.880 -0.6628  1.3240  0.8299
11839SOL     OW39304   4.423   1.606   1.817 -0.1456 -0.2197 -0.5669
11839SOL    HW139305   4.351   1.658   1.781  1.7816  1.0491 -2.8729
11839SOL    HW239306   4.476   1.670   1.864 -1.1385 -1.3868  2.3897
11840SOL     OW39307   5.803   3.626   0.855  0.6992 -0.3366  0.2687
11840SOL    HW139308   5.812   3.555   0.791 -1.9036  0.0354 -0.6233
11840SOL    HW239309   5.740   3.594   0.919 -0.4799  1.0995 -0.1193
11841SOL     OW39310   8.301   4.527   0.617 -0.4891  0.6330 -0.3165
11841SOL    HW139311   8.370   4.551   0.556  0.0956  1.2936  0.5845
11841SOL    HW239312   8.323   4.573   0.698 -0.4022 -1.3700  0.8890
11842SOL     OW39313   2.971   6.486   8.838  0.8037  0.5282 -0.1330
11842SOL    HW139314   2.924   6.410   8.802  0.7895 -0.3214  1.5893
11842SOL    HW239315   2.912   6.560   8.825  0.1250 -0.0456 -0.3656
11843SOL     OW39316   4.554   2.404   5.753 -0.2074 -0.0166  0.3983
11843SOL    HW139317   4.617   2.346   5.797  1.4839  0.7550 -0.8999
11843SOL    HW239318   4.509   2.347   5.691  0.5166 -0.2195  0.0515
11844SOL     OW39319   9.822   4.197   3.376 -0.3527  0.5686 -0.2775
11844SOL    HW139320   9.737   4.159   3.354  0.0660  0.9168 -2.8276
11844SOL    HW239321   9.813   4.289   3.354  0.5466  0.7004 -0.1083
11845SOL     OW39322   7.481   1.308   3.242 -0.3861 -0.2382  0.4215
11845SOL    HW139323   7.510   1.398   3.262 -0.7634  0.5754 -2.2943
11845SOL    HW239324   7.391   1.318   3.213  0.3718 -1.0435 -2.5098
11846SOL     OW39325   1.111   8.801   4.408  0.1998  0.3725  0.3452
11846SOL    HW139326   1.176   8.809   4.478  0.2502 -0.2998  0.3784
11846SOL    HW239327   1.086   8.709   4.410  1.7513 -0.1712 -1.8891
11847SOL     OW39328   7.282   3.888  10.301 -0.2895  0.7060 -0.6508
11847SOL    HW139329   7.292   3.886  10.396 -0.7025  0.7919 -0.6027
11847SOL    HW239330   7.225   3.814  10.281  1.3262 -0.4919 -1.0406
11848SOL     OW39331   2.656   5.139   8.726  0.1206  0.1946 -0.0841
11848SOL    HW139332   2.712   5.086   8.670 -0.8345  0.7072 -1.6159
11848SOL    HW239333   2.686   5.229   8.712 -0.6087  0.4027 -0.3986
11849SOL     OW39334   7.650   0.237   3.626  0.1096 -0.7851  0.4597
11849SOL    HW139335   7.713   0.251   3.556  1.3159 -2.2906  1.1718
11849SOL    HW239336   7.620   0.324   3.650  0.0853 -0.2011 -1.5220
11850SOL     OW39337   3.174   0.624  10.006 -0.0251 -0.8371 -0.1783
11850SOL    HW139338   3.138   0.605  10.093  0.7752  0.1447  0.3900
11850SOL    HW239339   3.102   0.608   9.946 -1.1704  0.3018  0.8455
11851SOL     OW39340   3.724   4.148   3.619 -0.1636 -0.7367  0.1246
11851SOL    HW139341   3.752   4.239   3.626 -0.6428 -0.4188 -1.6793
11851SOL    HW239342   3.805   4.097   3.623  0.3058 -0.0965 -0.8616
11852SOL     OW39343   8.197   6.314   1.907  0.2727 -0.3363 -0.1875
11852SOL    HW139344   8.257   6.257   1.860  0.9466 -0.8916  1.2925
11852SOL    HW239345   8.134   6.255   1.948 -0.6177  0.1673 -0.8062
11853SOL     OW39346   2.268   4.014   4.992 -0.4187  0.4594 -0.5325
11853SOL    HW139347   2.195   4.052   5.041 -2.3303 -2.2017 -1.0613
11853SOL    HW239348   2.226   3.975   4.915  1.3565 -2.1735 -0.2945
11854SOL     OW39349   6.123   0.764   8.029 -0.3073 -0.1501  0.3246
11854SOL    HW139350   6.177   0.825   8.078  0.4506 -0.2917 -0.3081
11854SOL    HW239351   6.175   0.684   8.024 -0.8244 -0.4859  0.2105
11855SOL     OW39352   0.598   2.866   1.348  0.0151 -0.3414 -0.7053
11855SOL    HW139353   0.662   2.796   1.366  0.4676  0.4024  0.7275
11855SOL    HW239354   0.513   2.821   1.350  0.2145 -0.7231  1.2191
11856SOL     OW39355   4.884   7.020  10.008  0.0637  0.0657 -0.1363
11856SOL    HW139356   4.812   7.082  10.021 -0.3504  0.1606 -2.4342
11856SOL    HW239357   4.843   6.934  10.018 -0.3058  0.1274 -1.0153
11857SOL     OW39358   6.710   2.454   8.804  0.3713  0.0419  0.0496
11857SOL    HW139359   6.678   2.365   8.787  2.5834 -0.8820  0.4398
11857SOL    HW239360   6.793   2.442   8.849  0.7307  2.3304  0.1244
11858SOL     OW39361   6.066   4.306   1.242 -0.0405  0.3726  0.2815
11858SOL    HW139362   6.037   4.344   1.159 -2.0030  0.1719  0.8315
11858SOL    HW239363   6.109   4.378   1.287  0.8114  0.5539 -0.7871
11859SOL     OW39364   2.825   5.705   2.587 -0.1490  0.3619  0.4023
11859SOL    HW139365   2.819   5.681   2.679 -0.6921 -0.5708  0.1393
11859SOL    HW239366   2.909   5.750   2.579  0.7608 -1.1617  1.0000
11860SOL     OW39367   6.801   0.587  10.005  0.0938 -0.2059 -0.6997
11860SOL    HW139368   6.881   0.631  10.031 -0.2285  0.8947 -1.5256
11860SOL    HW239369   6.747   0.655   9.965 -1.0872 -1.0089 -0.5362
11861SOL     OW39370   3.937   7.734   5.111 -0.1124 -0.1205 -0.2223
11861SOL    HW139371   3.906   7.675   5.180 -0.0661  0.0523 -0.0507
11861SOL    HW239372   3.865   7.739   5.048  0.1560 -0.9245 -0.6049
11862SOL     OW39373   5.587   5.128   5.194 -0.6810  0.5019  0.1503
11862SOL    HW139374   5.672   5.172   5.199 -0.6889  0.4216  1.8243
11862SOL    HW239375   5.523   5.199   5.196 -0.6730  0.5144  1.8711
11863SOL     OW39376   7.683   6.472   6.249 -0.3236 -0.3657 -0.0022
11863SOL    HW139377   7.652   6.560   6.273 -1.3406  0.1672 -2.9445
11863SOL    HW239378   7.772   6.487   6.217 -0.6412 -0.3314 -0.8796
11864SOL     OW39379   7.442   5.816   0.742  0.6125  0.1744 -0.0813
11864SOL    HW139380   7.362   5.763   0.742  1.2343 -0.8239  1.3573
11864SOL    HW239381   7.503   5.767   0.687  0.7209  0.1426  0.0660
11865SOL     OW39382   8.902   7.123   7.396 -0.6576  0.2322 -0.2624
11865SOL    HW139383   8.912   7.201   7.451  0.4188 -1.6662  2.4532
11865SOL    HW239384   8.823   7.139   7.345 -1.0647  2.6403  0.9855
11866SOL     OW39385   0.553   3.857   7.262  0.0381 -0.5203 -0.3687
11866SOL    HW139386   0.563   3.811   7.346 -1.7539 -1.1084 -0.4423
11866SOL    HW239387   0.534   3.788   7.199 -0.6937  0.1233 -0.8681
11867SOL     OW39388   5.815   2.936   7.121 -0.1213 -0.2828 -0.1344
11867SOL    HW139389   5.901   2.899   7.101  0.1854  0.9966 -1.3481
11867SOL    HW239390   5.791   2.897   7.205  2.0917  0.0756  0.7413
11868SOL     OW39391   2.371   2.835   5.251  0.6597 -0.0125 -0.3147
11868SOL    HW139392   2.311   2.763   5.230  0.2617  0.1553  0.2264
11868SOL    HW239393   2.458   2.800   5.231  0.5152 -0.8306  0.4208
11869SOL     OW39394   3.760   3.415   5.981 -0.5760  0.3731  0.0558
11869SOL    HW139395   3.709   3.479   5.932 -1.3911  1.0575  1.7320
11869SOL    HW239396   3.753   3.335   5.929 -3.5086  0.3913  0.2306
11870SOL     OW39397   4.208   1.774   6.061  0.4040 -0.3044  0.0696
11870SOL    HW139398   4.299   1.761   6.086  0.0451  0.4566  1.9418
11870SOL    HW239399   4.158   1.741   6.136 -0.8600 -0.4641 -0.8106
11871SOL     OW39400   1.966   4.528   2.182  0.3291 -0.6109 -0.2821
11871SOL    HW139401   1.932   4.455   2.132 -0.2697 -0.0305 -0.7457
11871SOL    HW239402   1.978   4.494   2.271  1.6105 -1.7071 -0.8486
11872SOL     OW39403   6.595   3.516   9.192 -0.0777 -0.2688  0.0515
11872SOL    HW139404   6.633   3.464   9.121  0.5254 -0.1346  0.2664
11872SOL    HW239405   6.602   3.460   9.269  3.4572  1.1688  0.9838
11873SOL     OW39406   4.363   2.168   7.780 -0.0380 -0.3469  0.1357
11873SOL    HW139407   4.283   2.210   7.814  0.3558  0.2017  0.3933
11873SOL    HW239408   4.356   2.176   7.685 -0.1599 -0.0651  0.1687
11874SOL     OW39409   9.203   5.363   8.895  0.6597 -0.1106  0.2208
11874SOL    HW139410   9.202   5.369   8.800  2.1504  0.3125  0.2085
11874SOL    HW239411   9.173   5.450   8.925 -0.2873 -0.4023  0.1619
11875SOL     OW39412   4.107   6.790   2.451  0.3343 -0.5770 -0.3102
11875SOL    HW139413   4.018   6.760   2.468 -0.4280  0.3352 -2.4445
11875SOL    HW239414   4.115   6.871   2.503 -0.4266 -0.1455 -0.8550
11876SOL     OW39415   1.137   8.291   3.372 -0.6040  0.0043 -0.3124
11876SOL    HW139416   1.159   8.333   3.455 -1.9762 -1.5726  0.9327
11876SOL    HW239417   1.059   8.337   3.341 -0.0624  0.6256 -0.7887
11877SOL     OW39418   0.482   5.735   4.453 -0.5850  0.0496 -0.4957
11877SOL    HW139419   0.474   5.817   4.500 -1.1808 -0.7959  0.9373
11877SOL    HW239420   0.549   5.686   4.500 -0.0872 -0.2195 -1.4545
11878SOL     OW39421   8.795   4.450   4.033  0.2843 -0.3368 -0.0203
11878SOL    HW139422   8.711   4.403   4.032 -0.8301  1.5417  0.6347
11878SOL    HW239423   8.797   4.496   3.949  1.1251 -1.0806 -0.4311
11879SOL     OW39424   1.562   8.276   1.113  0.1346  0.5911  0.1663
11879SOL    HW139425   1.470   8.262   1.091  0.1054  0.9218  0.0669
11879SOL    HW239426   1.603   8.299   1.029  0.4661 -0.3154  0.0663
11880SOL     OW39427   0.770   2.179   1.376 -0.4213  0.1477 -0.0631
11880SOL    HW139428   0.848   2.142   1.336  0.7177  1.3763  0.9348
11880SOL    HW239429   0.713   2.104   1.392  0.3289 -0.7158 -1.2389
11881SOL     OW39430   4.470   9.484   4.052 -0.2007  0.5916  0.2228
11881SOL    HW139431   4.398   9.488   3.990  0.4284  1.8958 -0.4683
11881SOL    HW239432   4.510   9.399   4.038 -0.8293  0.3700 -0.2753
11882SOL     OW39433   4.670   7.283   8.950  0.0055  0.8599 -0.0040
11882SOL    HW139434   4.637   7.270   8.861 -0.5846  1.2499  0.1545
11882SOL    HW239435   4.593   7.307   9.001  0.0545 -0.7830  0.9203
11883SOL     OW39436   3.429   6.344   6.058 -0.2734  0.0581 -0.5215
11883SOL    HW139437   3.353   6.400   6.070 -0.9985 -0.4981 -2.2155
11883SOL    HW239438   3.393   6.259   6.032  0.8790 -0.5674 -0.1388
11884SOL     OW39439   0.839   8.095   6.772 -0.0788 -0.5349  0.7187
11884SOL    HW139440   0.878   8.054   6.694 -1.3331 -1.6162  0.6242
11884SOL    HW239441   0.784   8.165   6.737  2.7420  1.9998  0.9214
11885SOL     OW39442   9.661   0.906   7.152 -0.5432  0.7382 -0.0416
11885SOL    HW139443   9.680   0.941   7.065 -0.7639 -0.9973 -0.8482
11885SOL    HW239444   9.745   0.903   7.197 -0.2459  0.6923 -0.5959
11886SOL     OW39445   6.839   9.467   4.050 -0.0508 -0.2251  0.0051
11886SOL    HW139446   6.906   9.430   3.992 -0.0472  0.1728 -0.2429
11886SOL    HW239447   6.756   9.444   4.008 -0.0505 -0.0242 -0.1044
11887SOL     OW39448   4.197   6.408   8.468  0.0954 -0.4869  0.5195
11887SOL    HW139449   4.197   6.314   8.451  3.5409 -0.7973  1.5953
11887SOL    HW239450   4.250   6.445   8.398  1.0414  0.2723  1.6125
11888SOL     OW39451   5.102   7.221   3.926  0.0835  0.2030 -0.0395
11888SOL    HW139452   5.067   7.133   3.938  1.2240 -0.2743 -0.0820
11888SOL    HW239453   5.111   7.255   4.015  0.5751 -0.1100  0.0354
11889SOL     OW39454   1.919   4.639   3.917 -0.1466 -0.0611  0.2591
11889SOL    HW139455   2.014   4.654   3.921 -0.1811  0.8017 -1.1959
11889SOL    HW239456   1.907   4.585   3.839 -0.5581 -3.6374  2.5432
11890SOL     OW39457   4.433   2.797   5.328 -0.1976 -0.0645 -0.0277
11890SOL    HW139458   4.483   2.833   5.255 -0.5544  3.6029  1.3469
11890SOL    HW239459   4.342   2.817   5.307 -0.3318  0.6965  1.1919
11891SOL     OW39460   4.735   2.430   3.034  0.1869  0.7057 -0.1857
11891SOL    HW139461   4.765   2.502   3.090  1.2795 -0.5665  0.9255
11891SOL    HW239462   4.671   2.383   3.086  0.2867  0.2342 -0.4801
11892SOL     OW39463   1.048   5.562   4.493  0.2314 -0.0588 -0.2214
11892SOL    HW139464   1.049   5.561   4.589 -0.2383  0.9617 -0.1891
11892SOL    HW239465   1.100   5.486   4.467 -0.3824 -0.8608  0.8423
11893SOL     OW39466   4.990   7.396   0.612 -0.3265  0.4556 -0.2603
11893SOL    HW139467   4.920   7.334   0.590 -0.5505  0.1098  1.2809
11893SOL    HW239468   4.944   7.479   0.625 -0.2643  0.5371 -0.5479
11894SOL     OW39469   9.542   8.197   9.028 -0.2635 -0.2078  0.5303
11894SOL    HW139470   9.609   8.143   8.987  0.1175 -0.0342  0.9232
11894SOL    HW239471   9.530   8.271   8.969  1.6783  1.0659  1.6559
11895SOL     OW39472   1.545   5.780   4.605 -0.2923 -1.0885 -0.4701
11895SOL    HW139473   1.599   5.719   4.656  0.3258  0.8966  1.3620
11895SOL    HW239474   1.608   5.827   4.550 -0.7276 -1.7922 -1.6053
11896SOL     OW39475   3.443   0.260   6.991  0.1889 -0.3723  0.1583
11896SOL    HW139476   3.440   0.304   7.076 -0.8051  0.5018 -0.3084
11896SOL    HW239477   3.381   0.188   6.999 -0.7358  0.3665 -0.1584
11897SOL     OW39478   2.227   2.279   3.977 -0.0211 -0.1053  0.1182
11897SOL    HW139479   2.251   2.322   4.059  0.6692  0.5715 -0.4207
11897SOL    HW239480   2.253   2.341   3.909 -0.1788 -0.8423 -0.6333
11898SOL     OW39481   3.632   2.854   7.768  0.7231 -0.1491  0.3919
11898SOL    HW139482   3.617   2.901   7.850 -0.0016  0.3625 -0.0240
11898SOL    HW239483   3.545   2.848   7.728  1.3195  1.1696 -1.1772
11899SOL     OW39484   3.966   3.581   9.288  0.0182 -0.0679  0.0152
11899SOL    HW139485   3.891   3.611   9.340  0.0384 -0.3571  0.2148
11899SOL    HW239486   3.938   3.497   9.251 -0.3778  0.6205 -1.2898
11900SOL     OW39487   3.212   7.565  10.316 -0.2825  0.6791  0.3895
11900SOL    HW139488   3.218   7.487  10.372 -0.9883 -0.8784 -1.5868
11900SOL    HW239489   3.288   7.559  10.258 -1.9414 -0.3287 -1.8374
11901SOL     OW39490   1.468   8.420   7.404 -0.1153  0.1022  0.5822
11901SOL    HW139491   1.373   8.422   7.405 -0.1238 -0.2054  1.6631
11901SOL    HW239492   1.490   8.327   7.415  0.3170  0.0477 -0.5969
11902SOL     OW39493   8.422   7.040   7.899 -0.2213  0.3143  0.1492
11902SOL    HW139494   8.483   6.972   7.926 -2.5998 -1.1128  2.3509
11902SOL    HW239495   8.460   7.121   7.932  1.0522 -0.3563  0.3774
11903SOL     OW39496   3.776   9.841   0.265  0.2951 -0.3034  0.5005
11903SOL    HW139497   3.841   9.851   0.335 -0.6588  0.5403  1.3185
11903SOL    HW239498   3.699   9.807   0.310  0.1252 -1.1995 -0.4344
11904SOL     OW39499   2.665   1.857   2.073 -0.1217  0.2603  0.4608
11904SOL    HW139500   2.712   1.856   2.156  0.1891 -0.8450  0.2841
11904SOL    HW239501   2.731   1.832   2.007 -0.4227  0.8774 -0.0914
11905SOL     OW39502   1.437   6.336   0.818 -0.1218  0.3945 -0.4027
11905SOL    HW139503   1.370   6.275   0.852  0.9657  0.1350  1.4006
11905SOL    HW239504   1.514   6.319   0.872  0.6725  2.3725 -0.8334
11906SOL     OW39505   2.063   1.801   0.970  0.0289 -0.0177 -0.6314
11906SOL    HW139506   1.992   1.779   0.909 -1.1897 -0.8655  0.9965
11906SOL    HW239507   2.062   1.729   1.034  0.6379  1.2626  0.8822
11907SOL     OW39508   1.676   5.830   7.904 -0.5182 -0.5231  0.1448
11907SOL    HW139509   1.695   5.883   7.982  0.6145  0.7622 -0.9453
11907SOL    HW239510   1.668   5.894   7.833  2.6554 -1.7793 -1.5713
11908SOL     OW39511   0.513   4.552   6.090  0.3423 -0.1506  0.2026
11908SOL    HW139512   0.503   4.600   6.172 -1.3802 -1.1748  0.6608
11908SOL    HW239513   0.563   4.474   6.114 -1.9153 -1.5024  0.8190
11909SOL     OW39514   7.415   1.580   1.475  0.0160 -0.1853  0.2299
11909SOL    HW139515   7.320   1.580   1.467 -0.1289 -1.2537  1.5576
11909SOL    HW239516   7.438   1.488   1.482  0.9432  0.1451  1.9145
11910SOL     OW39517   0.137   4.900   1.642  0.1073 -0.3498 -0.2679
11910SOL    HW139518   0.228   4.893   1.670 -0.0515 -1.5220  0.0085
11910SOL    HW239519   0.096   4.958   1.707  0.5322 -0.2435 -0.0913
11911SOL     OW39520   0.589   9.750   3.971  0.3900  0.3585 -0.6338
11911SOL    HW139521   0.528   9.678   3.985  0.2966  0.2962 -1.3000
11911SOL    HW239522   0.569   9.781   3.882 -1.4068  2.9751  0.5573
11912SOL     OW39523   0.704   6.895   7.171 -0.0741 -0.0230 -0.5747
11912SOL    HW139524   0.614   6.924   7.185 -0.3536 -0.4160 -1.4707
11912SOL    HW239525   0.753   6.933   7.244 -1.3101 -1.4174  1.0736
11913SOL     OW39526   9.600   5.874   0.950  0.0642  0.2552 -0.1104
11913SOL    HW139527   9.654   5.882   0.871  0.2862  1.3398  0.1301
11913SOL    HW239528   9.660   5.841   1.017 -0.6812 -3.1355 -0.9258
11914SOL     OW39529   0.055   2.335   8.758  0.4138 -0.0536  0.7668
11914SOL    HW139530   0.080   2.318   8.848 -0.9488 -4.0149  0.5858
11914SOL    HW239531   0.097   2.266   8.707 -3.0056 -1.2676 -0.7812
11915SOL     OW39532   7.776   1.926   9.104  0.3925 -0.1991  0.1662
11915SOL    HW139533   7.758   1.967   9.020 -1.5932 -0.4942  0.4037
11915SOL    HW239534   7.842   1.859   9.085 -1.3012 -1.4662 -1.5293
11916SOL     OW39535   3.390   4.144   0.299  0.4203 -0.2121 -0.2021
11916SOL    HW139536   3.375   4.221   0.353  0.8623  0.5849 -1.1884
11916SOL    HW239537   3.329   4.078   0.334  0.9252  0.1563  1.4497
11917SOL     OW39538   0.516   6.775   2.855 -0.1994 -0.4736 -0.1327
11917SOL    HW139539   0.432   6.730   2.869 -0.6402 -0.2863 -1.9634
11917SOL    HW239540   0.569   6.712   2.807  0.4730 -0.3368  0.4260
11918SOL     OW39541   3.983   1.170  10.021  0.0722 -0.0243 -0.5390
11918SOL    HW139542   3.952   1.113  10.091  1.4451  2.2220  2.0927
11918SOL    HW239543   4.076   1.184  10.041 -0.2294  3.2773 -0.8434
11919SOL     OW39544   1.410   1.220   2.577  0.0742  0.7002  0.1628
11919SOL    HW139545   1.461   1.162   2.521 -0.8290  1.6850 -1.7541
11919SOL    HW239546   1.476   1.263   2.632  1.1280  0.5941 -0.9623
11920SOL     OW39547   7.829   1.033   9.765 -0.0787 -0.0613  0.4552
11920SOL    HW139548   7.851   1.024   9.858 -1.6082 -2.1585  0.6903
11920SOL    HW239549   7.912   1.017   9.720  0.3664 -0.6146  1.4271
11921SOL     OW39550   3.007   9.040   8.432 -0.2098  0.6055  0.4105
11921SOL    HW139551   3.013   8.981   8.507  1.1047 -0.1972 -0.2870
11921SOL    HW239552   3.001   9.128   8.470 -0.1929  0.1615  1.4487
11922SOL     OW39553   3.583   0.288  10.024  0.9076 -0.5469  0.0693
11922SOL    HW139554   3.595   0.356  10.090 -0.5827  0.6927 -0.8928
11922SOL    HW239555   3.552   0.212  10.074  0.9297 -0.0026  0.9408
11923SOL     OW39556   0.008   8.401   1.413 -0.0949  0.3658 -0.2286
11923SOL    HW139557   0.026   8.478   1.467  1.7528  0.2336 -0.5963
11923SOL    HW239558   0.094   8.361   1.400 -0.6533 -0.2504 -2.2878
11924SOL     OW39559   9.071   5.940   2.842  0.9596 -0.1205 -0.4636
11924SOL    HW139560   9.057   5.924   2.935  0.8639 -1.6791 -0.7223
11924SOL    HW239561   9.001   6.000   2.817 -0.4164 -1.4832 -0.0083
11925SOL     OW39562   3.722   3.134   9.697 -0.1640 -0.6074 -0.0401
11925SOL    HW139563   3.718   3.184   9.779 -2.5426  0.5082 -0.7534
11925SOL    HW239564   3.774   3.057   9.720  1.4229  0.8784  1.8026
11926SOL     OW39565   7.872   0.030   4.147  0.1070 -0.0328 -0.1269
11926SOL    HW139566   7.809   0.079   4.093 -0.6088  0.2964  0.9724
11926SOL    HW239567   7.869  -0.059   4.113 -3.6724 -0.9626  2.0746
11927SOL     OW39568   6.571   1.939   6.877 -0.4783 -0.8339 -0.4644
11927SOL    HW139569   6.529   2.008   6.927  0.5527  0.9188 -1.9171
11927SOL    HW239570   6.519   1.932   6.797  1.0295  0.2890 -1.5886
11928SOL     OW39571   7.139   0.093   3.579 -0.0811  0.7342 -0.6947
11928SOL    HW139572   7.125   0.151   3.504  0.0698  0.8918 -0.6035
11928SOL    HW239573   7.063   0.036   3.580 -0.3342  1.0704 -0.6603
11929SOL     OW39574   8.499   1.412   7.616  0.2540 -0.2963 -0.8594
11929SOL    HW139575   8.416   1.459   7.609  0.1801 -0.5201 -1.4984
11929SOL    HW239576   8.540   1.449   7.694  0.4580  1.2474 -1.6530
11930SOL     OW39577   5.000   8.972   6.811  0.0049  0.1364  0.1589
11930SOL    HW139578   5.061   8.957   6.739 -0.2181 -0.7043  0.1427
11930SOL    HW239579   5.042   8.931   6.886 -1.3122 -1.9700 -0.2043
11931SOL     OW39580   1.957   7.630   0.364  0.1530 -0.5637  0.4661
11931SOL    HW139581   1.961   7.572   0.440  0.5632 -1.2406 -0.0631
11931SOL    HW239582   1.867   7.623   0.333 -0.3817  0.6954  1.6222
11932SOL     OW39583   4.785   5.217   5.782 -0.1491 -0.4329  0.0756
11932SOL    HW139584   4.795   5.245   5.873 -2.1035  1.2758 -0.1760
11932SOL    HW239585   4.690   5.217   5.767  0.1524  0.3509 -2.2499
11933SOL     OW39586   0.516   5.360   5.910  0.0399  0.1096  0.2454
11933SOL    HW139587   0.476   5.287   5.957  0.0465 -0.5432 -0.7395
11933SOL    HW239588   0.541   5.422   5.979 -2.1149  0.2943  0.9372
11934SOL     OW39589   6.451   7.556   4.321 -0.5195  0.3636  0.5315
11934SOL    HW139590   6.412   7.516   4.398 -1.1248  0.9673  0.5425
11934SOL    HW239591   6.537   7.586   4.351  0.5300 -2.0873  0.1798
11935SOL     OW39592   6.406   2.702   6.777  0.1625 -0.2902 -0.1161
11935SOL    HW139593   6.365   2.634   6.831 -1.8661 -0.0024 -1.1993
11935SOL    HW239594   6.336   2.732   6.719  1.4028  1.6865 -0.6899
11936SOL     OW39595   6.494   0.350   3.637 -0.0613  0.2361  0.0240
11936SOL    HW139596   6.474   0.439   3.608  0.3657  0.4670  0.4343
11936SOL    HW239597   6.583   0.333   3.605  0.2819  0.3678  0.8896
11937SOL     OW39598   3.125   4.140   7.847 -0.0905  0.4427 -0.3549
11937SOL    HW139599   3.215   4.121   7.873 -0.5450  1.5116  2.3367
11937SOL    HW239600   3.106   4.075   7.779  1.9869 -1.2530  0.5522
11938SOL     OW39601   5.982   3.833   0.611  0.0642  0.6382 -0.3842
11938SOL    HW139602   5.902   3.885   0.618 -0.0142  0.6719 -1.4913
11938SOL    HW239603   5.957   3.756   0.559  0.4447  0.0063  0.3377
11939SOL     OW39604   2.275   6.652   9.506  0.1411  0.0488  0.1105
11939SOL    HW139605   2.250   6.560   9.502 -1.1795  0.4501 -2.3581
11939SOL    HW239606   2.370   6.651   9.507  0.1499 -1.3304 -0.2558
11940SOL     OW39607   5.471   4.191   1.724  0.6489 -0.1073 -0.3478
11940SOL    HW139608   5.444   4.129   1.656  1.5352  0.6582 -1.4477
11940SOL    HW239609   5.397   4.194   1.784  0.4310 -1.9229 -0.4653
11941SOL     OW39610   1.465  10.289   8.910 -0.0452 -0.2841  0.4679
11941SOL    HW139611   1.377  10.324   8.921  0.1068  1.0864 -2.0258
11941SOL    HW239612   1.464  10.207   8.959 -2.7224 -0.3498  0.4523
11942SOL     OW39613   4.669   0.827   1.153 -0.0155  0.5613 -0.3152
11942SOL    HW139614   4.697   0.892   1.218  0.1277  0.9431 -0.7520
11942SOL    HW239615   4.669   0.875   1.070  0.3918 -0.0813 -0.6920
11943SOL     OW39616   6.813   9.922   4.441  0.2782  0.0643 -0.2928
11943SOL    HW139617   6.897   9.880   4.424  0.5293  0.7473 -0.7774
11943SOL    HW239618   6.789   9.963   4.358 -0.0940  0.6325  0.0868
11944SOL     OW39619   6.780   6.548   9.725 -0.1589 -0.6922  0.6175
11944SOL    HW139620   6.766   6.606   9.800  0.6381  0.6226 -0.2139
11944SOL    HW239621   6.815   6.605   9.657 -0.2485 -1.9867 -0.5534
11945SOL     OW39622   5.050   9.421   4.346 -0.3531 -0.2353 -0.7168
11945SOL    HW139623   5.120   9.356   4.342  0.7390  0.8282  0.2615
11945SOL    HW239624   4.992   9.389   4.416  0.1264 -0.2106 -0.3034
11946SOL     OW39625   3.845   0.802   5.877  0.9324  0.2463  0.1467
11946SOL    HW139626   3.858   0.815   5.971 -0.2393 -0.1806  0.3755
11946SOL    HW239627   3.779   0.866   5.853 -0.1266 -0.8698 -0.0023
11947SOL     OW39628   5.659   7.753   9.934 -0.0589 -0.0288 -0.1091
11947SOL    HW139629   5.669   7.828   9.876 -3.5996  1.4457  0.9547
11947SOL    HW239630   5.640   7.679   9.876 -0.3482  0.7169 -0.9734
11948SOL     OW39631   0.330   8.275   7.072 -0.4343 -0.3198 -0.0153
11948SOL    HW139632   0.299   8.320   7.151  1.8773 -2.3564  2.2126
11948SOL    HW239633   0.331   8.182   7.096 -0.9006 -1.1876 -2.9549
11949SOL     OW39634   2.857   5.634   3.894  0.2414 -0.4594 -0.1676
11949SOL    HW139635   2.797   5.608   3.964  0.4143 -3.1938 -0.9284
11949SOL    HW239636   2.814   5.607   3.813  1.6735 -0.7592 -0.8650
11950SOL     OW39637   0.318  10.246   0.179  0.3048 -0.5187 -0.3023
11950SOL    HW139638   0.302  10.174   0.240  0.7150 -0.5509 -0.2296
11950SOL    HW239639   0.404  10.280   0.204  0.7756 -0.9529 -1.2717
11951SOL     OW39640   5.453   4.149   0.801  0.0485 -0.2566 -0.4462
11951SOL    HW139641   5.359   4.143   0.784  0.0918 -2.5921 -0.1867
11951SOL    HW239642   5.483   4.058   0.805  2.4024  0.4166 -0.8898
11952SOL     OW39643   2.385   0.569   2.563 -0.1175  0.2127  0.8086
11952SOL    HW139644   2.477   0.595   2.562  0.3336 -1.3317  0.6307
11952SOL    HW239645   2.359   0.569   2.471 -0.0338 -0.2632  0.7863
11953SOL     OW39646   4.516   0.820   1.508 -0.2162 -0.2862  0.1856
11953SOL    HW139647   4.599   0.848   1.548  0.0790 -0.4815 -0.2882
11953SOL    HW239648   4.467   0.902   1.497  0.3171 -0.0454 -0.4516
11954SOL     OW39649   1.914   9.615   0.623  0.2613 -0.3837 -0.0033
11954SOL    HW139650   1.850   9.552   0.590  0.6251 -0.6140 -0.2791
11954SOL    HW239651   1.938   9.667   0.546 -0.8406  0.8143  0.4297
11955SOL     OW39652   6.101   7.148   7.791 -0.6235  0.1172  0.8381
11955SOL    HW139653   6.118   7.175   7.700  0.2454  1.8421  1.4756
11955SOL    HW239654   6.186   7.115   7.822 -0.3055  1.6532  1.6916
11956SOL     OW39655  10.195   1.815   2.793  0.3837  0.3930  0.2446
11956SOL    HW139656  10.257   1.753   2.832  1.4977  1.1068 -0.3319
11956SOL    HW239657  10.109   1.787   2.826  0.6646 -2.2487 -0.9844
11957SOL     OW39658   4.879   0.492   4.750 -0.1173 -0.0860 -0.0053
11957SOL    HW139659   4.889   0.405   4.790  2.9534  0.4177  0.5921
11957SOL    HW239660   4.832   0.544   4.815 -0.0254 -0.7309  0.5895
11958SOL     OW39661   8.955   9.536   9.480 -0.0974  0.2127 -0.5640
11958SOL    HW139662   8.924   9.608   9.424 -0.3362 -0.6013 -1.4959
11958SOL    HW239663   8.916   9.555   9.565  0.1507  1.3987 -0.6871
11959SOL     OW39664   4.762   0.630   5.021  0.0726 -0.4334 -0.2977
11959SOL    HW139665   4.692   0.669   4.969 -0.3691 -0.1044  0.5396
11959SOL    HW239666   4.736   0.643   5.112  0.1501 -2.2083  0.0305
11960SOL     OW39667   8.927   5.029   8.608  0.1776  0.4639  0.6630
11960SOL    HW139668   8.877   5.009   8.529  1.3941 -1.2638  0.2682
11960SOL    HW239669   8.986   5.100   8.582 -0.5848  1.0512  0.5192
11961SOL     OW39670   5.511   6.580   2.033  0.0666  0.4157 -0.2466
11961SOL    HW139671   5.487   6.671   2.018  0.8295  1.2043  2.7241
11961SOL    HW239672   5.599   6.584   2.072 -0.8621 -1.3396  2.2941
11962SOL     OW39673   0.720   4.038   4.685  0.4850 -0.2836 -0.0163
11962SOL    HW139674   0.787   4.077   4.629  1.1878 -2.7832 -1.0023
11962SOL    HW239675   0.647   4.019   4.626 -1.1310  2.2102  1.0059
11963SOL     OW39676   9.600   9.644   9.711 -0.1511  0.2564 -0.0620
11963SOL    HW139677   9.562   9.575   9.658  0.7997 -1.6501  1.5775
11963SOL    HW239678   9.694   9.626   9.709  0.0195  0.9030  1.1802
11964SOL     OW39679   5.486   3.011   6.914  0.5049 -0.4078  0.3007
11964SOL    HW139680   5.448   3.064   6.844  0.0288  1.4586  1.9022
11964SOL    HW239681   5.432   2.932   6.916  0.4371 -0.4406 -1.3060
11965SOL     OW39682   0.246   2.175   1.471 -0.1957  0.0202 -0.5101
11965SOL    HW139683   0.332   2.172   1.512 -0.4007  0.6834  0.0085
11965SOL    HW239684   0.258   2.227   1.392  0.0361 -0.5703 -0.8703
11966SOL     OW39685   9.754  10.054   7.333  0.3889 -0.0504 -0.2652
11966SOL    HW139686   9.758   9.959   7.322  2.8817 -0.5108  3.0069
11966SOL    HW239687   9.774  10.068   7.426 -0.3996  3.6791 -0.5162
11967SOL     OW39688   3.088   5.316   1.282 -0.0105  0.4089  0.4440
11967SOL    HW139689   3.078   5.248   1.348  1.7540 -1.9235 -1.5484
11967SOL    HW239690   3.168   5.363   1.308 -0.3372  0.7282  0.9135
11968SOL     OW39691   9.504   8.530   4.748 -0.5176  0.1091 -0.5320
11968SOL    HW139692   9.475   8.611   4.706 -1.0437 -1.0237 -2.4552
11968SOL    HW239693   9.600   8.534   4.743 -0.5260  0.7575 -0.3014
11969SOL     OW39694   7.564   0.221   6.388 -0.6352 -0.0915  0.3631
11969SOL    HW139695   7.553   0.209   6.293 -2.7158  0.1132  0.5265
11969SOL    HW239696   7.525   0.307   6.405 -0.0464 -0.0143  1.3817
11970SOL     OW39697   7.018   8.223   0.333  0.0134  0.0306  0.0515
11970SOL    HW139698   6.990   8.132   0.332 -0.1832  0.0749  0.7690
11970SOL    HW239699   7.055   8.236   0.420 -0.3278  0.7398  0.1031
11971SOL     OW39700   7.867   9.772  10.163  0.2905  0.3666 -0.0225
11971SOL    HW139701   7.877   9.686  10.204  0.8375 -1.0588 -2.8689
11971SOL    HW239702   7.853   9.752  10.070 -0.0984  3.3659 -0.7009
11972SOL     OW39703   3.978  10.066   1.094 -0.0643  0.3069 -0.1990
11972SOL    HW139704   3.932  10.148   1.111 -0.1536 -0.2026  2.3411
11972SOL    HW239705   3.955  10.009   1.168  3.1872 -0.5884  0.2732
11973SOL     OW39706   7.261   5.606   0.719  0.0330  0.0527  0.4576
11973SOL    HW139707   7.199   5.626   0.788  1.0378  0.8369  1.1706
11973SOL    HW239708   7.274   5.512   0.725 -0.8044 -0.0644  0.5267
11974SOL     OW39709   8.533   0.295   2.092  0.2822  0.4019 -0.2482
11974SOL    HW139710   8.542   0.220   2.033  0.4939  0.9381 -0.9148
11974SOL    HW239711   8.476   0.264   2.162 -0.8812  0.0955 -1.3069
11975SOL     OW39712   9.384   3.538   4.372  0.1056  0.4250 -0.0831
11975SOL    HW139713   9.357   3.547   4.463  1.4940 -0.3859  0.4532
11975SOL    HW239714   9.408   3.446   4.363  0.3308  0.5719 -1.1613
11976SOL     OW39715   1.778   9.529   6.351  0.1888  0.7217  0.5822
11976SOL    HW139716   1.730   9.563   6.276  0.7791  3.2278  1.2365
11976SOL    HW239717   1.810   9.444   6.323  0.6310  1.6817 -2.1295
11977SOL     OW39718   0.925   5.812   4.585  0.0660  0.5834  0.3415
11977SOL    HW139719   0.963   5.724   4.581  0.5644  0.8319 -0.6696
11977SOL    HW239720   0.963   5.852   4.663  1.8673  0.8087 -0.6085
11978SOL     OW39721   6.938   9.669   0.600  0.1199 -0.1114  0.0182
11978SOL    HW139722   6.927   9.577   0.577  0.8812  0.2115 -1.8892
11978SOL    HW239723   6.858   9.692   0.647 -0.1159 -1.7047  0.4684
11979SOL     OW39724   8.704   1.444   5.596  0.1116  0.0275 -0.2626
11979SOL    HW139725   8.691   1.376   5.530  0.4074 -0.1185 -0.1733
11979SOL    HW239726   8.677   1.404   5.678 -2.0977  0.8287 -0.5370
11980SOL     OW39727   7.783   8.164   3.724  0.3956 -0.4894  0.3842
11980SOL    HW139728   7.865   8.197   3.688 -0.8165  1.0082 -1.1711
11980SOL    HW239729   7.718   8.229   3.700 -1.4162 -2.0460  0.8026
11981SOL     OW39730   9.248   4.205   6.751 -0.5839 -0.0300  0.0298
11981SOL    HW139731   9.250   4.113   6.723  1.2516  0.2280 -0.8232
11981SOL    HW239732   9.312   4.248   6.695 -0.5445  1.5549  1.2382
11982SOL     OW39733   2.402   7.548   7.895  0.4377 -0.9057 -0.4490
11982SOL    HW139734   2.341   7.574   7.964  0.1985  0.2345 -1.0561
11982SOL    HW239735   2.414   7.454   7.908 -0.2150 -0.8638  0.6500
11983SOL     OW39736   8.156   9.586   9.373 -0.1691  0.1457  0.5941
11983SOL    HW139737   8.192   9.498   9.383 -2.1234 -0.7349  0.2262
11983SOL    HW239738   8.115   9.586   9.286  1.1832  1.9713 -0.1354
11984SOL     OW39739   0.265   9.497   0.932  0.2037 -0.1032  0.2195
11984SOL    HW139740   0.213   9.421   0.957 -0.9810  0.5946 -0.0493
11984SOL    HW239741   0.337   9.498   0.995  0.0999 -1.2981  0.3828
11985SOL     OW39742   1.073   7.519   3.809  0.4419  0.1771 -1.0964
11985SOL    HW139743   1.101   7.607   3.781  0.1439  0.0038 -1.9529
11985SOL    HW239744   1.001   7.497   3.751 -1.5594  0.6184  1.0717
11986SOL     OW39745   7.943   0.585   1.378 -0.4105  0.1903  0.3123
11986SOL    HW139746   7.892   0.504   1.372 -1.3384  0.8272 -0.4336
11986SOL    HW239747   7.878   0.655   1.379  0.1726  0.8903  3.7231
11987SOL     OW39748   7.528   7.978   0.063  0.3442 -0.0384  1.1948
11987SOL    HW139749   7.607   8.029   0.048  1.1010 -0.9120  2.0336
11987SOL    HW239750   7.528   7.913  -0.008 -0.2425  0.6518  0.5406
11988SOL     OW39751  10.296   1.579  10.053 -0.7853 -0.1552 -0.1747
11988SOL    HW139752  10.366   1.544  10.108 -0.6100  2.2062  1.2256
11988SOL    HW239753  10.217   1.574  10.108 -0.9667  0.5730 -0.3512
11989SOL     OW39754   3.412   8.000   7.404  0.0026 -0.3262  0.7631
11989SOL    HW139755   3.399   7.906   7.394 -0.5237 -0.1211 -0.6367
11989SOL    HW239756   3.344   8.027   7.466 -1.3104 -0.5296 -0.5424
11990SOL     OW39757   6.839   1.161   8.979  0.0920 -0.1470 -0.2822
11990SOL    HW139758   6.771   1.224   9.006 -1.2690 -0.9677 -1.6310
11990SOL    HW239759   6.806   1.125   8.896  1.4755 -1.6782 -0.2035
11991SOL     OW39760   9.918   7.363   6.674  0.2031 -1.0391 -0.3337
11991SOL    HW139761   9.950   7.273   6.669  0.8535 -0.7778 -0.9999
11991SOL    HW239762   9.828   7.358   6.641 -0.0397 -1.5701  0.3891
11992SOL     OW39763   8.464   5.348   1.871 -0.3767 -0.6788  0.1761
11992SOL    HW139764   8.524   5.361   1.797 -1.2122  1.8023 -0.1524
11992SOL    HW239765   8.401   5.284   1.839  0.0385 -0.6288 -0.7933
11993SOL     OW39766  10.257   3.184   2.681 -0.1810 -0.0070  0.5367
11993SOL    HW139767  10.251   3.275   2.652  1.6574  0.2659  0.9417
11993SOL    HW239768  10.173   3.168   2.724 -0.2790  1.7293  1.0838
11994SOL     OW39769   0.663   6.884   6.042 -0.6603 -0.2622  0.3024
11994SOL    HW139770   0.614   6.881   5.959  1.2420  2.0055 -1.0339
11994SOL    HW239771   0.630   6.963   6.086 -0.0884 -0.2047  0.6317
11995SOL     OW39772   3.678   5.849   3.721  0.7027 -0.3968 -0.1737
11995SOL    HW139773   3.704   5.920   3.661 -2.4122  1.2854  0.2656
11995SOL    HW239774   3.691   5.769   3.670  3.3132  0.4809 -1.0753
11996SOL     OW39775   7.064   8.615   7.006 -0.1745 -0.7972  0.2328
11996SOL    HW139776   7.159   8.611   7.008 -0.0228  1.6082  1.3179
11996SOL    HW239777   7.036   8.570   7.086  0.2280  0.6465  1.2210
11997SOL     OW39778   0.672   8.847   3.837  0.5592 -0.3050  0.3057
11997SOL    HW139779   0.613   8.888   3.775  1.9918  0.0009 -0.9193
11997SOL    HW239780   0.617   8.787   3.887 -0.6933 -0.3462 -1.0657
11998SOL     OW39781   2.603   6.766   8.530  0.4443 -0.1760 -0.5465
11998SOL    HW139782   2.543   6.839   8.511 -0.8528 -1.2821 -0.8930
11998SOL    HW239783   2.690   6.803   8.518 -0.1252  1.6460  0.4918
11999SOL     OW39784   0.863   8.518   3.323 -0.3913 -0.1990  0.6727
11999SOL    HW139785   0.815   8.541   3.402  1.6232 -1.9719  2.5778
11999SOL    HW239786   0.895   8.601   3.288 -1.2950  0.6104  1.7468
12000SOL     OW39787   1.935   0.475   5.637  0.1140 -0.0206 -0.1708
12000SOL    HW139788   2.028   0.494   5.652  0.0378  0.4039 -0.2275
12000SOL    HW239789   1.932   0.440   5.548  0.3125 -0.7099  0.0905
12001SOL     OW39790   5.062   7.828   0.758  0.2119 -0.2692  0.1530
12001SOL    HW139791   5.025   7.741   0.744  1.6763 -0.7243 -1.2464
12001SOL    HW239792   5.118   7.819   0.834 -1.4340  0.0990  1.4778
12002SOL     OW39793   4.112   2.671   4.707 -0.0845  0.0420  0.0406
12002SOL    HW139794   4.089   2.671   4.614 -0.9172 -2.7983  0.1675
12002SOL    HW239795   4.081   2.587   4.740 -0.1917  1.1114  3.0187
12003SOL     OW39796   2.617   8.265   5.479 -0.5127  0.2815 -0.1302
12003SOL    HW139797   2.649   8.309   5.401 -2.7188  1.5287 -0.4205
12003SOL    HW239798   2.603   8.175   5.452  0.3158  0.3117 -0.6875
12004SOL     OW39799   0.888  10.101   2.960 -0.1777  0.3213  0.4754
12004SOL    HW139800   0.901  10.192   2.987 -2.6141  0.9770 -0.2785
12004SOL    HW239801   0.918  10.050   3.035  1.5464  1.6787  0.8049
12005SOL     OW39802   7.564   4.766   0.121 -0.0675 -0.6593 -0.1810
12005SOL    HW139803   7.486   4.719   0.091 -0.2978 -0.0407 -0.5809
12005SOL    HW239804   7.578   4.833   0.054  0.8981 -0.8559 -0.1894
12006SOL     OW39805   7.980   7.175   4.373 -0.1981 -0.1789 -0.2198
12006SOL    HW139806   7.974   7.136   4.286 -1.0287  0.0972 -0.3010
12006SOL    HW239807   7.978   7.269   4.357  2.3132 -0.0356 -0.0638
12007SOL     OW39808  10.193   4.027   4.678  0.2001  0.1474 -0.3208
12007SOL    HW139809  10.163   3.940   4.704  0.5471  0.2562  0.4505
12007SOL    HW239810  10.248   4.011   4.601 -2.9483  0.0648 -2.8033
12008SOL     OW39811   1.505   3.347   0.153  0.1115 -0.4588 -0.1110
12008SOL    HW139812   1.556   3.273   0.187  0.8399  0.3310  0.5855
12008SOL    HW239813   1.559   3.424   0.174 -0.9121  0.3174 -0.2700
12009SOL     OW39814   6.649   1.223   3.509  0.3417 -0.2243  0.5518
12009SOL    HW139815   6.734   1.189   3.538  0.3728 -0.5112  0.1320
12009SOL    HW239816   6.619   1.278   3.582  0.7977 -0.2746  0.7815
12010SOL     OW39817   7.956   6.434   8.571  0.1290  0.0944 -0.2903
12010SOL    HW139818   7.895   6.462   8.640  0.1074  1.0296 -0.6824
12010SOL    HW239819   7.944   6.497   8.501 -0.4374 -1.2982 -1.5137
12011SOL     OW39820   2.351   4.880   0.484  0.0015 -0.8596  0.4178
12011SOL    HW139821   2.350   4.848   0.393  1.0374 -0.7146  0.3539
12011SOL    HW239822   2.258   4.895   0.504 -0.1423  1.5726 -1.4996
12012SOL     OW39823   7.444  10.213   0.779  0.5769 -0.1038  0.3296
12012SOL    HW139824   7.469  10.262   0.701 -0.7962 -0.5549 -0.4381
12012SOL    HW239825   7.395  10.138   0.745 -2.4669  1.1040  1.6888
12013SOL     OW39826   8.069   6.301   6.726 -0.1610  0.0253 -0.1642
12013SOL    HW139827   8.102   6.242   6.793 -0.3510 -0.7782 -0.7661
12013SOL    HW239828   7.974   6.301   6.739 -0.1524  0.3044 -0.0856
12014SOL     OW39829   3.503   1.710   4.122 -0.1425 -0.1342 -0.5368
12014SOL    HW139830   3.592   1.726   4.154 -0.4223 -2.4693  1.8187
12014SOL    HW239831   3.447   1.764   4.178 -0.2855  2.4195 -2.9046
12015SOL     OW39832   9.663   3.753   0.979  0.0627 -0.0867 -0.1444
12015SOL    HW139833   9.616   3.751   1.062 -1.0848 -2.6813 -0.7536
12015SOL    HW239834   9.700   3.665   0.970  4.1418  1.4381 -0.2858
12016SOL     OW39835   6.388   7.776   7.685  0.3573 -0.8089  0.1359
12016SOL    HW139836   6.348   7.863   7.685  0.0185 -0.9318  1.6112
12016SOL    HW239837   6.346   7.730   7.758  1.3097 -1.8380  0.0710
12017SOL     OW39838   9.145  10.141   7.443 -0.0066 -0.0349  0.4542
12017SOL    HW139839   9.129  10.235   7.437 -0.8091 -0.1875  0.0065
12017SOL    HW239840   9.109  10.116   7.528  0.8617  0.1794  0.8897
12018SOL     OW39841   0.986   4.363   5.685 -0.4432 -0.0447  0.0706
12018SOL    HW139842   1.036   4.314   5.750 -1.7326 -0.7939  0.5335
12018SOL    HW239843   0.924   4.415   5.737  1.0666  2.3516 -0.3854
12019SOL     OW39844   5.983  10.341   1.158  0.0406 -0.8446  0.3853
12019SOL    HW139845   6.006  10.253   1.130 -0.7298 -0.4864 -1.4564
12019SOL    HW239846   6.049  10.397   1.117  0.3386 -0.5067  1.2902
12020SOL     OW39847   9.573   8.038   8.556  0.3065  0.6313 -0.3027
12020SOL    HW139848   9.581   8.053   8.462  1.9684  0.0436 -0.2818
12020SOL    HW239849   9.604   7.949   8.570 -0.9023  0.3263  0.7001
12021SOL     OW39850   4.665   9.982   9.344 -0.1501 -0.3810  0.2502
12021SOL    HW139851   4.636   9.931   9.420 -0.3569  0.9638  1.1309
12021SOL    HW239852   4.744  10.027   9.375 -0.7251  0.8636 -0.0187
12022SOL     OW39853   4.573   7.272   3.062  0.2458  0.3814  0.3034
12022SOL    HW139854   4.638   7.233   3.120  1.2243  2.3596  0.6176
12022SOL    HW239855   4.491   7.268   3.112  0.1452 -1.7903  0.0487
12023SOL     OW39856   0.898   5.227   3.494 -0.4386 -0.0465  0.4120
12023SOL    HW139857   0.881   5.152   3.437 -1.5196 -0.1325  0.8075
12023SOL    HW239858   0.890   5.191   3.583 -0.0701  0.3501  0.6089
12024SOL     OW39859   1.246   7.192   0.459 -0.2902  0.1932 -0.1391
12024SOL    HW139860   1.192   7.266   0.484 -0.4939 -0.4549  1.4405
12024SOL    HW239861   1.198   7.115   0.491  0.4945 -0.5380 -0.6749
12025SOL     OW39862   7.918   8.595   8.686  0.1466  0.2360 -0.2550
12025SOL    HW139863   7.994   8.544   8.712  0.1047 -0.3890 -1.2921
12025SOL    HW239864   7.846   8.531   8.684 -0.4524  0.8457  0.8609
12026SOL     OW39865   9.724   4.844   4.311  0.2526 -0.5959  0.5928
12026SOL    HW139866   9.708   4.764   4.360  0.0798 -0.7166  0.3392
12026SOL    HW239867   9.664   4.908   4.349 -0.7566 -1.0083 -0.2613
12027SOL     OW39868   9.889   2.614   2.886  0.1495  0.5965 -0.1920
12027SOL    HW139869   9.964   2.674   2.880  0.7362  0.0715  1.2703
12027SOL    HW239870   9.871   2.608   2.980 -1.2066  0.0623 -0.4700
12028SOL     OW39871   4.270   3.106   2.299  0.2231  0.2396 -0.4817
12028SOL    HW139872   4.336   3.088   2.232  0.5423 -0.8350  0.0811
12028SOL    HW239873   4.310   3.173   2.354  1.5066 -1.3830  0.6754
12029SOL     OW39874   5.802   3.937   1.645  0.4140  0.2092  0.0016
12029SOL    HW139875   5.893   3.931   1.616  0.4833 -2.8050  0.5073
12029SOL    HW239876   5.807   3.942   1.740  0.0273  3.4078 -0.0426
12030SOL     OW39877   8.067   9.615   9.704  0.3016  0.1435 -0.2907
12030SOL    HW139878   8.090   9.577   9.789 -0.5143  1.5834  0.6126
12030SOL    HW239879   8.151   9.642   9.667  1.1339 -3.7429 -1.6815
12031SOL     OW39880   0.941   8.996   8.376 -0.1293  0.5510 -0.4112
12031SOL    HW139881   1.028   8.960   8.395 -1.0170 -0.6345  1.8186
12031SOL    HW239882   0.957   9.089   8.361  1.4729  0.4791  0.5369
12032SOL     OW39883   1.415   6.072   9.846  0.1723  0.5006  0.0193
12032SOL    HW139884   1.400   6.098   9.755  1.5864  2.4482  0.2927
12032SOL    HW239885   1.329   6.079   9.887 -0.1842  1.1567 -0.8084
12033SOL     OW39886   0.800   4.826   4.554 -0.3505 -0.1934  0.5674
12033SOL    HW139887   0.786   4.910   4.598  0.2132 -0.2727  0.9108
12033SOL    HW239888   0.781   4.760   4.621  1.6068 -0.3066  1.0882
12034SOL     OW39889   6.836   0.951   4.672  0.2891 -0.0261 -0.0377
12034SOL    HW139890   6.783   1.030   4.684  1.6635  0.7611  1.2223
12034SOL    HW239891   6.912   0.982   4.622  2.0389  0.0578  2.5171
12035SOL     OW39892   6.228   3.983   1.478  0.1707 -0.4208  0.2610
12035SOL    HW139893   6.237   3.890   1.498 -1.1170 -0.4899  0.5924
12035SOL    HW239894   6.316   4.019   1.492  0.5319 -1.4600  0.7849
12036SOL     OW39895   2.533   0.779   6.431  0.4731 -0.1393  0.2061
12036SOL    HW139896   2.542   0.745   6.342  0.0567 -0.1070  0.1495
12036SOL    HW239897   2.539   0.874   6.421  0.6255 -0.1454  0.2376
12037SOL     OW39898   3.159   1.250   1.296  0.6393  0.1677 -0.0166
12037SOL    HW139899   3.103   1.197   1.239  2.0552 -1.2750 -0.1312
12037SOL    HW239900   3.161   1.336   1.254 -0.4325 -0.1305 -0.7126
12038SOL     OW39901   3.724   2.208   5.447 -0.7766 -0.5459  0.2437
12038SOL    HW139902   3.738   2.175   5.359  1.0611  0.5802  0.0634
12038SOL    HW239903   3.699   2.131   5.498 -1.4283 -1.2818 -1.1429
12039SOL     OW39904   1.947   1.160   6.958  0.9769  0.0666  0.0383
12039SOL    HW139905   2.016   1.102   6.926  1.4148  0.9588 -0.6834
12039SOL    HW239906   1.867   1.129   6.916  1.0924 -0.4041  0.1613
12040SOL     OW39907   5.497   0.747   2.250  0.5278  0.4859 -0.5289
12040SOL    HW139908   5.514   0.711   2.337  2.4876 -1.1149 -1.4858
12040SOL    HW239909   5.451   0.677   2.204  1.7714  0.2944 -1.5228
12041SOL     OW39910   3.500   0.224   3.814  0.2938  0.2258  0.5541
12041SOL    HW139911   3.522   0.265   3.730  0.6194  1.2936  1.1509
12041SOL    HW239912   3.512   0.293   3.879 -0.6051 -0.3986  1.4131
12042SOL     OW39913   6.873   6.154   4.594 -0.3973  0.1966  0.0847
12042SOL    HW139914   6.954   6.188   4.631 -0.6880 -0.1946  1.1049
12042SOL    HW239915   6.902   6.095   4.525  0.1928  0.0534  0.4459
12043SOL     OW39916   4.389   7.148   9.242  0.3552  0.4162 -0.0113
12043SOL    HW139917   4.425   7.114   9.324 -0.6693  1.2222  0.7964
12043SOL    HW239918   4.357   7.235   9.264 -0.4981  0.4002 -1.1229
12044SOL     OW39919   7.271   2.113   8.883 -0.1111  0.3229 -0.0625
12044SOL    HW139920   7.313   2.037   8.842 -1.0029 -0.6234  0.7203
12044SOL    HW239921   7.260   2.176   8.812 -0.6026 -0.8314 -1.0359
12045SOL     OW39922   8.315   6.768   1.625 -0.4888 -0.1779 -0.0170
12045SOL    HW139923   8.281   6.800   1.709 -0.7925 -0.1345 -0.1538
12045SOL    HW239924   8.237   6.747   1.574 -0.3292  0.4475 -0.5376
12046SOL     OW39925   6.945   2.261   4.142 -0.2790 -0.1187  0.5999
12046SOL    HW139926   6.902   2.272   4.227  0.0382 -0.0556  0.7540
12046SOL    HW239927   6.971   2.169   4.141  1.4462  0.3092  1.4095
12047SOL     OW39928   5.812   3.629  10.007  0.0758  0.2878  0.0939
12047SOL    HW139929   5.748   3.565   9.976  0.0301 -0.8279  2.2930
12047SOL    HW239930   5.770   3.713   9.994 -1.0866 -0.3181 -0.1891
12048SOL     OW39931   2.430   6.988   5.942 -0.2662  0.0772  0.2589
12048SOL    HW139932   2.371   7.061   5.923  0.0164  0.1617 -0.3021
12048SOL    HW239933   2.376   6.910   5.932 -0.7418  0.2222  1.4938
12049SOL     OW39934   9.091   9.652   7.117 -0.3400  0.0480 -0.3297
12049SOL    HW139935   9.181   9.643   7.088  0.1131  1.6886  0.4424
12049SOL    HW239936   9.094   9.629   7.210 -0.5623  0.8298 -0.1240
12050SOL     OW39937   6.640   2.111   9.521 -0.3953  0.2708 -0.1595
12050SOL    HW139938   6.572   2.102   9.588  0.8677 -0.1945  1.1182
12050SOL    HW239939   6.701   2.040   9.539  0.5425  0.7987 -1.1305
12051SOL     OW39940   5.570   9.803   1.087 -0.0728 -0.0328  0.5993
12051SOL    HW139941   5.553   9.712   1.110 -1.8902  0.0140 -0.3876
12051SOL    HW239942   5.659   9.802   1.050  0.3093 -1.2035  1.4863
12052SOL     OW39943   9.470   6.621   1.094 -0.1523 -0.4056  0.1150
12052SOL    HW139944   9.514   6.700   1.123  1.8141 -1.6038  0.5883
12052SOL    HW239945   9.428   6.587   1.173 -0.1186 -0.3842  0.1420
12053SOL     OW39946   5.837   8.501   1.720 -0.2243  0.3728  0.0539
12053SOL    HW139947   5.842   8.495   1.816 -0.2043 -1.9126 -0.0314
12053SOL    HW239948   5.745   8.482   1.700  0.0239 -0.3924 -0.4106
12054SOL     OW39949   1.851   1.330   9.764 -0.4325  0.1740 -0.1461
12054SOL    HW139950   1.807   1.391   9.705 -1.3629 -0.2070  0.1363
12054SOL    HW239951   1.801   1.335   9.846 -0.6092 -1.0501 -0.1552
12055SOL     OW39952   3.164   5.198   0.264  1.0742  0.4118  0.5089
12055SOL    HW139953   3.203   5.200   0.351  2.5576  2.6291 -0.1316
12055SOL    HW239954   3.238   5.193   0.204  0.2089  1.1343 -0.6809
12056SOL     OW39955   2.065   8.257   7.342  0.7687  0.3709 -0.2628
12056SOL    HW139956   2.124   8.205   7.397  0.8118  0.4430 -0.2410
12056SOL    HW239957   2.021   8.192   7.286  0.5261  0.2671  0.0448
12057SOL     OW39958   1.472   2.232   8.080  0.3386 -0.2761  0.3229
12057SOL    HW139959   1.422   2.314   8.081 -0.1776 -0.5542 -0.9068
12057SOL    HW239960   1.406   2.164   8.062  1.3054 -0.4663 -3.1413
12058SOL     OW39961   4.946   9.694   8.633 -0.3504 -0.3191  0.0782
12058SOL    HW139962   4.926   9.663   8.722  1.6317  0.3932  0.8349
12058SOL    HW239963   4.870   9.746   8.608 -0.7329 -0.0822  1.6069
12059SOL     OW39964   4.510   8.298   4.516 -0.4010  0.4335  0.3724
12059SOL    HW139965   4.521   8.230   4.583 -0.1393  0.7201  0.6245
12059SOL    HW239966   4.568   8.369   4.544  2.3768 -0.7454 -1.9303
12060SOL     OW39967   0.123   7.155   2.566  0.5284 -0.1156  0.5377
12060SOL    HW139968   0.142   7.111   2.648 -0.4945  1.5067  1.7059
12060SOL    HW239969   0.135   7.087   2.499  2.7394 -1.1127  1.8498
12061SOL     OW39970   6.088   4.658   0.396 -0.1963  0.4964 -0.2555
12061SOL    HW139971   6.052   4.631   0.312 -0.7527  1.9387 -0.5148
12061SOL    HW239972   6.178   4.685   0.375 -0.0848  0.1412 -0.2415
12062SOL     OW39973   8.386   6.580   3.732 -0.3795  0.4987 -0.5380
12062SOL    HW139974   8.452   6.601   3.665 -0.1331  0.2248 -0.3817
12062SOL    HW239975   8.413   6.633   3.808 -0.3466  0.3959 -0.4783
12063SOL     OW39976   3.456   0.523   5.461 -0.5561 -0.2297  0.2984
12063SOL    HW139977   3.527   0.525   5.525 -1.3971 -0.7311  1.2839
12063SOL    HW239978   3.500   0.527   5.376  0.6202 -0.1291  0.8900
12064SOL     OW39979   0.013   9.634   3.773 -0.5722 -0.3032  0.4361
12064SOL    HW139980  -0.016   9.712   3.727  1.5314 -0.1251 -0.7190
12064SOL    HW239981  -0.017   9.561   3.719  1.3370 -0.1111 -0.9630
12065SOL     OW39982   5.149   8.330   3.724 -0.4727 -0.0183  0.1055
12065SOL    HW139983   5.181   8.255   3.674 -2.4561  0.0069 -1.3295
12065SOL    HW239984   5.117   8.292   3.806 -1.4754 -0.7800 -0.6146
12066SOL     OW39985   5.931   8.112   3.831 -0.7289 -0.5333 -0.5849
12066SOL    HW139986   6.003   8.062   3.792  0.6040  0.3847  0.5744
12066SOL    HW239987   5.859   8.050   3.837  0.0723 -1.5929 -1.4509
12067SOL     OW39988   4.316   0.580   7.446 -0.5332 -0.2986 -0.4610
12067SOL    HW139989   4.263   0.569   7.525  0.7333 -0.1417  0.4510
12067SOL    HW239990   4.312   0.495   7.402  0.9809 -1.3420  1.2556
12068SOL     OW39991   9.044   2.204   7.642  0.5394  0.3662  0.1002
12068SOL    HW139992   9.021   2.152   7.565 -0.3095  0.6295  0.1660
12068SOL    HW239993   9.052   2.141   7.713 -1.6529  0.4164  0.4380
12069SOL     OW39994   3.122   6.951  10.156 -0.4206 -0.6695 -0.8056
12069SOL    HW139995   3.155   6.885  10.218 -1.3774  0.0908  0.5774
12069SOL    HW239996   3.131   6.910  10.070  2.2825 -1.2453 -0.3375
12070SOL     OW39997   2.645   4.819   1.818  0.0848  0.5223  0.0539
12070SOL    HW139998   2.614   4.853   1.902  0.1035  0.9262 -0.0967
12070SOL    HW239999   2.668   4.728   1.836  0.0806  0.6008  0.4853
12071SOL     OW40000   9.429   0.624   2.399 -0.2934  0.2381  0.1622
12071SOL    HW140001   9.459   0.545   2.355  1.2862  0.9963 -0.2051
12071SOL    HW240002   9.508   0.661   2.439 -1.3412  0.5844  2.0478
12072SOL     OW40003   3.864   0.537   5.745 -0.0952 -0.6849  0.5441
12072SOL    HW140004   3.956   0.548   5.719 -0.1940 -0.3839  0.3196
12072SOL    HW240005   3.855   0.591   5.824 -0.6621  1.2092 -0.7379
12073SOL     OW40006   0.034   9.549   0.738 -0.4539 -0.5115  0.0933
12073SOL    HW140007   0.074   9.510   0.816 -1.2111  0.4142  0.9845
12073SOL    HW240008  -0.036   9.488   0.714 -1.1595 -0.1033  1.0394
12074SOL     OW40009   9.960   6.923  10.255  0.0060 -0.5535  0.5661
12074SOL    HW140010   9.924   6.840  10.225 -0.7402 -0.3087  0.7723
12074SOL    HW240011   9.888   6.965  10.301 -0.0549  0.8624 -0.7850
12075SOL     OW40012   8.974   9.977   5.171  0.2007  0.2061 -0.0030
12075SOL    HW140013   8.985  10.019   5.257  0.9796  0.5126 -0.2478
12075SOL    HW240014   8.992   9.885   5.188  2.4845  0.5441 -0.2045
12076SOL     OW40015   1.887   0.299   7.107 -0.3452 -0.1993 -0.3854
12076SOL    HW140016   1.876   0.210   7.140  4.9116 -1.0451  0.0237
12076SOL    HW240017   1.874   0.355   7.183  0.0790 -1.0373  0.3241
12077SOL     OW40018   0.608   8.793   9.637 -0.6353  0.2415  0.4171
12077SOL    HW140019   0.538   8.734   9.610 -0.4619  0.1819  0.0957
12077SOL    HW240020   0.563   8.866   9.679 -0.9065  0.2954  0.0425
12078SOL     OW40021   8.602   1.934   3.517  0.2776  0.7016  0.2052
12078SOL    HW140022   8.641   2.010   3.473 -0.0222  0.6202 -0.2049
12078SOL    HW240023   8.514   1.963   3.541  0.2647  0.5764  0.3065
12079SOL     OW40024   2.936   6.020   9.570  0.0763 -0.1905 -0.2210
12079SOL    HW140025   2.973   5.974   9.646  0.2770  0.6550  0.2019
12079SOL    HW240026   2.849   5.982   9.559 -0.5096  0.6403  1.3049
12080SOL     OW40027   7.364   9.558   0.348  0.2601  0.2857  0.4492
12080SOL    HW140028   7.291   9.595   0.298 -0.7296  0.7350  2.1492
12080SOL    HW240029   7.419   9.633   0.368  0.7067  0.0910 -0.0164
12081SOL     OW40030   0.329   5.512  10.321 -0.0767 -0.1136 -0.8017
12081SOL    HW140031   0.234   5.521  10.313  0.0022  1.4376 -0.2839
12081SOL    HW240032   0.341   5.445  10.388 -0.7653 -1.8971 -2.3890
12082SOL     OW40033   2.921   9.157   2.379 -0.0472  0.1862 -0.8426
12082SOL    HW140034   2.936   9.252   2.385  1.0873 -0.0515  1.3639
12082SOL    HW240035   3.008   9.119   2.384 -0.5983 -0.9940  0.8483
12083SOL     OW40036  10.026   5.496   6.093 -0.3771  0.0124 -0.2381
12083SOL    HW140037  10.096   5.430   6.090 -0.3459 -0.1311  1.7946
12083SOL    HW240038   9.947   5.448   6.071 -0.2701 -0.6237  0.6674
12084SOL     OW40039   0.850   8.301   4.457  0.2726 -0.2944 -0.7381
12084SOL    HW140040   0.797   8.309   4.378  1.6993 -0.7851 -1.7941
12084SOL    HW240041   0.868   8.207   4.464 -0.5572 -0.3679  0.6815
12085SOL     OW40042   1.263   9.961   9.574  0.2820 -0.2509  0.2008
12085SOL    HW140043   1.272  10.008   9.491  0.4139 -0.0994  0.3011
12085SOL    HW240044   1.350   9.967   9.614 -0.2468  1.2846  1.2119
12086SOL     OW40045   4.825   0.296   9.207  0.0835  0.3311  0.0120
12086SOL    HW140046   4.761   0.265   9.271  0.8554  0.0652  0.6702
12086SOL    HW240047   4.903   0.243   9.223  0.4861  0.6696 -0.7585
12087SOL     OW40048   5.184   1.622   7.002  0.1190 -0.2505  0.0583
12087SOL    HW140049   5.265   1.668   7.026  0.0218 -0.2977  0.4921
12087SOL    HW240050   5.158   1.661   6.919  0.6740 -0.3436 -0.1669
12088SOL     OW40051   2.754   1.551   5.526 -0.0201 -0.4172 -0.3136
12088SOL    HW140052   2.829   1.589   5.480  1.0674 -0.6438  1.2019
12088SOL    HW240053   2.753   1.460   5.499 -0.2958 -0.2156 -1.0067
12089SOL     OW40054   9.858   4.263   1.279 -0.2468  0.6627 -0.1145
12089SOL    HW140055   9.869   4.244   1.186  1.8866  1.7365 -0.1599
12089SOL    HW240056   9.928   4.213   1.322 -1.6913 -0.4445  1.0317
12090SOL     OW40057   6.743   6.649   3.683 -0.4196  0.1942  0.5565
12090SOL    HW140058   6.697   6.710   3.624  0.2582  0.1170 -0.0638
12090SOL    HW240059   6.748   6.696   3.767  2.5378  2.2510 -0.5876
12091SOL     OW40060   0.647   9.870   9.832 -0.1696  0.1364  0.1126
12091SOL    HW140061   0.672   9.913   9.913 -1.0067  0.5614  0.1615
12091SOL    HW240062   0.585   9.930   9.791 -0.9639 -0.7729 -0.0665
12092SOL     OW40063  10.301   3.137   8.394 -0.4366  0.4696 -0.4320
12092SOL    HW140064  10.240   3.105   8.460 -0.3257  1.9673  0.4334
12092SOL    HW240065  10.253   3.207   8.349  0.6101  1.6461  0.2447
12093SOL     OW40066   4.362   6.126  10.248 -0.3271 -0.4676 -0.1704
12093SOL    HW140067   4.354   6.211  10.291  1.3481  0.7880 -2.1922
12093SOL    HW240068   4.416   6.074  10.308 -1.3845 -0.1871  1.0894
12094SOL     OW40069   2.411   8.094   5.694 -0.0381  0.2452  0.0439
12094SOL    HW140070   2.367   8.125   5.773  0.5301  2.2891 -0.3801
12094SOL    HW240071   2.462   8.169   5.664  0.4075 -0.7420 -1.8269
12095SOL     OW40072   5.048   4.304   1.616  0.5501 -0.2649 -0.6933
12095SOL    HW140073   5.058   4.244   1.542  2.2833 -0.2969 -0.4745
12095SOL    HW240074   5.050   4.247   1.693  1.9929  0.0164 -0.4941
12096SOL     OW40075   7.238   1.151   6.599  0.2488  0.3207 -0.9201
12096SOL    HW140076   7.207   1.061   6.593  1.7133 -0.4307  1.3400
12096SOL    HW240077   7.159   1.204   6.605 -0.6259 -0.8519 -1.6908
12097SOL     OW40078   7.494   5.035   1.605  0.1889  0.0593  0.1945
12097SOL    HW140079   7.476   4.973   1.534  0.7210  1.4711 -1.2509
12097SOL    HW240080   7.454   4.996   1.682  0.1666 -1.8815 -0.7256
12098SOL     OW40081   8.236   4.063   2.320  0.3959  0.1326 -0.2883
12098SOL    HW140082   8.297   4.126   2.358 -0.1841  0.2153  0.5396
12098SOL    HW240083   8.183   4.033   2.395 -0.8922  0.4300 -1.0494
12099SOL     OW40084   8.079   0.136   3.709  0.2275 -0.3029 -0.0455
12099SOL    HW140085   8.113   0.153   3.797  2.4422  1.2475 -1.1200
12099SOL    HW240086   8.046   0.046   3.714 -0.1629 -0.0945  2.4749
12100SOL     OW40087   6.694   2.246   0.082 -0.1280  0.0771 -0.0324
12100SOL    HW140088   6.759   2.315   0.068  0.8725 -0.2603  2.3716
12100SOL    HW240089   6.711   2.182   0.012  2.6909 -0.3329  0.8934
12101SOL     OW40090   6.677   0.969   1.988 -0.3384 -0.4971 -0.2282
12101SOL    HW140091   6.589   0.952   2.023 -1.1761 -0.2748 -2.1018
12101SOL    HW240092   6.686   1.064   1.991 -0.5066 -0.4583 -0.7732
12102SOL     OW40093   6.770   7.416   7.182  0.8037 -0.2241  0.4405
12102SOL    HW140094   6.798   7.326   7.167 -0.0543 -0.5619  0.7973
12102SOL    HW240095   6.821   7.468   7.119  1.7598 -0.8717  0.6502
12103SOL     OW40096   6.929   7.688   0.185  0.3196  0.0565  0.5448
12103SOL    HW140097   6.926   7.766   0.241 -1.0834  1.2941 -1.1126
12103SOL    HW240098   6.864   7.706   0.117  0.5867 -2.2156 -0.3810
12104SOL     OW40099   8.890   3.671   2.503  0.1693  0.6623 -0.1458
12104SOL    HW140100   8.894   3.694   2.595 -0.5761  0.1588  0.0267
12104SOL    HW240101   8.912   3.752   2.456 -0.7288  1.2711  0.4567
12105SOL     OW40102   9.407   9.625   5.870 -0.4795  0.0386 -0.7682
12105SOL    HW140103   9.336   9.568   5.899 -1.3213  0.2979 -2.2139
12105SOL    HW240104   9.465   9.567   5.820  1.6521 -0.6981  2.2752
12106SOL     OW40105   6.065   3.662   0.944 -0.2396  0.4214  0.3264
12106SOL    HW140106   6.107   3.582   0.913  1.5214  1.2364  0.4447
12106SOL    HW240107   5.982   3.667   0.896 -0.1989 -1.2586  0.0478
12107SOL     OW40108   7.147   9.224   3.677  0.6294  0.4844  0.3074
12107SOL    HW140109   7.232   9.264   3.656  0.8579 -0.3802 -0.5148
12107SOL    HW240110   7.122   9.178   3.596 -1.9752  2.9507 -0.4579
12108SOL     OW40111   6.846   2.679   3.785  0.7127 -0.2101  0.0819
12108SOL    HW140112   6.801   2.755   3.747 -1.6325 -1.7868 -0.5022
12108SOL    HW240113   6.913   2.656   3.721 -0.5135 -0.3718 -1.1850
12109SOL     OW40114   1.680   4.713   6.499  0.1192  0.0533 -0.2043
12109SOL    HW140115   1.753   4.664   6.462  0.5206  0.2120  0.3759
12109SOL    HW240116   1.604   4.684   6.448  0.6457  0.2032 -1.0970
12110SOL     OW40117   7.743   2.381   5.814  0.1414  0.9688  0.7547
12110SOL    HW140118   7.687   2.341   5.880 -0.3623  0.3096 -0.0565
12110SOL    HW240119   7.832   2.366   5.846 -0.0675 -0.0733  0.8826
12111SOL     OW40120   2.621   4.247   7.817 -0.1744 -0.0315  0.7967
12111SOL    HW140121   2.683   4.320   7.811  1.4502 -1.2886  1.4554
12111SOL    HW240122   2.581   4.256   7.903 -0.2576  0.3028  0.7222
12112SOL     OW40123   2.937   2.113   6.751  0.0858  0.0975  0.2418
12112SOL    HW140124   3.012   2.136   6.806 -0.8100 -0.0484  1.5560
12112SOL    HW240125   2.936   2.017   6.751  1.0723  0.0292 -1.4643
12113SOL     OW40126   1.010   3.148   9.137 -0.1067  0.1693  0.0377
12113SOL    HW140127   0.998   3.240   9.112  2.2587  0.3242 -0.7066
12113SOL    HW240128   1.040   3.104   9.058  0.4965 -0.8627  0.8049
12114SOL     OW40129   5.786   9.517   1.941  0.1370  0.8594 -0.0959
12114SOL    HW140130   5.725   9.445   1.956  0.6171  0.7808  1.7962
12114SOL    HW240131   5.732   9.587   1.904 -0.6788  0.1001 -0.3817
12115SOL     OW40132   7.722   8.208   7.644  0.1444 -0.4406 -0.5495
12115SOL    HW140133   7.738   8.118   7.673  0.7346 -0.9204 -2.2647
12115SOL    HW240134   7.645   8.235   7.693 -0.7086 -2.2707 -0.7939
12116SOL     OW40135  10.322   6.824   7.130 -0.1401  0.1397 -0.0567
12116SOL    HW140136  10.327   6.791   7.041  0.2794  2.6363 -1.0407
12116SOL    HW240137  10.232   6.806   7.157 -0.1511 -1.0337 -0.7832
12117SOL     OW40138   9.494   8.105   3.758  0.4991  1.3646 -0.6194
12117SOL    HW140139   9.434   8.041   3.795  0.5536 -0.0755 -2.8451
12117SOL    HW240140   9.461   8.189   3.790  0.7240  0.2983  2.7981
12118SOL     OW40141   8.254   1.205  10.298 -0.0558 -0.2378 -0.2150
12118SOL    HW140142   8.215   1.262  10.365 -0.7273 -2.0779  1.0577
12118SOL    HW240143   8.292   1.133  10.348  0.8934 -0.8421 -1.7561
12119SOL     OW40144   2.703   5.402   0.230  0.4181 -0.0340 -0.3014
12119SOL    HW140145   2.720   5.333   0.165 -0.5048  0.5618 -1.2019
12119SOL    HW240146   2.655   5.358   0.300 -1.6277 -0.0327 -1.6189
12120SOL     OW40147   3.094   1.066   9.248 -0.7348 -0.2095  0.4097
12120SOL    HW140148   3.164   1.118   9.210 -0.1834  0.0889  1.7648
12120SOL    HW240149   3.031   1.054   9.177 -0.3281  1.3316 -0.2498
12121SOL     OW40150   2.219   9.288  10.114 -0.5142  0.6626 -0.4426
12121SOL    HW140151   2.132   9.313  10.146 -1.1624 -2.7246  0.9153
12121SOL    HW240152   2.280   9.332  10.173 -1.4495  0.6650  0.5565
12122SOL     OW40153   2.976   0.305   7.963  0.6102 -0.1503  0.1000
12122SOL    HW140154   2.947   0.225   7.918  0.3711 -0.3106  0.5313
12122SOL    HW240155   2.912   0.371   7.936 -0.3103 -0.5454  1.1915
12123SOL     OW40156   0.059   8.651   0.066 -0.7939 -0.1616 -0.5249
12123SOL    HW140157   0.136   8.598   0.046 -1.6945 -1.8281  0.2694
12123SOL    HW240158   0.092   8.741   0.066  1.7470 -0.9405  2.3552
12124SOL     OW40159   3.115   2.008   4.793 -0.1238 -0.3170  0.4966
12124SOL    HW140160   3.140   2.026   4.703 -0.7117  2.3452  0.7947
12124SOL    HW240161   3.031   2.051   4.805 -0.4210 -1.2476  2.1180
12125SOL     OW40162   6.060   9.786   9.429 -0.2044  0.1669  0.2540
12125SOL    HW140163   5.976   9.828   9.410  0.2473  0.8320 -0.3185
12125SOL    HW240164   6.121   9.859   9.441 -0.0467 -0.2434  2.4141
12126SOL     OW40165   1.047   1.507   6.786 -0.2611  0.2154 -0.2084
12126SOL    HW140166   1.027   1.419   6.819 -1.3948  0.3031 -0.5868
12126SOL    HW240167   1.106   1.545   6.851 -2.7868  0.5769  2.0647
12127SOL     OW40168  10.032   4.371   0.701 -0.6964 -0.5538  0.4103
12127SOL    HW140169  10.019   4.279   0.721 -0.1926  0.0510  4.1835
12127SOL    HW240170   9.983   4.418   0.769 -0.2938  1.9615 -0.9165
12128SOL     OW40171   2.020   0.330  10.135 -0.1513 -0.4533 -1.3023
12128SOL    HW140172   1.981   0.242  10.134 -0.8288 -0.1968 -3.4919
12128SOL    HW240173   1.946   0.389  10.120  0.5689  0.3338 -1.8613
12129SOL     OW40174   3.626   9.747   1.950 -0.0211  0.5339  0.6480
12129SOL    HW140175   3.583   9.678   1.899  0.1677  1.5287 -0.8838
12129SOL    HW240176   3.556   9.807   1.973  0.1411  0.8744  0.2593
12130SOL     OW40177   5.225   2.470   5.548  0.7800 -0.1642 -0.6691
12130SOL    HW140178   5.153   2.412   5.576  1.1305 -0.8076 -1.0719
12130SOL    HW240179   5.304   2.425   5.576  1.0459  0.4089 -0.4815
12131SOL     OW40180   8.605  10.092   2.980  0.0446 -0.6722 -0.4301
12131SOL    HW140181   8.661  10.111   2.905  0.5631 -2.7709 -0.6486
12131SOL    HW240182   8.588  10.177   3.020  1.2931  0.2873 -1.8352
12132SOL     OW40183   3.613   6.557   7.599 -0.2834 -0.1173 -0.0911
12132SOL    HW140184   3.567   6.480   7.564  1.4773 -0.8851 -0.8121
12132SOL    HW240185   3.589   6.559   7.692  0.0717 -1.8945  0.0742
12133SOL     OW40186   1.526   2.677   7.079 -0.4381  0.6742 -0.2335
12133SOL    HW140187   1.485   2.643   7.158 -0.9906  0.7537 -0.4868
12133SOL    HW240188   1.455   2.689   7.017  0.1574 -0.7395 -1.2500
12134SOL     OW40189   5.496  10.124   2.488 -0.6890  0.3541  0.3511
12134SOL    HW140190   5.562  10.095   2.551 -2.3372 -0.0465  1.9934
12134SOL    HW240191   5.448  10.045   2.465  0.6748  0.2446 -2.5225
12135SOL     OW40192   5.959   0.637   4.109  0.2103  0.0509 -0.3160
12135SOL    HW140193   5.924   0.726   4.109  0.3446  0.1026  0.0826
12135SOL    HW240194   5.941   0.603   4.196 -0.1858 -0.4527 -0.5905
12136SOL     OW40195   4.101   8.214   4.143 -0.1262 -0.8928  0.0149
12136SOL    HW140196   4.175   8.171   4.099 -0.0839 -1.4759  0.6396
12136SOL    HW240197   4.051   8.253   4.072  0.1387 -1.5179 -0.5271
12137SOL     OW40198   8.882   5.440   9.338  0.2863  0.3529  0.2792
12137SOL    HW140199   8.883   5.519   9.391 -1.4481 -0.2599  1.3134
12137SOL    HW240200   8.790   5.417   9.331  0.7700 -2.0389  0.7340
12138SOL     OW40201   6.624   2.635   0.458 -0.2893 -0.3062 -0.2083
12138SOL    HW140202   6.589   2.702   0.517  1.0142 -1.1280  1.5990
12138SOL    HW240203   6.684   2.682   0.401 -1.9491  0.5912 -1.3177
12139SOL     OW40204   2.280  10.289  10.145  0.6453  0.1378 -0.0680
12139SOL    HW140205   2.260  10.316  10.056 -1.8234  0.2810  0.4515
12139SOL    HW240206   2.336  10.359  10.179  0.9809  0.4624 -1.2640
12140SOL     OW40207   4.992   1.822   8.971 -0.2174  0.0138  0.0504
12140SOL    HW140208   4.970   1.734   8.939  1.3897 -0.8321  1.1148
12140SOL    HW240209   4.997   1.812   9.066 -2.2251  1.8255  0.4098
12141SOL     OW40210  10.260   4.247   9.233 -0.0477 -0.2769  0.4076
12141SOL    HW140211  10.223   4.283   9.152 -1.4920 -2.3985  0.0333
12141SOL    HW240212  10.323   4.182   9.202  0.2218 -0.2930  0.9956
12142SOL     OW40213   4.946   2.214   3.592  0.1196  0.0135 -0.2934
12142SOL    HW140214   5.025   2.267   3.588  0.9872 -1.3078 -1.5088
12142SOL    HW240215   4.961   2.155   3.666  0.7624 -0.9524 -1.1771
12143SOL     OW40216   6.176   8.295   1.747  0.1812 -0.5132 -0.7256
12143SOL    HW140217   6.113   8.236   1.787  0.3577 -0.4123 -0.2942
12143SOL    HW240218   6.126   8.342   1.680 -0.6187  0.7570  0.7160
12144SOL     OW40219   6.614   4.102   1.920  0.4122 -0.0273 -0.5552
12144SOL    HW140220   6.579   4.134   2.003 -1.0351  0.6377 -1.3864
12144SOL    HW240221   6.663   4.023   1.944 -0.0473  0.0940  0.9150
12145SOL     OW40222  10.317   9.909   9.516  0.1002  0.0019 -0.0659
12145SOL    HW140223  10.365   9.830   9.494  0.2814 -0.2530  1.1511
12145SOL    HW240224  10.238   9.877   9.560 -1.2558  0.4058 -2.0912
12146SOL     OW40225   2.050   1.271   0.670 -0.4073  0.3673  0.4119
12146SOL    HW140226   2.140   1.255   0.643  0.1504  0.9387  1.8350
12146SOL    HW240227   2.016   1.334   0.606 -0.1626 -0.6536 -0.7522
12147SOL     OW40228   2.768   4.007   3.827 -0.4187 -0.5781 -0.4808
12147SOL    HW140229   2.731   3.957   3.755 -1.5855  0.3415 -0.5585
12147SOL    HW240230   2.779   4.095   3.792  1.5666 -0.7173 -0.3360
12148SOL     OW40231   5.545   1.107   9.479  0.1142 -0.3450 -0.1548
12148SOL    HW140232   5.508   1.100   9.567 -1.3850 -0.8864 -0.7846
12148SOL    HW240233   5.468   1.117   9.422  0.9087 -1.8867 -1.5779
12149SOL     OW40234   1.403   8.319   6.697 -0.3768  0.6472 -0.3672
12149SOL    HW140235   1.318   8.350   6.665 -0.1481  0.7255 -0.8980
12149SOL    HW240236   1.409   8.355   6.786 -0.3389  1.7125 -0.7802
12150SOL     OW40237   8.854   0.857   1.371 -0.0657  0.4784 -0.5417
12150SOL    HW140238   8.822   0.827   1.286 -1.6075  2.2445 -0.6538
12150SOL    HW240239   8.829   0.788   1.433 -0.7081  0.0825 -1.2339
12151SOL     OW40240   9.733   4.702   2.823  0.3224 -0.1445 -0.2749
12151SOL    HW140241   9.821   4.739   2.818  0.0477  0.5301 -0.1966
12151SOL    HW240242   9.704   4.699   2.732 -0.1213  0.9950 -0.1846
12152SOL     OW40243   3.543   5.136   4.472 -0.1756 -0.5564 -0.4326
12152SOL    HW140244   3.581   5.093   4.548 -1.4236 -2.1383 -0.6365
12152SOL    HW240245   3.600   5.111   4.399  0.8961  0.7845 -0.1004
12153SOL     OW40246   9.412  10.253   8.691 -0.2492  0.4470 -0.2562
12153SOL    HW140247   9.359  10.212   8.760  1.0229 -1.5809 -0.3645
12153SOL    HW240248   9.350  10.276   8.622 -1.2085 -0.1112  0.3994
12154SOL     OW40249   5.349   1.843   8.455  0.6527  0.1388  0.0566
12154SOL    HW140250   5.282   1.788   8.496  0.9830 -0.7011 -0.5128
12154SOL    HW240251   5.302   1.921   8.426  0.3802  0.7376  1.9328
12155SOL     OW40252   3.727  10.362   9.491 -0.6682 -0.4069  0.0860
12155SOL    HW140253   3.663  10.333   9.426 -1.2072  1.3732 -0.2153
12155SOL    HW240254   3.674  10.386   9.568 -0.0425 -2.5177  1.2746
12156SOL     OW40255   1.749   8.031   0.211  0.4187 -0.1352 -0.1925
12156SOL    HW140256   1.788   7.996   0.131  0.5286 -2.4998  0.8011
12156SOL    HW240257   1.778   8.122   0.214  2.5971 -0.7010 -1.5144
12157SOL     OW40258   2.742   5.182   0.046 -0.6851 -0.0850  0.0635
12157SOL    HW140259   2.757   5.126   0.122  0.8687  0.6671  0.3456
12157SOL    HW240260   2.830   5.204   0.015 -1.2815 -0.0842 -1.7484
12158SOL     OW40261   3.460   7.195   6.305  0.0377  0.2755 -0.0611
12158SOL    HW140262   3.439   7.289   6.303  0.3520  0.3459 -0.2363
12158SOL    HW240263   3.483   7.178   6.397 -1.8512 -0.0590  0.3785
12159SOL     OW40264   9.715   1.108   0.750  0.0597 -0.3013  0.3018
12159SOL    HW140265   9.622   1.102   0.727  0.6151  1.6317 -3.0958
12159SOL    HW240266   9.745   1.017   0.754 -2.0882 -1.0049  2.4146
12160SOL     OW40267   5.623   3.850   3.732 -0.0762 -0.1575 -0.1586
12160SOL    HW140268   5.676   3.890   3.664 -1.2251 -0.0428 -1.0205
12160SOL    HW240269   5.685   3.827   3.801  1.6006 -2.7496 -2.3170
12161SOL     OW40270   9.249   3.682   3.684  0.1723 -0.1292 -0.6833
12161SOL    HW140271   9.328   3.632   3.703 -0.1428 -0.6303 -0.6783
12161SOL    HW240272   9.184   3.649   3.745 -0.1260  0.0763 -0.8846
12162SOL     OW40273   2.024   4.724   1.740 -0.4943 -0.4349 -0.5335
12162SOL    HW140274   2.037   4.771   1.657 -0.1262  0.0659 -0.1998
12162SOL    HW240275   2.005   4.794   1.803  3.2625 -0.3071  0.6950
12163SOL     OW40276   4.224   1.217   7.814 -0.1103  0.1124 -0.2252
12163SOL    HW140277   4.303   1.203   7.866  0.5452  0.7999 -1.0000
12163SOL    HW240278   4.251   1.276   7.744 -1.4138  0.6865 -0.2858
12164SOL     OW40279   9.722   8.875   9.654 -0.5066 -0.6726 -0.1978
12164SOL    HW140280   9.809   8.915   9.657 -0.5305 -0.6537  0.4405
12164SOL    HW240281   9.733   8.797   9.600 -0.3514 -0.0563 -1.0715
12165SOL     OW40282   4.921   1.626   7.928  0.0071 -0.6264 -0.5372
12165SOL    HW140283   4.936   1.598   7.838 -1.3654  1.4050 -1.4602
12165SOL    HW240284   4.959   1.713   7.933 -0.3142 -0.5383  0.7209
12166SOL     OW40285   5.035   1.520   4.747 -0.0198  0.6323  0.6595
12166SOL    HW140286   5.103   1.490   4.688 -1.0957  1.1201 -0.9135
12166SOL    HW240287   4.995   1.440   4.781 -0.5435  0.2810 -0.7049
12167SOL     OW40288   2.079   7.253   9.244 -0.2464  0.1923  0.4582
12167SOL    HW140289   2.120   7.276   9.327 -0.5378  0.5510  0.5056
12167SOL    HW240290   2.062   7.337   9.201 -1.6583  0.0998  0.7850
12168SOL     OW40291   4.204   3.848  10.263  0.3421 -0.0752 -0.7635
12168SOL    HW140292   4.246   3.762  10.273 -1.0628 -0.7531 -0.4797
12168SOL    HW240293   4.145   3.855  10.337 -1.8293 -0.2341 -2.3778
12169SOL     OW40294   7.490   2.983   2.770  0.3418  0.2224 -0.2693
12169SOL    HW140295   7.463   2.976   2.861 -0.5144 -0.1660 -0.5394
12169SOL    HW240296   7.582   3.007   2.774 -0.0360  1.6201  0.6996
12170SOL     OW40297   4.270   2.052   9.782  0.0037  0.0674  0.6557
12170SOL    HW140298   4.323   2.123   9.816  2.4350 -0.6041 -1.4093
12170SOL    HW240299   4.290   1.977   9.837 -1.2038  0.5011  1.7356
12171SOL     OW40300   0.558   3.045   6.416  0.2392 -0.3797  0.3386
12171SOL    HW140301   0.484   3.016   6.362  1.4279 -1.7621 -0.6066
12171SOL    HW240302   0.611   3.099   6.358  0.2287  0.2291  0.8801
12172SOL     OW40303   3.685   8.663   7.795  0.7324 -0.5597  0.5343
12172SOL    HW140304   3.624   8.590   7.803  1.0714 -0.7378  1.7279
12172SOL    HW240305   3.753   8.644   7.860  0.5762  1.0475  1.2163
12173SOL     OW40306   2.920   3.547   4.803  0.1862 -0.3451 -0.2436
12173SOL    HW140307   2.847   3.491   4.779 -1.6637  1.2445  1.3725
12173SOL    HW240308   2.896   3.583   4.888  2.9506  0.1332  0.4395
12174SOL     OW40309   0.341   4.251   5.973  0.3431 -0.1022  0.2082
12174SOL    HW140310   0.331   4.342   5.947 -2.2082 -0.6469 -1.1196
12174SOL    HW240311   0.346   4.202   5.891 -1.0837 -1.3367  0.7926
12175SOL     OW40312   0.606   2.187   1.940 -0.4751  0.6328 -0.0931
12175SOL    HW140313   0.525   2.206   1.987 -0.0840 -0.6993  1.1937
12175SOL    HW240314   0.670   2.168   2.009  0.6370  0.4931 -1.1218
12176SOL     OW40315   2.867   1.177   5.055  0.0193  0.3109 -0.5374
12176SOL    HW140316   2.800   1.115   5.024 -0.2372  0.6133 -0.5935
12176SOL    HW240317   2.889   1.229   4.977 -0.2320  0.7148 -0.3425
12177SOL     OW40318   6.435   8.282   0.434 -0.0103  0.3182 -0.5486
12177SOL    HW140319   6.519   8.248   0.466 -1.0883 -0.8195  1.2262
12177SOL    HW240320   6.459   8.356   0.379  2.0905  1.3537  1.5681
12178SOL     OW40321   6.863   8.438   2.910 -0.5881  0.0463  0.1818
12178SOL    HW140322   6.810   8.416   2.834 -1.3601  0.6355  0.5347
12178SOL    HW240323   6.951   8.407   2.888 -0.0333  2.8908 -2.2829
12179SOL     OW40324   9.874  10.224   6.700  0.0531 -0.1927  0.2013
12179SOL    HW140325   9.916  10.303   6.667 -0.6118  0.1419  0.1482
12179SOL    HW240326   9.828  10.252   6.780  0.1054 -0.6015  0.3805
12180SOL     OW40327   8.888   7.742   2.706 -0.3969 -0.1215  0.4905
12180SOL    HW140328   8.855   7.762   2.618 -0.7021  2.0049  1.0308
12180SOL    HW240329   8.810   7.748   2.762 -0.0495 -0.5841  1.0259
12181SOL     OW40330   8.734   9.283   2.496 -0.1768 -0.0703  0.6705
12181SOL    HW140331   8.716   9.340   2.570 -0.8713 -0.4791  0.8243
12181SOL    HW240332   8.780   9.208   2.534  1.2961  0.6465  0.3805
12182SOL     OW40333   2.763   5.178   5.678  0.6145 -0.1626  0.7197
12182SOL    HW140334   2.684   5.124   5.683  1.0696 -0.8010  1.1783
12182SOL    HW240335   2.732   5.261   5.641 -0.0223 -0.8724 -0.4183
12183SOL     OW40336   3.416   4.735   4.304 -0.1342  0.4027  0.0497
12183SOL    HW140337   3.456   4.737   4.391  1.4003 -0.5821 -0.5751
12183SOL    HW240338   3.434   4.822   4.267  1.4935 -0.0061 -0.2034
12184SOL     OW40339   2.455   0.558   7.911 -0.1952  0.3877  0.0279
12184SOL    HW140340   2.377   0.510   7.882  0.3646 -1.3880  1.2716
12184SOL    HW240341   2.478   0.612   7.836 -2.9580  1.4794 -0.1529
12185SOL     OW40342   4.825   8.963   5.079 -0.3511 -0.0973  0.0098
12185SOL    HW140343   4.796   9.013   5.002 -3.7039 -1.2070  0.3996
12185SOL    HW240344   4.824   8.872   5.051 -0.7382 -0.4473  1.1017
12186SOL     OW40345   4.561  10.361   7.000  0.4630  0.0688  0.1961
12186SOL    HW140346   4.535  10.393   7.086 -0.1348  0.0923  0.0149
12186SOL    HW240347   4.529  10.428   6.939  0.9548  0.0954 -0.0385
12187SOL     OW40348   9.058   5.693   4.388  0.2073 -0.2264 -0.3700
12187SOL    HW140349   9.145   5.722   4.416  0.1790  1.5317 -1.9317
12187SOL    HW240350   9.002   5.769   4.401 -0.6908 -0.7367 -1.1281
12188SOL     OW40351   0.583   9.489   0.089  0.1211 -0.4459 -0.6110
12188SOL    HW140352   0.619   9.549   0.023  0.2727 -1.0483 -1.0874
12188SOL    HW240353   0.658   9.470   0.146 -0.1920  0.6836  0.2214
12189SOL     OW40354   3.748   0.178   8.131 -0.0636  0.0171 -0.3047
12189SOL    HW140355   3.721   0.207   8.218  0.8201  0.8117 -0.2836
12189SOL    HW240356   3.772   0.259   8.085 -0.9703 -0.3373 -1.4511
12190SOL     OW40357   8.350   7.050   7.616 -0.4228 -0.1775  0.5022
12190SOL    HW140358   8.403   7.069   7.693 -0.5803  0.8471  0.3688
12190SOL    HW240359   8.414   7.032   7.547 -0.2064  1.6032  0.2014
12191SOL     OW40360   3.372  10.290   2.743  0.3857 -0.2039 -0.3016
12191SOL    HW140361   3.375  10.217   2.805 -0.9706  0.1176  0.1672
12191SOL    HW240362   3.293  10.339   2.766  0.3321  0.4400 -1.7178
12192SOL     OW40363   7.242   2.763   2.978 -0.9094 -0.5011 -0.3073
12192SOL    HW140364   7.246   2.678   3.022  0.2183  0.0548  0.7370
12192SOL    HW240365   7.265   2.744   2.887 -0.3180 -1.2822 -0.0087
12193SOL     OW40366  10.083   8.602   2.588  0.0020  0.2955 -0.4674
12193SOL    HW140367  10.003   8.585   2.637  0.3502  1.7424  0.6478
12193SOL    HW240368  10.143   8.533   2.616  0.2921  1.2542  1.4312
12194SOL     OW40369   8.068   5.103   3.013  0.1877  0.1594  0.0510
12194SOL    HW140370   8.070   5.167   3.084  1.6002 -0.9634  1.0655
12194SOL    HW240371   8.117   5.144   2.942  0.2596  0.5764  0.3408
12195SOL     OW40372   7.008   9.472   2.620  0.4653 -0.2433  0.0977
12195SOL    HW140373   6.913   9.462   2.618  0.3533  0.6553 -2.2650
12195SOL    HW240374   7.023   9.554   2.667 -0.0911  0.6297 -1.1878
12196SOL     OW40375   6.172   3.865   6.157 -0.2189  0.2203 -0.0278
12196SOL    HW140376   6.202   3.786   6.201  1.7613  1.1911  0.4460
12196SOL    HW240377   6.229   3.873   6.081 -1.0209  0.7073 -0.5920
12197SOL     OW40378   2.550   6.771   9.499 -0.3741  0.4903  0.1954
12197SOL    HW140379   2.536   6.796   9.408 -0.2702  0.1021  0.0704
12197SOL    HW240380   2.627   6.714   9.496 -0.9919 -0.3682  0.3830
12198SOL     OW40381   9.629   1.554   5.240 -0.6922  0.2785  0.1476
12198SOL    HW140382   9.558   1.490   5.250 -1.2344  0.8830  0.2655
12198SOL    HW240383   9.635   1.597   5.325  0.2470 -0.1836  0.3327
12199SOL     OW40384   6.383   6.243   8.254  0.0255  0.2710 -0.3479
12199SOL    HW140385   6.468   6.288   8.245  0.1232  0.2015  0.1926
12199SOL    HW240386   6.368   6.203   8.168  0.0746  1.0953 -0.7578
12200SOL     OW40387   1.510   4.608   1.168  0.0481 -0.1509  0.2124
12200SOL    HW140388   1.510   4.700   1.144  0.1981 -0.4090 -0.8413
12200SOL    HW240389   1.568   4.566   1.104 -0.0274 -0.9749  0.6655
12201SOL     OW40390   4.892   2.620   6.538  0.5649 -0.6116  0.0355
12201SOL    HW140391   4.868   2.608   6.446  1.0455 -0.0144 -0.1713
12201SOL    HW240392   4.856   2.706   6.561  1.9134  0.0070 -0.0916
12202SOL     OW40393   9.832   2.263   4.214  0.0715 -0.0851 -0.0603
12202SOL    HW140394   9.832   2.355   4.188 -0.1618  0.3964  1.5421
12202SOL    HW240395   9.858   2.216   4.134 -0.8469  1.2589 -1.2102
12203SOL     OW40396   0.373   3.841   9.336 -0.5829 -0.1053  0.2650
12203SOL    HW140397   0.281   3.860   9.353 -0.9945 -1.2861 -0.5300
12203SOL    HW240398   0.394   3.766   9.391 -0.6018 -0.9367 -0.8281
12204SOL     OW40399   6.156   8.176   2.915 -0.0900 -0.7183  0.0057
12204SOL    HW140400   6.072   8.129   2.914 -1.1998  1.1203  0.3622
12204SOL    HW240401   6.183   8.173   3.007 -1.5447  1.5005  0.5932
12205SOL     OW40402   9.732   4.402   6.860  0.4432  0.2889  0.3240
12205SOL    HW140403   9.746   4.497   6.857 -1.8870  0.7077  0.9928
12205SOL    HW240404   9.820   4.365   6.850  1.2535  2.4643 -1.4518
12206SOL     OW40405   4.280   0.906   3.667 -0.0693  0.1767  0.8722
12206SOL    HW140406   4.245   0.817   3.657  0.9473 -0.0432 -1.1048
12206SOL    HW240407   4.233   0.959   3.603  1.3680  0.4038 -0.0402
12207SOL     OW40408   2.889   4.838   3.616  0.9570 -0.4536 -0.0499
12207SOL    HW140409   2.928   4.753   3.598  0.2268 -0.6339 -0.8177
12207SOL    HW240410   2.833   4.855   3.541  1.3098  0.8380 -0.0407
12208SOL     OW40411   5.804   3.172   3.226 -0.3121  0.4376  0.4408
12208SOL    HW140412   5.825   3.085   3.193  0.3943  0.5864  0.4968
12208SOL    HW240413   5.858   3.231   3.174  0.6007  0.6953  1.6444
12209SOL     OW40414   6.961   6.109   3.610  0.1495 -0.3847  0.0370
12209SOL    HW140415   7.020   6.035   3.627 -0.1589 -0.6211  0.0902
12209SOL    HW240416   6.891   6.071   3.558 -0.5682 -0.3600  0.9705
12210SOL     OW40417   6.021   3.135   9.379  0.0100 -0.0005  0.2267
12210SOL    HW140418   5.976   3.081   9.313  1.5393  0.4074 -1.2205
12210SOL    HW240419   6.110   3.099   9.383  0.4507  1.1007  0.7699
12211SOL     OW40420   7.521   6.145   5.177 -0.2405 -0.1973 -0.0420
12211SOL    HW140421   7.465   6.068   5.174 -1.3705  0.6184 -0.6641
12211SOL    HW240422   7.484   6.199   5.247  2.1289 -1.3493  2.2324
12212SOL     OW40423   0.729   5.031   8.297  0.6035 -0.1683 -0.1479
12212SOL    HW140424   0.784   4.971   8.248  0.6165 -0.9203  0.7559
12212SOL    HW240425   0.743   5.008   8.389 -0.6316  0.1139  0.1433
12213SOL     OW40426   6.701   8.506   3.516 -0.2970 -0.0338 -0.0574
12213SOL    HW140427   6.700   8.572   3.446 -0.0866 -0.7456 -0.7363
12213SOL    HW240428   6.683   8.557   3.595 -1.8931  0.5885 -0.7750
12214SOL     OW40429   8.025   5.131   9.989  0.0453  0.0727  0.2255
12214SOL    HW140430   8.034   5.187  10.066  2.8662  0.2584 -0.1295
12214SOL    HW240431   8.091   5.063  10.001 -0.5298 -0.7973 -1.2926
12215SOL     OW40432   7.606   0.066   1.855  0.5317 -0.0321 -0.1780
12215SOL    HW140433   7.526   0.022   1.826 -0.3675  1.0663  0.5718
12215SOL    HW240434   7.588   0.090   1.946  2.0323 -0.4736  0.2614
12216SOL     OW40435   8.685   6.732   6.854  0.2797  0.4226  0.0729
12216SOL    HW140436   8.756   6.702   6.911  0.1021  2.1296  1.2615
12216SOL    HW240437   8.687   6.827   6.861 -1.4743  0.5576 -0.6892
12217SOL     OW40438   9.713   9.433   3.760  0.1587  0.4361 -0.2841
12217SOL    HW140439   9.676   9.522   3.759 -1.4369 -0.1195 -3.2282
12217SOL    HW240440   9.641   9.379   3.794  0.1561 -0.0381 -1.0459
12218SOL     OW40441   4.807   0.335   4.216  0.1813  0.1637  0.3402
12218SOL    HW140442   4.827   0.317   4.308 -0.4321 -0.1832  0.4125
12218SOL    HW240443   4.882   0.384   4.184  2.1426 -2.7517  0.0767
12219SOL     OW40444   3.160   8.371   3.345 -0.5012 -0.5680  0.0837
12219SOL    HW140445   3.166   8.358   3.439  3.7017  0.4509  0.1492
12219SOL    HW240446   3.238   8.423   3.322 -1.0128 -1.2227 -4.0173
12220SOL     OW40447   0.509   8.553   4.005  0.4576 -0.1127  0.1312
12220SOL    HW140448   0.525   8.514   4.091  1.1001  0.7398  0.4129
12220SOL    HW240449   0.418   8.583   4.009  0.3163 -0.5514  0.3110
12221SOL     OW40450   5.910   0.622   3.426 -0.1421 -0.6784 -0.2639
12221SOL    HW140451   5.835   0.563   3.438  0.3429 -1.4695 -1.0111
12221SOL    HW240452   5.920   0.627   3.331 -0.7413  1.3523 -0.2656
12222SOL     OW40453   7.302   5.165   7.194  0.4678 -0.0982 -0.5020
12222SOL    HW140454   7.257   5.141   7.113 -0.0584  0.0022 -0.2448
12222SOL    HW240455   7.234   5.207   7.247  0.1512 -2.3750  1.0240
12223SOL     OW40456   9.501   6.390   4.938  0.0809  0.2435  0.1288
12223SOL    HW140457   9.518   6.298   4.919  1.7755  0.8465 -1.4965
12223SOL    HW240458   9.545   6.406   5.022 -0.0781 -0.3622  0.3357
12224SOL     OW40459   5.975   8.127   0.603  0.3214 -0.8989 -0.1257
12224SOL    HW140460   6.053   8.183   0.592 -2.3383  3.2058 -0.3811
12224SOL    HW240461   5.973   8.109   0.697  1.5533 -1.0644 -0.1117
12225SOL     OW40462   0.711   0.017   1.113  0.4991 -0.0942 -0.1446
12225SOL    HW140463   0.647   0.003   1.183 -0.7344  0.5956 -1.0776
12225SOL    HW240464   0.767  -0.060   1.115 -1.0857 -1.2929 -0.0196
12226SOL     OW40465   5.409   9.883   0.588  0.2370 -0.7014  0.1495
12226SOL    HW140466   5.315   9.866   0.595 -0.2049  0.4276 -2.1584
12226SOL    HW240467   5.415   9.977   0.571  2.0819  0.0678  3.9325
12227SOL     OW40468   6.072   2.277   6.487  0.3698 -0.2947  0.0705
12227SOL    HW140469   6.111   2.362   6.509  0.4639 -0.2664 -0.2052
12227SOL    HW240470   6.021   2.254   6.565  0.9141 -0.3246  0.4179
12228SOL     OW40471   5.632   0.004  10.053 -0.8323 -0.5749 -0.0056
12228SOL    HW140472   5.633   0.057   9.973  0.4167 -0.9345 -0.2437
12228SOL    HW240473   5.629  -0.086  10.022 -0.9688 -0.6959  0.3638
12229SOL     OW40474   5.823   4.158   0.688 -0.0707 -0.0150  0.0366
12229SOL    HW140475   5.765   4.092   0.651  1.4119 -1.8360  0.7853
12229SOL    HW240476   5.852   4.121   0.771  1.2260  1.3609  0.2507
12230SOL     OW40477   0.951   5.632   9.161  0.7077  0.4239 -0.8490
12230SOL    HW140478   1.036   5.647   9.120  0.7001  1.8048 -0.3808
12230SOL    HW240479   0.971   5.620   9.254  0.5318 -0.8507 -0.9522
12231SOL     OW40480   5.604   0.402   2.192 -0.0908  0.6665  0.6875
12231SOL    HW140481   5.515   0.427   2.217  1.1106  3.2822  2.9258
12231SOL    HW240482   5.636   0.475   2.140  0.8884 -0.0600  0.2381
12232SOL     OW40483   6.229   4.563   9.625 -0.4302 -0.3117 -0.0224
12232SOL    HW140484   6.224   4.611   9.708  0.5759  0.8964 -0.6281
12232SOL    HW240485   6.306   4.507   9.634  1.1378  1.6009 -0.9996
12233SOL     OW40486   1.312   5.544   7.001  0.1238  0.4479 -0.6112
12233SOL    HW140487   1.301   5.449   6.988 -0.3027  0.7612 -3.1096
12233SOL    HW240488   1.232   5.572   7.045  0.1102 -0.3028 -0.1442
12234SOL     OW40489   6.708   3.989   5.233  0.1092  0.3061 -0.9369
12234SOL    HW140490   6.721   4.033   5.317 -0.8970  2.4658 -1.8133
12234SOL    HW240491   6.662   3.908   5.255  0.1385  0.6801  0.6173
12235SOL     OW40492   2.272   3.281   5.076 -0.0256 -0.4974  0.1227
12235SOL    HW140493   2.208   3.349   5.097  1.2529  0.7646  0.0817
12235SOL    HW240494   2.238   3.202   5.118 -0.9096  0.4517  1.2610
12236SOL     OW40495   2.207   4.746   4.919 -0.0836  0.1439  0.3010
12236SOL    HW140496   2.244   4.697   4.845 -2.1458 -0.4857 -0.3883
12236SOL    HW240497   2.223   4.838   4.897  0.8138 -0.1007 -0.0923
12237SOL     OW40498   0.846   7.598   1.203 -0.5179 -0.2768  0.1793
12237SOL    HW140499   0.787   7.667   1.234 -0.0758  1.1531 -1.9540
12237SOL    HW240500   0.932   7.624   1.235 -0.4134 -0.0654 -0.2725
12238SOL     OW40501   8.590   7.142   6.012  1.0338 -0.0162 -0.3607
12238SOL    HW140502   8.641   7.061   6.015  0.6717 -0.2273  0.4523
12238SOL    HW240503   8.499   7.112   5.998  0.8129  0.1970  0.5449
12239SOL     OW40504   2.133   2.950   8.832 -0.2248  0.8966  0.3290
12239SOL    HW140505   2.192   2.917   8.765 -0.3788 -0.5333  0.8598
12239SOL    HW240506   2.073   3.007   8.785 -0.1651  0.1437 -0.6987
12240SOL     OW40507   8.902   4.807   5.501 -0.1757  0.4182  0.8540
12240SOL    HW140508   8.973   4.807   5.436 -0.3842 -0.3072  0.6253
12240SOL    HW240509   8.944   4.781   5.582 -0.0891  0.4460  0.8184
12241SOL     OW40510   5.352   2.756   6.533 -0.2078  1.0159  0.3561
12241SOL    HW140511   5.409   2.681   6.553 -1.0786  0.5071  1.0178
12241SOL    HW240512   5.298   2.726   6.460  1.0588  1.8707 -0.9647
12242SOL     OW40513   3.528   8.890   2.020 -0.1708 -0.1579 -0.1376
12242SOL    HW140514   3.488   8.806   2.043  1.4835 -0.8051  0.5503
12242SOL    HW240515   3.615   8.866   1.987 -0.1707  1.2127 -1.2088
12243SOL     OW40516   0.650   3.439   0.451  0.9020  0.5435  0.0632
12243SOL    HW140517   0.740   3.467   0.438  0.9749  0.2809 -0.0076
12243SOL    HW240518   0.599   3.520   0.450  1.3256  0.8643  1.8577
12244SOL     OW40519   5.143  10.234   3.291  0.3680  0.1068 -0.1731
12244SOL    HW140520   5.171  10.292   3.362  2.7223 -0.5825 -0.4609
12244SOL    HW240521   5.048  10.236   3.295  0.4153  1.7639  1.6220
12245SOL     OW40522   9.774   1.363   6.589  0.5419  0.1198  0.6198
12245SOL    HW140523   9.848   1.346   6.648  0.3928  1.1277  1.1337
12245SOL    HW240524   9.697   1.358   6.645  0.1568 -1.3677 -0.0016
12246SOL     OW40525   4.513   9.751   9.891 -0.1392 -0.0194  0.3763
12246SOL    HW140526   4.538   9.839   9.921  1.2251  0.3345 -1.6127
12246SOL    HW240527   4.577   9.693   9.932  0.5170  0.2321 -0.2691
12247SOL     OW40528   2.921   2.357   6.642 -0.6179  0.3113  0.0514
12247SOL    HW140529   2.937   2.271   6.680 -2.4327  0.4847  1.3823
12247SOL    HW240530   2.896   2.339   6.552 -0.5591 -0.5273  0.1914
12248SOL     OW40531   3.578   6.386   4.243  0.2864  0.0943 -0.2256
12248SOL    HW140532   3.497   6.382   4.192  1.0267 -1.5021 -1.3892
12248SOL    HW240533   3.613   6.473   4.227 -1.0928  0.7415  0.1618
12249SOL     OW40534   8.608  10.083   4.664  0.8049  0.7384 -0.1343
12249SOL    HW140535   8.531  10.141   4.660 -0.4663 -0.7786  0.7912
12249SOL    HW240536   8.619  10.065   4.757  1.4129 -0.1848 -0.3711
12250SOL     OW40537   3.547   3.281   2.774  0.2416 -0.0945 -0.1037
12250SOL    HW140538   3.461   3.253   2.742 -0.4336  1.2889  0.3752
12250SOL    HW240539   3.610   3.242   2.714 -0.7266 -1.1611 -0.4416
12251SOL     OW40540   3.023   1.109   8.243 -0.2722 -0.0408 -0.3913
12251SOL    HW140541   2.931   1.093   8.220 -0.3560 -1.1377  0.6104
12251SOL    HW240542   3.055   1.024   8.275  0.8064  0.5798  0.2199
12252SOL     OW40543   5.872  10.207   3.015 -0.5710  0.5419  0.2413
12252SOL    HW140544   5.829  10.125   2.991 -1.4196  0.7735  0.9097
12252SOL    HW240545   5.913  10.238   2.934  1.4027 -1.4655  0.3620
12253SOL     OW40546   2.866   8.358   5.913 -0.1362 -0.1577 -0.1845
12253SOL    HW140547   2.790   8.364   5.971 -0.0689  0.1747 -0.1292
12253SOL    HW240548   2.858   8.272   5.872  1.0908 -1.4637  2.1187
12254SOL     OW40549   9.568   3.870   1.235 -0.0400 -0.0981  0.1481
12254SOL    HW140550   9.653   3.914   1.231 -0.0118 -0.1878 -4.2771
12254SOL    HW240551   9.504   3.942   1.234  0.0378  0.0010 -2.3569
12255SOL     OW40552   8.571   5.887   9.019 -0.0376 -0.3091 -0.6485
12255SOL    HW140553   8.487   5.903   9.061  0.5103  0.6743  0.1138
12255SOL    HW240554   8.597   5.799   9.049 -0.1776 -0.0715  0.1785
12256SOL     OW40555   6.343   2.699   4.699 -0.2275 -0.0983 -0.0006
12256SOL    HW140556   6.262   2.660   4.732  0.3671 -0.5111  1.0223
12256SOL    HW240557   6.412   2.641   4.731  0.4188 -0.4967 -1.9606
12257SOL     OW40558   1.620   8.969   6.925  0.3144 -0.0223 -0.5422
12257SOL    HW140559   1.559   8.957   6.853 -1.8427  0.2813  1.1383
12257SOL    HW240560   1.666   9.051   6.904 -0.6664  0.3494 -1.3027
12258SOL     OW40561   5.964   2.871   9.435 -0.0760  0.1439 -0.6391
12258SOL    HW140562   5.938   2.906   9.349  0.4925 -1.5605 -1.5575
12258SOL    HW240563   6.055   2.897   9.445 -0.5670  1.6679  0.2012
12259SOL     OW40564   4.600   4.398   7.601  0.1669 -0.1363 -0.2174
12259SOL    HW140565   4.642   4.402   7.687  2.1226  1.5158 -1.1653
12259SOL    HW240566   4.512   4.433   7.617  0.0840 -0.9178  1.2861
12260SOL     OW40567   5.743   0.438   2.436 -0.3933  0.1751  0.4176
12260SOL    HW140568   5.831   0.404   2.450  0.3531  1.7073 -0.3755
12260SOL    HW240569   5.720   0.410   2.347 -0.3134  0.6174  0.2585
12261SOL     OW40570   0.226   6.351   7.723 -0.3812 -1.1696  0.0361
12261SOL    HW140571   0.256   6.263   7.698  2.9363  0.4258 -2.3740
12261SOL    HW240572   0.161   6.373   7.656  0.5652 -0.9707 -0.8572
12262SOL     OW40573   4.563   1.485   5.408 -0.1142  0.4842  0.5461
12262SOL    HW140574   4.499   1.424   5.371  0.8928 -0.5445  0.4353
12262SOL    HW240575   4.511   1.560   5.436 -1.4118 -0.4518  0.7553
12263SOL     OW40576   7.338   7.797   7.705  0.2038  0.0532  0.2874
12263SOL    HW140577   7.332   7.870   7.643 -1.1091  0.3562  0.7431
12263SOL    HW240578   7.337   7.719   7.650 -0.3718  0.3350 -0.1086
12264SOL     OW40579   4.890   2.132   5.435 -0.2450  0.3740 -0.4010
12264SOL    HW140580   4.826   2.105   5.502  0.6298 -0.3288  0.1715
12264SOL    HW240581   4.836   2.165   5.363 -1.2000  1.6138  0.8306
12265SOL     OW40582   6.583   5.160   7.150  0.1085 -0.0404  0.7052
12265SOL    HW140583   6.588   5.086   7.210 -0.4698 -0.1265  0.6486
12265SOL    HW240584   6.535   5.127   7.074  1.7687 -0.2635 -0.3052
12266SOL     OW40585   4.941   0.646   6.001 -0.1055 -0.5131 -0.2585
12266SOL    HW140586   4.969   0.580   5.936 -1.6172 -0.9724 -0.4836
12266SOL    HW240587   4.869   0.603   6.048 -0.5155  0.6543  0.1960
12267SOL     OW40588   8.752   1.032   9.179  0.3534  0.4540  0.4828
12267SOL    HW140589   8.723   0.976   9.251  2.2275 -1.7351 -0.3091
12267SOL    HW240590   8.787   1.110   9.221 -1.8566  0.8718  1.6783
12268SOL     OW40591   9.817   6.463   2.301 -0.5364 -0.4092 -0.3328
12268SOL    HW140592   9.853   6.411   2.373 -1.2606 -2.6647 -1.5085
12268SOL    HW240593   9.894   6.495   2.253 -0.0700  0.4517  0.9457
12269SOL     OW40594   8.587   3.100   1.328  0.4429  0.3187  0.7385
12269SOL    HW140595   8.587   3.006   1.313  1.4700 -0.1754  3.2380
12269SOL    HW240596   8.495   3.126   1.320  0.0415 -1.0308  0.7644
12270SOL     OW40597   2.590   8.483   4.920  0.5234  0.8120 -0.1976
12270SOL    HW140598   2.507   8.435   4.924  0.1738  1.4664  0.4431
12270SOL    HW240599   2.654   8.417   4.892  0.5723 -0.7521  3.1285
12271SOL     OW40600   8.188   8.111   7.169  0.3674  0.0053 -0.0374
12271SOL    HW140601   8.128   8.087   7.098 -0.3127  1.4505  0.0060
12271SOL    HW240602   8.139   8.096   7.249  0.8039 -0.7296  0.1045
12272SOL     OW40603   5.312   4.532   7.390 -0.0751  0.0072  0.1325
12272SOL    HW140604   5.217   4.543   7.387  0.1592  2.6462  0.5071
12272SOL    HW240605   5.326   4.465   7.458 -1.6377  0.0781  0.5498
12273SOL     OW40606   7.864   3.471   6.516 -0.2555 -0.0798  0.1892
12273SOL    HW140607   7.782   3.438   6.479 -0.4161 -0.2850  0.7093
12273SOL    HW240608   7.923   3.395   6.515  0.2151  0.2940 -0.9888
12274SOL     OW40609   7.728   4.549   3.188 -0.2761  0.3051 -0.2324
12274SOL    HW140610   7.802   4.495   3.162 -0.1119  0.7336 -0.6891
12274SOL    HW240611   7.657   4.487   3.206  0.1799 -0.1052  0.1718
12275SOL     OW40612   1.969   0.738   3.070 -0.1521 -0.0051 -0.0357
12275SOL    HW140613   1.902   0.746   3.137 -0.0874  1.0160 -0.0812
12275SOL    HW240614   2.051   0.733   3.120 -0.2637 -1.5378  0.0307
12276SOL     OW40615   8.034   6.213   8.102 -0.6577  0.0479  0.1648
12276SOL    HW140616   8.111   6.218   8.045 -1.7198  1.4604 -1.2557
12276SOL    HW240617   8.066   6.173   8.182  1.2503 -0.6394 -0.8732
12277SOL     OW40618   6.469   1.108   4.251 -0.4973 -0.1642 -0.2417
12277SOL    HW140619   6.502   1.131   4.164 -2.0556 -0.6477 -1.0025
12277SOL    HW240620   6.404   1.176   4.271  0.0999  0.1453  0.7194
12278SOL     OW40621   7.464   0.874   6.635  0.6075  0.2862  0.8423
12278SOL    HW140622   7.429   0.889   6.547 -0.5663 -1.3020  0.9852
12278SOL    HW240623   7.528   0.804   6.624  1.0135  0.6025  1.1572
12279SOL     OW40624   8.326   2.180   9.435  0.2159  0.2899 -0.1059
12279SOL    HW140625   8.418   2.200   9.451 -0.1130  1.3157  0.5632
12279SOL    HW240626   8.318   2.086   9.453  1.1310  0.1812 -0.2350
12280SOL     OW40627   6.434   1.482  10.343  0.0650 -0.2870 -0.1603
12280SOL    HW140628   6.493   1.406  10.343  2.1635  1.2651  0.0518
12280SOL    HW240629   6.393   1.481  10.430  0.6351 -0.7540  0.1063
12281SOL     OW40630   0.346   1.484   5.274 -0.1680  0.1456  0.1203
12281SOL    HW140631   0.387   1.397   5.275  0.6399  0.4147  3.4855
12281SOL    HW240632   0.410   1.540   5.230  1.6155 -0.1414  2.1533
12282SOL     OW40633   0.688   9.806   5.333 -0.5572 -0.4291  0.0576
12282SOL    HW140634   0.681   9.883   5.388 -0.7320 -0.6276  0.3127
12282SOL    HW240635   0.642   9.737   5.380 -1.9751 -0.2446 -0.9895
12283SOL     OW40636   4.424   9.111   2.872 -0.3268  0.0988 -0.2047
12283SOL    HW140637   4.448   9.163   2.796 -1.6783  0.2641 -0.5487
12283SOL    HW240638   4.416   9.174   2.944  1.0009 -0.0639  0.1235
12284SOL     OW40639   5.679   1.471   1.072 -0.3238 -0.1463  0.0755
12284SOL    HW140640   5.692   1.552   1.122 -0.6497 -0.2830  0.3808
12284SOL    HW240641   5.701   1.401   1.134  0.3160 -0.2887 -0.2955
12285SOL     OW40642   6.893   3.908   5.513  0.2987 -0.1821 -0.0829
12285SOL    HW140643   6.814   3.961   5.519  1.2938  1.2727  0.6879
12285SOL    HW240644   6.955   3.962   5.465  1.0675 -1.0152 -0.0653
12286SOL     OW40645   7.003   0.099   8.971 -0.4804  0.1833 -0.1361
12286SOL    HW140646   6.976   0.185   8.938  0.9101  0.5838 -0.2824
12286SOL    HW240647   7.031   0.051   8.893 -1.3806 -0.4595 -0.0707
12287SOL     OW40648  10.044   6.822   1.810 -0.4816  0.0123  0.4783
12287SOL    HW140649  10.034   6.906   1.765  0.2927  1.2514  2.4827
12287SOL    HW240650  10.057   6.845   1.902  1.6271 -2.1977  0.8555
12288SOL     OW40651  10.289   5.288   2.137  0.2288 -0.2850  0.0255
12288SOL    HW140652  10.297   5.313   2.229  0.8393  0.2706 -0.1709
12288SOL    HW240653  10.199   5.258   2.128 -0.4387  1.5115  0.3578
12289SOL     OW40654   5.245   0.455  10.210 -0.1262 -0.2600 -0.1081
12289SOL    HW140655   5.222   0.501  10.129  0.4210  0.9061  0.3811
12289SOL    HW240656   5.165   0.459  10.263  0.4097  1.7267  0.6417
12290SOL     OW40657   1.438   4.141   8.037 -0.0390  0.5962 -0.2217
12290SOL    HW140658   1.493   4.188   8.099 -1.7377  2.3009  0.0856
12290SOL    HW240659   1.459   4.180   7.952  1.7213 -1.2030 -0.6798
12291SOL     OW40660   9.791   4.171   6.672 -0.0061  0.1555 -0.2060
12291SOL    HW140661   9.755   4.222   6.744 -1.8254  0.0831 -1.0101
12291SOL    HW240662   9.885   4.168   6.690 -0.4264 -0.1531  2.3201
12292SOL     OW40663   9.944   3.400   8.432 -0.1458 -0.4354 -0.3469
12292SOL    HW140664  10.004   3.457   8.480 -0.5842 -0.1389 -0.1347
12292SOL    HW240665   9.931   3.325   8.490  0.0879 -0.5429 -0.4326
12293SOL     OW40666   6.209   5.034   2.709  0.2204 -0.3982  0.2707
12293SOL    HW140667   6.141   5.070   2.765  0.8995  0.3646  0.6194
12293SOL    HW240668   6.201   5.083   2.627 -0.8065 -1.5481 -0.3455
12294SOL     OW40669   4.274   3.734   6.750 -1.0372  0.0590  0.1610
12294SOL    HW140670   4.180   3.735   6.766 -1.1150  1.1630 -0.2676
12294SOL    HW240671   4.285   3.782   6.668 -0.1267 -0.3667  0.0184
12295SOL     OW40672   0.549   2.932   7.359 -0.3303  0.0951 -0.8687
12295SOL    HW140673   0.520   3.020   7.338  0.9214  0.4506 -1.1832
12295SOL    HW240674   0.562   2.889   7.274  2.2598  0.7120 -0.8808
12296SOL     OW40675   3.652   3.336   8.436  0.2430  0.4727  0.6546
12296SOL    HW140676   3.683   3.270   8.374 -0.8838 -0.1299  0.7103
12296SOL    HW240677   3.673   3.419   8.395  3.7130  0.2117  1.5430
12297SOL     OW40678   0.263   3.791   1.819  0.1723  0.7461 -0.4217
12297SOL    HW140679   0.342   3.742   1.794 -0.8605  0.0487 -2.5982
12297SOL    HW240680   0.206   3.724   1.857  1.0410  1.4867  2.4231
12298SOL     OW40681   6.653   2.741   1.909 -0.1395 -0.4967 -0.3631
12298SOL    HW140682   6.656   2.732   2.004 -2.9828 -1.7860 -0.2928
12298SOL    HW240683   6.725   2.800   1.888 -0.4984  1.2465  2.7615
12299SOL     OW40684   3.143   9.189   8.022  0.5720  0.0656 -0.1349
12299SOL    HW140685   3.097   9.249   8.080 -0.6189  0.5091 -1.4902
12299SOL    HW240686   3.233   9.187   8.056 -0.1029  0.1810  1.7930
12300SOL     OW40687   1.864   9.384   9.305  0.4220  0.0932 -0.5018
12300SOL    HW140688   1.954   9.360   9.281  0.3934  1.3940 -2.0964
12300SOL    HW240689   1.811   9.351   9.233 -0.2129  0.5088 -0.2280
12301SOL     OW40690   8.799   7.574   5.180  0.1006 -0.2252 -1.4824
12301SOL    HW140691   8.757   7.548   5.098  0.4385 -0.1892 -1.6660
12301SOL    HW240692   8.845   7.496   5.209 -2.2553 -1.1233  0.1093
12302SOL     OW40693   0.417   3.623   7.122  0.0972 -0.2348  0.3648
12302SOL    HW140694   0.416   3.530   7.099  0.2366  0.1960 -1.5254
12302SOL    HW240695   0.327   3.641   7.149 -0.1864 -0.6959 -0.2421
12303SOL     OW40696   7.237   5.869   7.635  0.2569  0.3487  0.6371
12303SOL    HW140697   7.310   5.871   7.574 -0.5355 -0.0664 -0.3482
12303SOL    HW240698   7.250   5.946   7.690 -0.3269  2.1654 -1.6318
12304SOL     OW40699   9.363   6.530   1.354 -0.3466  0.3130  0.0309
12304SOL    HW140700   9.372   6.623   1.376 -2.8020 -0.0512  3.3531
12304SOL    HW240701   9.345   6.488   1.437  0.9979 -3.2790 -1.3221
12305SOL     OW40702   9.279   9.228   1.969 -0.0498  0.7147 -0.0164
12305SOL    HW140703   9.215   9.279   2.019 -1.0523 -0.5073  0.0275
12305SOL    HW240704   9.354   9.219   2.027 -0.2427  1.3257  0.3350
12306SOL     OW40705   7.313   6.940   7.744 -0.0303  0.3430 -0.1137
12306SOL    HW140706   7.324   7.031   7.772 -0.1926  0.5956 -0.8476
12306SOL    HW240707   7.394   6.920   7.698 -0.4896  0.5233 -1.0229
12307SOL     OW40708  10.067   8.311   0.572  0.1185 -0.3392 -0.1358
12307SOL    HW140709  10.047   8.345   0.485 -0.0474  0.5297  0.2252
12307SOL    HW240710  10.014   8.365   0.631  0.2752 -0.8765  0.5088
12308SOL     OW40711   0.422   7.074   6.535 -0.3127  0.1547 -0.5570
12308SOL    HW140712   0.347   7.132   6.524  1.1570  2.8920  2.2581
12308SOL    HW240713   0.497   7.133   6.540  1.7439 -2.2850 -0.7918
12309SOL     OW40714   7.052   7.215   1.156  0.6174  0.0679  0.1182
12309SOL    HW140715   7.048   7.276   1.083  0.1105  0.3911  0.4128
12309SOL    HW240716   6.961   7.189   1.172  0.5774  0.8930  1.3687
12310SOL     OW40717   7.165   6.450   9.857 -0.5300  0.2091  0.1588
12310SOL    HW140718   7.172   6.356   9.839 -0.1871  0.4274 -0.9137
12310SOL    HW240719   7.144   6.489   9.772  1.5443  1.3452  0.1156
12311SOL     OW40720   7.377   5.816   2.801 -0.3149 -0.1503 -0.2598
12311SOL    HW140721   7.334   5.745   2.753 -1.6091 -0.2480  0.9870
12311SOL    HW240722   7.454   5.774   2.840 -1.0391 -0.8974  0.4231
12312SOL     OW40723   8.854   6.458   8.212 -0.2081  0.0317 -0.2498
12312SOL    HW140724   8.944   6.442   8.185 -0.3746  0.3277 -1.0343
12312SOL    HW240725   8.826   6.376   8.253  0.0755 -0.4556 -0.9889
12313SOL     OW40726   8.675   7.650   0.946 -0.5290 -0.4661  0.4666
12313SOL    HW140727   8.701   7.637   0.855 -1.5210 -1.3491  0.2935
12313SOL    HW240728   8.589   7.691   0.942 -0.8874 -1.1344  0.9815
12314SOL     OW40729   9.855   5.407   0.153 -0.2349  0.2052  0.3238
12314SOL    HW140730   9.890   5.328   0.113  1.1389  1.1153 -0.3792
12314SOL    HW240731   9.777   5.428   0.102  0.2474  0.1192 -0.4727
12315SOL     OW40732   9.848   9.616   9.860 -0.3837  0.4844 -0.2772
12315SOL    HW140733   9.935   9.650   9.841 -0.5498 -0.1681 -2.4793
12315SOL    HW240734   9.863   9.541   9.918  0.4627  0.8049 -0.0778
12316SOL     OW40735   9.235   0.794   9.774  0.1943  0.3594  0.4258
12316SOL    HW140736   9.259   0.769   9.863 -0.1028  0.4382  0.5284
12316SOL    HW240737   9.314   0.778   9.722  0.8379  1.7256  0.9579
12317SOL     OW40738   3.857  10.134   4.504 -0.0806 -0.0764  0.3479
12317SOL    HW140739   3.815  10.206   4.552 -1.7346 -0.7721 -0.0024
12317SOL    HW240740   3.917  10.178   4.444 -0.0115  0.9397  1.1327
12318SOL     OW40741   8.442   3.261   0.655  0.5629  0.3119  0.0525
12318SOL    HW140742   8.446   3.169   0.680 -0.1255  0.0983 -0.5559
12318SOL    HW240743   8.428   3.308   0.737  1.5509 -0.0650  0.4424
12319SOL     OW40744   8.284   1.441   7.294  0.5362 -0.2694  0.9930
12319SOL    HW140745   8.218   1.448   7.225 -1.4881  0.6111  2.8604
12319SOL    HW240746   8.366   1.426   7.248 -0.5625  1.0612 -1.6295
12320SOL     OW40747  10.016   1.723   1.999  0.0690  0.7327 -0.4216
12320SOL    HW140748   9.965   1.644   1.984 -0.6674  1.2715 -0.8581
12320SOL    HW240749   9.992   1.781   1.926  1.2103  1.0530 -0.5655
12321SOL     OW40750   3.881   6.328   9.433  0.2619  0.2447 -0.2447
12321SOL    HW140751   3.863   6.297   9.344 -0.2265 -0.6069  0.1388
12321SOL    HW240752   3.945   6.266   9.468 -0.0634  0.1633  0.2244
12322SOL     OW40753   4.564   0.415   7.558  0.5116 -0.3141 -0.3299
12322SOL    HW140754   4.627   0.429   7.488  0.6441 -0.7096 -0.2944
12322SOL    HW240755   4.485   0.384   7.513  0.6935 -0.8575 -0.2818
12323SOL     OW40756   6.898   0.895   7.533 -0.0162  0.4399  0.5885
12323SOL    HW140757   6.985   0.869   7.500 -0.2881  1.2508 -0.8351
12323SOL    HW240758   6.837   0.837   7.488 -0.3812  1.4189 -0.2069
12324SOL     OW40759   9.349   5.846   7.899  0.3378  0.2156  0.1320
12324SOL    HW140760   9.387   5.759   7.906  0.6113  0.3605  0.4787
12324SOL    HW240761   9.271   5.834   7.845  0.9090 -0.0730 -0.6376
12325SOL     OW40762   4.257  10.181   4.534 -0.3855 -0.0875  0.1193
12325SOL    HW140763   4.201  10.177   4.456 -0.3556 -1.4782  0.1517
12325SOL    HW240764   4.214  10.125   4.598  0.2833 -0.0131  0.6493
12326SOL     OW40765   0.776   9.874   6.300 -0.2038  0.0502  0.0495
12326SOL    HW140766   0.827   9.797   6.275  0.5472  0.7719 -0.7209
12326SOL    HW240767   0.717   9.843   6.368  0.6316 -1.0251  0.3112
12327SOL     OW40768   4.966   6.102   9.931 -0.6732 -0.2722  0.0148
12327SOL    HW140769   4.875   6.077   9.916 -0.8307 -0.6275  1.4183
12327SOL    HW240770   4.985   6.166   9.862 -2.0725  0.0239 -0.1352
12328SOL     OW40771   8.372   4.380   1.646 -0.0755 -0.4122  0.1420
12328SOL    HW140772   8.422   4.439   1.702 -1.0701  0.4871  0.1048
12328SOL    HW240773   8.437   4.316   1.615  1.1733  1.0321 -0.3600
12329SOL     OW40774   0.349   5.155   3.755 -0.6941 -0.4129  0.2250
12329SOL    HW140775   0.346   5.133   3.662  1.9078 -0.7951  0.1644
12329SOL    HW240776   0.324   5.247   3.759  1.1105  0.1781 -1.1376
12330SOL     OW40777   0.921   8.058   4.073  0.2930 -0.1204 -0.0289
12330SOL    HW140778   1.014   8.037   4.059  0.1191 -0.8663 -0.0958
12330SOL    HW240779   0.906   8.136   4.019  1.6881  2.0624  2.4722
12331SOL     OW40780   2.828   6.543   6.992 -0.2602  0.3529 -0.7484
12331SOL    HW140781   2.866   6.512   7.074 -1.8177 -0.0597 -0.1501
12331SOL    HW240782   2.864   6.484   6.925 -0.1119 -0.2413 -0.1560
12332SOL     OW40783   6.930   3.090  10.325  0.4820 -0.5814 -0.3363
12332SOL    HW140784   6.921   3.180  10.355  1.0171  1.2730 -4.8367
12332SOL    HW240785   7.017   3.062  10.355  1.1919  1.2383 -0.5767
12333SOL     OW40786   8.539   6.520   6.881  0.5115  0.5667  0.4491
12333SOL    HW140787   8.582   6.603   6.863 -0.0316  0.7629  0.0443
12333SOL    HW240788   8.521   6.522   6.975 -0.1000  1.1974  0.3201
12334SOL     OW40789   6.684   7.798   2.093  0.5297 -0.5950 -0.0078
12334SOL    HW140790   6.756   7.744   2.126 -0.2419 -1.1808  0.7804
12334SOL    HW240791   6.635   7.822   2.172  2.2787  3.5240  0.0561
12335SOL     OW40792   4.406   6.494   4.434 -0.0563 -0.5172  0.3032
12335SOL    HW140793   4.367   6.495   4.347  0.7330  1.3625 -0.0699
12335SOL    HW240794   4.335   6.518   4.493  0.2125  1.9417 -0.2688
12336SOL     OW40795   5.169   3.899   8.829 -0.4410 -0.5164  0.5846
12336SOL    HW140796   5.240   3.926   8.771 -1.7825  1.5822 -0.2345
12336SOL    HW240797   5.187   3.943   8.912 -0.5694 -0.2737  0.4865
12337SOL     OW40798   8.878   3.304   2.071  0.6603 -0.3727  0.7855
12337SOL    HW140799   8.967   3.289   2.039  0.0834  0.9269 -1.6783
12337SOL    HW240800   8.883   3.385   2.120  0.8091 -0.1727  0.4458
12338SOL     OW40801   4.476   0.416   2.075 -0.4612 -0.2264 -0.1075
12338SOL    HW140802   4.517   0.380   2.153 -1.2842 -0.0710  0.4129
12338SOL    HW240803   4.549   0.443   2.020  0.1345 -0.3734  0.5897
12339SOL     OW40804   5.714   9.731   0.255 -0.1514  0.2484 -0.1083
12339SOL    HW140805   5.690   9.688   0.336 -1.4874 -0.6624 -0.9431
12339SOL    HW240806   5.633   9.771   0.223 -0.1043 -0.9304 -1.8616
12340SOL     OW40807   0.385   8.869   1.904  0.0261  0.8955 -0.2260
12340SOL    HW140808   0.313   8.876   1.841 -0.5928  0.0157  0.3433
12340SOL    HW240809   0.353   8.914   1.982  1.1047  2.6812 -0.7607
12341SOL     OW40810   4.698   9.840   8.525  0.4578  0.1602 -0.1701
12341SOL    HW140811   4.674   9.931   8.508 -0.1249  0.1614  0.6449
12341SOL    HW240812   4.632   9.807   8.585  1.5516 -0.3320  0.8077
12342SOL     OW40813   7.643   4.088  10.338 -0.2599 -0.6354  0.5057
12342SOL    HW140814   7.734   4.103  10.363  0.2403 -0.1319 -1.4801
12342SOL    HW240815   7.643   4.000  10.300 -0.7011 -0.8032  0.8825
12343SOL     OW40816   6.343   7.935   2.591 -0.6690 -0.4252  0.0450
12343SOL    HW140817   6.258   7.944   2.635 -0.4593  1.1244  0.1971
12343SOL    HW240818   6.329   7.971   2.504 -0.1968 -0.3090  0.0171
12344SOL     OW40819   0.808   3.155   4.514 -0.1120  0.4662  0.1842
12344SOL    HW140820   0.832   3.101   4.439 -0.4754 -0.4044  0.6773
12344SOL    HW240821   0.735   3.208   4.483  0.5604  1.0391 -0.4540
12345SOL     OW40822   9.234   8.963   2.650 -0.3168 -0.1343 -0.5762
12345SOL    HW140823   9.257   8.888   2.596 -0.6253 -0.0681 -0.8089
12345SOL    HW240824   9.212   9.032   2.587 -0.6836 -0.0579 -0.3701
12346SOL     OW40825   1.152   0.964   5.165  0.2163  0.0559 -0.1825
12346SOL    HW140826   1.174   0.924   5.249 -1.4889 -0.4913  0.0472
12346SOL    HW240827   1.185   0.903   5.099 -0.3315 -0.6000  0.1355
12347SOL     OW40828   1.993   3.241   6.616  0.1117  0.3391 -0.0324
12347SOL    HW140829   1.935   3.230   6.691  0.1518 -0.3712 -0.1028
12347SOL    HW240830   2.069   3.186   6.635  0.4425  0.7038 -0.2735
12348SOL     OW40831   0.942   9.349  10.102 -0.3118  0.6007 -0.3949
12348SOL    HW140832   0.905   9.261  10.113  0.6124 -0.1160 -2.3373
12348SOL    HW240833   0.895   9.385  10.027 -0.6308  1.7530  0.3470
12349SOL     OW40834   3.950   7.491   8.964  0.1463  0.7940  0.1007
12349SOL    HW140835   3.901   7.507   8.883  1.4880 -2.2452 -1.4993
12349SOL    HW240836   3.890   7.439   9.018  1.1055 -2.4091 -1.6119
12350SOL     OW40837   3.334   3.155   0.890 -0.9458  0.3099 -0.2999
12350SOL    HW140838   3.333   3.251   0.884  0.8088  0.3776 -0.2269
12350SOL    HW240839   3.355   3.127   0.801  0.0086  0.0870 -0.0192
12351SOL     OW40840   9.356   3.316   5.790 -0.3096  0.6111  0.2459
12351SOL    HW140841   9.309   3.393   5.823 -2.0826  0.2984 -1.3428
12351SOL    HW240842   9.349   3.252   5.861  0.3707  1.5698  1.2138
12352SOL     OW40843   6.987   6.389   9.317  0.0518  0.1955  0.0468
12352SOL    HW140844   6.962   6.318   9.258  1.1789  0.4661 -0.7921
12352SOL    HW240845   6.943   6.369   9.400 -0.4031 -0.9619 -0.4640
12353SOL     OW40846   3.280   7.890   7.954  0.5691 -0.1517  0.2405
12353SOL    HW140847   3.280   7.969   8.007 -0.7715  0.7669 -1.0685
12353SOL    HW240848   3.355   7.899   7.896  0.8624 -0.2015  0.6140
12354SOL     OW40849   7.801   8.758   3.755  0.0372  0.2565  0.1343
12354SOL    HW140850   7.717   8.711   3.751  0.2415 -0.1744  0.7517
12354SOL    HW240851   7.776   8.851   3.759 -0.4330  0.1148  0.7512
12355SOL     OW40852   3.647   0.778   9.011 -0.0122  0.0046  0.2698
12355SOL    HW140853   3.590   0.854   9.008  0.1354  0.3291  2.9202
12355SOL    HW240854   3.590   0.707   9.043  0.2716 -0.5455 -0.4207
12356SOL     OW40855   1.400   5.924   1.728 -0.0389 -0.1360  0.1116
12356SOL    HW140856   1.480   5.956   1.769 -0.1501  1.1270 -0.6175
12356SOL    HW240857   1.399   5.830   1.748  1.9978 -0.3286 -0.4843
12357SOL     OW40858   8.023   1.795   8.392  0.1210  0.1210 -0.3627
12357SOL    HW140859   8.086   1.816   8.461 -1.2838  1.6455  0.5389
12357SOL    HW240860   7.996   1.880   8.357  0.1511 -0.5892 -2.2216
12358SOL     OW40861   9.480   0.666   2.019 -0.1884 -0.0918 -0.2662
12358SOL    HW140862   9.562   0.635   1.980  0.2234 -0.7959  1.1175
12358SOL    HW240863   9.440   0.587   2.057 -1.6188  0.2027 -1.0802
12359SOL     OW40864   2.082   7.381   8.688 -0.4343 -0.0542 -0.2450
12359SOL    HW140865   2.096   7.320   8.760 -1.9835  0.1382  0.2400
12359SOL    HW240866   2.138   7.456   8.710  1.1834 -1.0957 -0.6542
12360SOL     OW40867   8.424   5.003   9.049 -0.2316  0.1317  0.2713
12360SOL    HW140868   8.447   5.013   8.957 -2.4778  2.1043 -0.1577
12360SOL    HW240869   8.400   4.911   9.058 -0.0553 -0.0649 -1.1030
12361SOL     OW40870  10.298   9.360   9.121  0.4747 -0.5628  0.1877
12361SOL    HW140871  10.303   9.265   9.108 -0.8659 -0.9118  1.7445
12361SOL    HW240872  10.217   9.386   9.077  0.2915 -0.3415  0.6460
12362SOL     OW40873   9.985   0.378   7.179  0.5075  0.4071  0.4962
12362SOL    HW140874   9.964   0.323   7.104  0.6512 -0.4342  1.0690
12362SOL    HW240875   9.900   0.399   7.218  0.5512 -1.5108  1.7536
12363SOL     OW40876   5.769   8.971   9.306  0.4107 -0.5566 -0.1312
12363SOL    HW140877   5.754   8.883   9.272 -1.3982  0.0201 -0.9613
12363SOL    HW240878   5.704   8.981   9.377  1.3001 -0.2485  0.6636
12364SOL     OW40879   5.638   1.733   7.281 -0.2499  0.2853 -0.1990
12364SOL    HW140880   5.652   1.665   7.215  3.1837  1.5125 -0.9308
12364SOL    HW240881   5.677   1.698   7.361  0.8075  1.0503 -0.3672
12365SOL     OW40882   6.913   4.280   9.352  0.3263 -0.5898  0.0487
12365SOL    HW140883   6.877   4.300   9.266 -0.1971 -1.1131  0.1401
12365SOL    HW240884   6.945   4.190   9.344  0.5747 -0.5286  0.3122
12366SOL     OW40885   0.093   3.186   4.810  0.4668 -0.4916  0.4719
12366SOL    HW140886   0.123   3.233   4.888  1.7496  0.1466 -0.3757
12366SOL    HW240887   0.002   3.162   4.830  0.9645 -0.9228  2.4168
12367SOL     OW40888   7.732   0.421   7.195 -0.4422 -0.0450 -0.0187
12367SOL    HW140889   7.670   0.476   7.243 -0.4370 -1.1897  1.3743
12367SOL    HW240890   7.799   0.398   7.260  0.5097 -0.2626 -1.0317
12368SOL     OW40891   0.523   5.836   4.155  0.0454 -0.4490 -0.4855
12368SOL    HW140892   0.568   5.832   4.239  0.6640  1.9526 -0.6451
12368SOL    HW240893   0.593   5.834   4.090 -0.2102  0.6800 -0.8235
12369SOL     OW40894   8.191   6.581   9.605  0.3231  0.3099 -0.4983
12369SOL    HW140895   8.258   6.550   9.543 -0.8243  0.3712 -1.8046
12369SOL    HW240896   8.171   6.669   9.576  0.2425  0.5949  0.3951
12370SOL     OW40897   8.449   7.293   2.666  0.2474 -0.0967 -0.0181
12370SOL    HW140898   8.395   7.307   2.588 -1.1354 -0.4109  0.8528
12370SOL    HW240899   8.432   7.202   2.691  1.0120 -0.1254  0.4114
12371SOL     OW40900   5.201   6.224   0.164 -0.6391  0.1765  0.3128
12371SOL    HW140901   5.183   6.140   0.121 -0.3583  0.5548 -0.5689
12371SOL    HW240902   5.263   6.268   0.106 -0.2447  0.7152  1.1146
12372SOL     OW40903   5.467   3.671   8.834 -0.1246  0.1597 -0.2130
12372SOL    HW140904   5.504   3.655   8.747 -1.8154  0.4915 -1.0357
12372SOL    HW240905   5.444   3.584   8.867  0.5838  0.0275 -0.0525
12373SOL     OW40906   5.555   6.081  10.298  0.7556 -0.6680 -0.0762
12373SOL    HW140907   5.608   6.080  10.218  1.6632 -0.3714  0.5110
12373SOL    HW240908   5.597   6.146  10.354 -1.3052  0.9620 -0.2915
12374SOL     OW40909   3.491   7.892  10.181  0.1969 -0.0927 -0.1308
12374SOL    HW140910   3.499   7.959  10.249 -0.2071  0.3913 -0.5564
12374SOL    HW240911   3.578   7.852  10.177  0.6764  0.9559 -0.4358
12375SOL     OW40912   4.369   0.376   3.452  0.2123 -0.4363  0.4799
12375SOL    HW140913   4.299   0.343   3.507  0.5622 -0.5820  0.8405
12375SOL    HW240914   4.346   0.349   3.363 -0.2974 -0.2904  0.5673
12376SOL     OW40915   5.595   9.140   2.151  0.2009  0.4778 -0.1263
12376SOL    HW140916   5.558   9.209   2.096  2.0168  0.8760 -0.9247
12376SOL    HW240917   5.656   9.185   2.209 -0.0148 -0.2204  0.6519
12377SOL     OW40918   4.383   6.439   8.209  0.1742 -0.1517  0.6530
12377SOL    HW140919   4.325   6.497   8.159  0.6257  0.9347  1.3379
12377SOL    HW240920   4.372   6.353   8.169 -0.9203  0.2975 -0.0611
12378SOL     OW40921   4.240   3.112   7.777  0.5602 -0.3860  0.3197
12378SOL    HW140922   4.241   3.095   7.871  1.0174 -0.8568  0.2360
12378SOL    HW240923   4.267   3.203   7.769  1.4243 -0.6002  0.6091
12379SOL     OW40924   9.898   2.281   6.321 -0.5006  0.2055  0.1674
12379SOL    HW140925   9.928   2.206   6.270  0.4021  1.6780 -1.5644
12379SOL    HW240926   9.806   2.263   6.338 -0.0534 -1.7854  0.7684
12380SOL     OW40927   8.038   1.618   8.189 -0.0469  0.2365 -1.1059
12380SOL    HW140928   8.057   1.698   8.237  0.7719 -0.3274 -0.4701
12380SOL    HW240929   8.118   1.566   8.195  0.1859  0.2289 -3.2739
12381SOL     OW40930   7.426   7.605   6.690 -0.1001 -0.0768 -0.4498
12381SOL    HW140931   7.340   7.646   6.677 -0.5142 -1.2391 -1.4996
12381SOL    HW240932   7.408   7.530   6.747  0.6507  1.0874  1.4355
12382SOL     OW40933   0.539   3.455   7.845 -0.3384  0.1244 -0.0370
12382SOL    HW140934   0.500   3.410   7.920 -1.6311  1.9725  0.4688
12382SOL    HW240935   0.482   3.433   7.772  0.5951 -1.2114 -0.3991
12383SOL     OW40936   4.279   3.648   7.464 -0.5217 -0.4940 -0.1234
12383SOL    HW140937   4.246   3.622   7.379  1.3438  0.8393 -1.3453
12383SOL    HW240938   4.353   3.589   7.480 -0.5344 -0.3935  0.3218
12384SOL     OW40939   1.563   1.764   8.372  0.4237 -0.0072  0.1977
12384SOL    HW140940   1.572   1.855   8.402  0.1602 -0.0694  0.4592
12384SOL    HW240941   1.642   1.749   8.319  1.5435 -0.3080  1.8605
12385SOL     OW40942   1.819   6.002   6.208  0.0433 -0.0343  0.1096
12385SOL    HW140943   1.733   5.982   6.173  0.3982  1.3656 -1.7216
12385SOL    HW240944   1.880   5.963   6.145  0.7460 -0.1841  0.8688
12386SOL     OW40945   0.080   3.881   1.165  0.5349  0.0798  0.1489
12386SOL    HW140946  -0.006   3.854   1.133  1.6312 -0.0490 -3.0255
12386SOL    HW240947   0.097   3.822   1.239 -1.2130 -1.3356 -0.4869
12387SOL     OW40948   7.171   1.784   8.322  0.1115 -0.1451 -0.5349
12387SOL    HW140949   7.260   1.781   8.288  0.0116  1.8590 -1.1065
12387SOL    HW240950   7.120   1.823   8.252 -1.3526 -1.7378 -0.4169
12388SOL     OW40951   3.600   4.970   3.054  0.0773  0.1507  0.2975
12388SOL    HW140952   3.559   4.973   3.140  0.5252 -0.8018  0.5622
12388SOL    HW240953   3.667   5.039   3.056  1.5842 -1.2606  1.5311
12389SOL     OW40954   3.145   4.694   4.472  0.2803  0.3019  0.0699
12389SOL    HW140955   3.235   4.714   4.443  1.1519 -2.6524  0.3360
12389SOL    HW240956   3.156   4.620   4.532 -2.3795 -0.3975 -0.1996
12390SOL     OW40957   9.851   9.298   0.257  0.3904 -0.1094  0.2889
12390SOL    HW140958   9.918   9.231   0.243  1.2952  0.5284  1.3648
12390SOL    HW240959   9.802   9.300   0.175  0.6415 -1.7291  0.0527
12391SOL     OW40960   9.379   3.958   6.187 -0.4321 -0.3684 -0.1752
12391SOL    HW140961   9.379   4.032   6.127 -1.9153  0.5308  0.8558
12391SOL    HW240962   9.290   3.922   6.180  0.1917 -1.9146 -0.4824
12392SOL     OW40963   7.960   2.184   1.428 -0.4289 -0.0281  0.5879
12392SOL    HW140964   7.986   2.092   1.434 -0.1624  0.1501  2.6467
12392SOL    HW240965   7.864   2.181   1.429 -0.4483 -0.3259 -0.6016
12393SOL     OW40966   7.046   8.806   7.879 -0.1331 -0.5110 -0.0239
12393SOL    HW140967   6.969   8.851   7.916  0.8467 -0.8812  2.6902
12393SOL    HW240968   7.113   8.815   7.947  1.8183 -1.3448 -1.7629
12394SOL     OW40969   9.434   0.494   8.985 -0.2418 -0.3702  0.0592
12394SOL    HW140970   9.463   0.442   9.060 -2.2259 -2.5539 -0.5685
12394SOL    HW240971   9.498   0.474   8.916  1.8827  2.0323  1.1583
12395SOL     OW40972   7.728   2.954   3.185  0.2322  0.0442 -0.1388
12395SOL    HW140973   7.758   3.020   3.123 -2.2083  3.7361  2.1760
12395SOL    HW240974   7.642   2.928   3.153  0.3976 -0.6441 -0.0419
12396SOL     OW40975   8.176   0.282   2.717  0.2520 -0.0313  0.2334
12396SOL    HW140976   8.101   0.280   2.659  1.5198 -1.6127 -1.4792
12396SOL    HW240977   8.151   0.225   2.790  0.0217 -1.1282 -0.6740
12397SOL     OW40978   2.397   6.771   8.023  0.3030 -0.3046  0.3292
12397SOL    HW140979   2.310   6.733   8.035  1.3800 -2.5727  1.6400
12397SOL    HW240980   2.430   6.732   7.942  0.8570 -1.0657  0.9093
12398SOL     OW40981   1.847   1.082   1.080 -0.2887  0.0198  0.0821
12398SOL    HW140982   1.937   1.113   1.074 -0.0187 -0.4923  1.2129
12398SOL    HW240983   1.806   1.110   0.998  0.9971 -0.0696 -0.6178
12399SOL     OW40984   6.016   1.424   4.164  0.5220 -0.2137  0.2380
12399SOL    HW140985   5.948   1.462   4.109 -1.2671  0.9390  3.0453
12399SOL    HW240986   6.021   1.481   4.240  0.5683 -3.3466  2.8119
12400SOL     OW40987   0.434   6.929   7.970  0.5855  0.1106 -0.3480
12400SOL    HW140988   0.500   6.970   8.026 -0.4658  1.3486  0.0244
12400SOL    HW240989   0.361   6.990   7.971  0.1638 -0.3052 -2.3013
12401SOL     OW40990   1.613   1.688   7.341  0.5262  0.3326  0.1088
12401SOL    HW140991   1.574   1.769   7.373 -2.6363 -0.5029 -1.2722
12401SOL    HW240992   1.689   1.717   7.290 -0.1461  2.3536  0.1537
12402SOL     OW40993   3.781   3.696   4.407 -0.5149 -0.7768  0.2936
12402SOL    HW140994   3.695   3.713   4.446 -0.2691 -0.0568  0.5325
12402SOL    HW240995   3.836   3.667   4.480 -0.4033 -0.7020  0.2393
12403SOL     OW40996   2.227   0.250   2.811 -0.0915 -0.1540 -0.6406
12403SOL    HW140997   2.309   0.249   2.761 -1.2337 -0.1680 -2.6204
12403SOL    HW240998   2.234   0.174   2.869  0.9040 -0.7255 -1.4656
12404SOL     OW40999   4.493   5.168   5.523  0.3007  0.2719 -0.4433
12404SOL    HW141000   4.521   5.252   5.487  2.0333 -0.0406  0.0779
12404SOL    HW241001   4.476   5.187   5.616  0.1510  0.1694 -0.4506
12405SOL     OW41002   9.914   3.377  10.276 -0.0601  0.2587 -0.0952
12405SOL    HW141003   9.853   3.439  10.235 -0.2538  0.2575  0.1883
12405SOL    HW241004   9.859   3.321  10.330  0.1072 -0.2058 -0.3965
12406SOL     OW41005  10.095   6.350   4.106  0.2450  0.3319 -0.5180
12406SOL    HW141006  10.113   6.434   4.062 -0.1154  0.1570 -1.0039
12406SOL    HW241007  10.123   6.284   4.043 -1.7754  0.0518 -1.1752
12407SOL     OW41008   5.613   2.914   9.408  0.1457  0.4407 -0.4757
12407SOL    HW141009   5.591   2.838   9.355 -1.3369 -0.6659  1.5957
12407SOL    HW241010   5.578   2.894   9.495  1.4454  2.6572  0.6450
12408SOL     OW41011   1.145   1.771   4.843  0.2054 -0.9053 -0.2603
12408SOL    HW141012   1.134   1.786   4.937 -0.2807 -0.7406 -0.3402
12408SOL    HW241013   1.217   1.829   4.818  0.4682 -1.0924  0.0454
12409SOL     OW41014   1.119   9.211   8.469 -0.0696 -0.2755  0.1464
12409SOL    HW141015   1.077   9.288   8.508 -0.7440  0.2148 -1.4752
12409SOL    HW241016   1.109   9.142   8.534 -0.4287  0.7204  1.1722
12410SOL     OW41017   3.814   7.139   5.665  0.1227 -0.5530  0.0621
12410SOL    HW141018   3.870   7.188   5.726 -0.1559  3.0922 -2.3218
12410SOL    HW241019   3.875   7.084   5.616  1.6268  2.1783 -1.4158
12411SOL     OW41020   7.136   0.856   7.425 -0.2914  0.4073 -0.0116
12411SOL    HW141021   7.109   0.854   7.333  0.1504 -1.0464 -0.1299
12411SOL    HW241022   7.189   0.777   7.436 -2.5275 -0.9337  2.1320
12412SOL     OW41023   5.112   8.056   2.684 -0.1567  0.4693  0.2519
12412SOL    HW141024   5.025   8.082   2.655  0.4266  1.6042 -0.5950
12412SOL    HW241025   5.157   8.139   2.700  0.8770 -0.0942  0.3423
12413SOL     OW41026   9.530   5.321   7.030 -0.7693 -0.0502 -0.8667
12413SOL    HW141027   9.589   5.346   7.101 -2.0462 -0.5869  0.4403
12413SOL    HW241028   9.567   5.239   6.996 -0.9841 -0.6351  0.2510
12414SOL     OW41029   2.065   0.257   3.937 -0.1249  0.1225  0.2599
12414SOL    HW141030   2.156   0.226   3.935 -0.4239 -0.7847  0.3139
12414SOL    HW241031   2.068   0.344   3.897  0.5822 -0.3769 -0.8020
12415SOL     OW41032   3.830   6.289   5.730 -0.3458 -0.3330  0.0198
12415SOL    HW141033   3.776   6.319   5.803  1.2803 -0.2431  1.2639
12415SOL    HW241034   3.826   6.361   5.667 -0.4119  0.3716  0.7981
12416SOL     OW41035   7.362   2.473   3.303 -0.5362  0.1911 -0.1488
12416SOL    HW141036   7.269   2.449   3.295 -0.2555 -1.8662  1.7257
12416SOL    HW241037   7.368   2.519   3.387  0.2081 -0.1816  0.0133
12417SOL     OW41038   1.218   1.967   6.197  0.1876 -0.2404 -0.0544
12417SOL    HW141039   1.170   1.997   6.120  0.1650  1.9558  0.7490
12417SOL    HW241040   1.310   1.981   6.174  0.2356 -0.5696 -0.0653
12418SOL     OW41041   0.368   6.448   5.150  0.3010 -0.1184 -0.0844
12418SOL    HW141042   0.285   6.428   5.193  0.6016 -0.0924  0.5227
12418SOL    HW241043   0.429   6.466   5.222  1.2186 -1.5940 -0.4401
12419SOL     OW41044   9.613   0.660   3.057 -0.6180 -0.3726 -0.4907
12419SOL    HW141045   9.656   0.584   3.097 -0.9604  0.1670  0.9559
12419SOL    HW241046   9.527   0.628   3.031 -0.3156 -0.7836 -1.0186
12420SOL     OW41047   5.813   1.351   4.664  0.3100 -0.3365 -0.2615
12420SOL    HW141048   5.775   1.360   4.576 -0.1629  0.1685 -0.0108
12420SOL    HW241049   5.773   1.422   4.715  0.3768 -0.7913  0.4367
12421SOL     OW41050   7.553   1.535   2.704 -0.1913  0.3231 -0.1988
12421SOL    HW141051   7.603   1.568   2.630  1.0109 -0.1254  0.3836
12421SOL    HW241052   7.563   1.602   2.772  1.7727 -0.8993  0.7873
12422SOL     OW41053   8.214   7.393   4.140 -0.2377  0.3828 -0.2873
12422SOL    HW141054   8.252   7.403   4.052 -0.1851  1.0981 -0.1897
12422SOL    HW241055   8.140   7.453   4.141 -1.2890 -0.8865 -0.4148
12423SOL     OW41056   1.697   0.874  10.149 -0.2489  0.5756  0.2141
12423SOL    HW141057   1.656   0.899  10.066  1.0124  1.8845 -0.0628
12423SOL    HW241058   1.767   0.813  10.123 -0.9903 -0.4356  0.5253
12424SOL     OW41059   6.409   8.928   9.365  0.3891 -0.1082  0.6220
12424SOL    HW141060   6.489   8.879   9.346 -0.5857 -1.5489 -0.0120
12424SOL    HW241061   6.346   8.898   9.299 -0.7832  0.7072  1.3214
12425SOL     OW41062   5.380   4.853   5.356  0.4833  0.1668  0.1371
12425SOL    HW141063   5.453   4.811   5.401  0.1980 -1.2665 -0.6448
12425SOL    HW241064   5.360   4.930   5.408  1.2236 -0.5360  1.5191
12426SOL     OW41065   5.559   5.573   6.958 -0.0633 -0.5030 -0.0326
12426SOL    HW141066   5.595   5.533   7.037 -0.8767 -0.8514  0.1689
12426SOL    HW241067   5.491   5.513   6.929 -2.7095  1.5473  1.3828
12427SOL     OW41068   2.287   1.892   9.790  0.2847  0.6262  0.1219
12427SOL    HW141069   2.261   1.956   9.723 -1.1195  0.3671  0.3744
12427SOL    HW241070   2.266   1.807   9.750 -1.7533  0.5074  1.3012
12428SOL     OW41071   7.616   4.566   2.003  0.3297 -0.0700 -0.5568
12428SOL    HW141072   7.598   4.617   1.924  2.0568  1.0660 -0.2658
12428SOL    HW241073   7.712   4.560   2.007  0.2862 -0.2550  1.3324
12429SOL     OW41074   4.046   4.287   1.985  0.1730 -0.2981  0.0002
12429SOL    HW141075   4.031   4.362   1.928 -0.2218 -1.4945 -1.5397
12429SOL    HW241076   4.120   4.241   1.945 -1.0435 -1.9641 -0.4124
12430SOL     OW41077   7.853   8.983   8.383 -0.6102  0.0701 -0.0948
12430SOL    HW141078   7.927   8.989   8.443 -0.6528  0.5353 -0.0826
12430SOL    HW241079   7.825   9.074   8.370 -1.5579 -0.1446  0.3637
12431SOL     OW41080   8.327   4.771   2.891  0.4367  0.5788 -0.2137
12431SOL    HW141081   8.390   4.703   2.866  0.7158  0.1171  1.6212
12431SOL    HW241082   8.371   4.821   2.960 -0.8725  0.7908  0.5006
12432SOL     OW41083   4.947   0.604   0.477 -0.0519  0.0283 -0.3061
12432SOL    HW141084   4.973   0.548   0.549  2.4172 -1.4681 -2.2038
12432SOL    HW241085   4.958   0.693   0.511 -0.0376 -0.6151  1.4781
12433SOL     OW41086   6.226   1.337   1.795  0.1120  0.1948  0.3305
12433SOL    HW141087   6.305   1.351   1.849  0.0654 -0.1589  0.4936
12433SOL    HW241088   6.156   1.322   1.858 -0.3633  1.7785  0.2365
12434SOL     OW41089   9.572   7.531   8.706  0.2002  0.8290 -0.3047
12434SOL    HW141090   9.611   7.444   8.703  0.3896  0.9437 -1.6619
12434SOL    HW241091   9.513   7.528   8.781  0.3913 -0.3838 -0.1818
12435SOL     OW41092   2.279   8.177   0.438  0.0774 -0.2635  0.4218
12435SOL    HW141093   2.253   8.118   0.509 -1.1574  1.8768  1.8438
12435SOL    HW241094   2.216   8.249   0.442  2.1185  1.7039 -0.5336
12436SOL     OW41095   2.415   9.181   0.218 -0.3439 -0.3271 -0.2749
12436SOL    HW141096   2.386   9.107   0.164  1.8075  0.0586 -2.0912
12436SOL    HW241097   2.422   9.254   0.157  0.3814  0.6203  0.9047
12437SOL     OW41098   8.101   8.620   1.815  0.3270  0.6501 -0.1876
12437SOL    HW141099   8.039   8.694   1.814 -0.6046 -0.1127 -0.1934
12437SOL    HW241100   8.049   8.545   1.843  1.6443  0.2909  1.4490
12438SOL     OW41101   6.299   2.518   9.706 -0.0283 -0.5198  0.4390
12438SOL    HW141102   6.328   2.596   9.658  0.7643 -0.6483  0.6837
12438SOL    HW241103   6.204   2.521   9.703 -0.0091 -0.6915 -1.4218
12439SOL     OW41104   9.399   6.329   2.371  0.4295  0.1217  0.7225
12439SOL    HW141105   9.385   6.273   2.295 -0.2850  0.4108  0.6379
12439SOL    HW241106   9.374   6.416   2.343 -0.4709  0.1261  1.4632
12440SOL     OW41107   0.212   8.726   2.395 -0.0816  0.2367  0.8159
12440SOL    HW141108   0.219   8.809   2.441 -1.5868 -0.2641  2.0483
12440SOL    HW241109   0.266   8.666   2.446  0.5017  0.3003  0.2864
12441SOL     OW41110   2.176   4.231   7.012 -0.2618  0.0441  0.5377
12441SOL    HW141111   2.103   4.291   6.997 -0.2932 -0.2523 -0.5461
12441SOL    HW241112   2.169   4.208   7.105 -1.5655 -0.0095  0.4377
12442SOL     OW41113   2.532   9.267   4.944  0.3497 -0.2900  0.2449
12442SOL    HW141114   2.553   9.312   4.862 -0.1665 -0.1307  0.2026
12442SOL    HW241115   2.437   9.269   4.949  0.2143 -2.4285 -0.3600
12443SOL     OW41116   3.272   9.792   0.711  0.0678 -0.2973 -0.1919
12443SOL    HW141117   3.336   9.809   0.780 -0.7569  1.0325  0.2743
12443SOL    HW241118   3.191   9.770   0.757 -0.1582 -0.6885 -0.7608
12444SOL     OW41119   2.357   5.450   2.193  0.7848  0.3905 -0.5380
12444SOL    HW141120   2.278   5.416   2.235  0.7220  0.2361 -0.7834
12444SOL    HW241121   2.327   5.523   2.140  0.9330  0.9037  0.0686
12445SOL     OW41122   1.092   3.370  10.289 -0.0468 -0.3057  0.1029
12445SOL    HW141123   1.160   3.336  10.348 -0.7143 -0.4982  0.7858
12445SOL    HW241124   1.108   3.464  10.285 -0.4217 -0.1818  1.1837
12446SOL     OW41125   0.458  10.186   4.215 -0.0558 -0.2210  0.4447
12446SOL    HW141126   0.392  10.136   4.167  0.4242  2.0375 -2.8694
12446SOL    HW241127   0.413  10.267   4.239  1.0281  0.7034 -0.5410
12447SOL     OW41128   8.424   6.071   1.820  0.4541  0.1420  0.1257
12447SOL    HW141129   8.379   5.990   1.843  1.0632 -0.2972 -0.1892
12447SOL    HW241130   8.507   6.042   1.781  0.4750  0.9077 -0.4169
12448SOL     OW41131   8.102   0.819   4.551  0.1349  0.2585 -0.0732
12448SOL    HW141132   8.110   0.797   4.643 -0.1123 -0.4068 -0.2052
12448SOL    HW241133   8.061   0.906   4.550 -1.6056 -0.5188  0.4243
12449SOL     OW41134   9.754   7.532   7.388  0.4162 -0.6245  0.0848
12449SOL    HW141135   9.693   7.464   7.417  1.3915 -1.6137 -0.1168
12449SOL    HW241136   9.748   7.529   7.292 -0.1165  0.1307  0.0870
12450SOL     OW41137   4.703   6.277   8.586 -0.0731 -0.1694  0.0662
12450SOL    HW141138   4.653   6.342   8.537 -0.3286  0.4278  1.0849
12450SOL    HW241139   4.724   6.321   8.668  1.8475 -0.5302 -0.1995
12451SOL     OW41140  10.217   3.756   8.866 -0.3170  0.0290  0.0013
12451SOL    HW141141  10.254   3.814   8.800  0.2116 -1.0374 -0.6635
12451SOL    HW241142  10.146   3.807   8.905 -1.9262  0.0547 -2.6918
12452SOL     OW41143   0.493  10.348   1.352  0.2209  0.1262 -0.4490
12452SOL    HW141144   0.496  10.440   1.377  1.8172 -0.2754  1.0190
12452SOL    HW241145   0.424  10.310   1.407  0.4953  0.1737 -0.0730
12453SOL     OW41146   1.463   7.230   5.348 -1.0232 -0.0414  0.1129
12453SOL    HW141147   1.423   7.149   5.382 -0.8928  0.5470  1.7452
12453SOL    HW241148   1.419   7.300   5.396  1.0604  0.6897  1.0797
12454SOL     OW41149   9.022   9.809   3.833  0.2136  0.1589  0.7163
12454SOL    HW141150   9.044   9.723   3.868 -3.7327 -1.6012 -0.5039
12454SOL    HW241151   9.022   9.867   3.908 -0.8329 -1.8400  2.3517
12455SOL     OW41152   3.141   4.940   3.229 -0.1909 -0.2411  0.0288
12455SOL    HW141153   3.114   4.880   3.299  0.5038 -1.1248 -0.4252
12455SOL    HW241154   3.076   5.010   3.230 -3.2484 -2.7813 -1.7621
12456SOL     OW41155   3.841   4.568  10.237  0.2452  0.5293 -0.3168
12456SOL    HW141156   3.893   4.488  10.230  2.7529  1.9599  0.3631
12456SOL    HW241157   3.782   4.552  10.311  0.8639 -0.6305 -0.0554
12457SOL     OW41158  10.259   7.525   3.157  0.1421  0.1108  0.2541
12457SOL    HW141159  10.260   7.435   3.125 -2.0780  0.1416  0.0048
12457SOL    HW241160  10.235   7.517   3.249 -1.6788  0.5126 -0.1573
12458SOL     OW41161   6.014   9.809  10.181 -0.5834  0.1076  0.5737
12458SOL    HW141162   5.984   9.759  10.257 -0.1584  0.5192  1.0198
12458SOL    HW241163   6.109   9.798  10.181 -0.6153 -0.2159 -0.1360
12459SOL     OW41164   3.694   8.104   3.412 -0.2153 -0.0752  0.7322
12459SOL    HW141165   3.627   8.171   3.423  0.7910  0.8839  1.2954
12459SOL    HW241166   3.686   8.076   3.321 -0.7149  0.7416  0.5168
12460SOL     OW41167   2.050   6.079   9.123 -0.5458  0.4585  0.0532
12460SOL    HW141168   2.007   6.033   9.051 -0.0759 -0.3498  0.2700
12460SOL    HW241169   1.980   6.126   9.167 -1.2986 -1.1042  0.6088
12461SOL     OW41170   8.400   1.159   0.254 -0.1571 -0.0499  0.0192
12461SOL    HW141171   8.332   1.199   0.308  0.2803  0.7076  0.0307
12461SOL    HW241172   8.473   1.145   0.314  0.2287  0.5304 -0.3061
12462SOL     OW41173   2.871   9.414   6.850  0.1055 -0.1169  0.7432
12462SOL    HW141174   2.834   9.493   6.811 -0.2683 -0.0605  1.2146
12462SOL    HW241175   2.950   9.397   6.798  0.3499  0.7272  0.8215
12463SOL     OW41176   6.245   9.539   0.812 -0.3684  0.1538 -0.1821
12463SOL    HW141177   6.192   9.589   0.874 -0.5456  0.1042 -0.2917
12463SOL    HW241178   6.312   9.600   0.782  0.4851 -0.1792  0.9922
12464SOL     OW41179   1.241   1.521   0.928  0.2987 -0.0046  0.2344
12464SOL    HW141180   1.232   1.561   0.842  0.2393  0.4733  0.4606
12464SOL    HW241181   1.335   1.504   0.936  0.2640 -0.3528 -0.0549
12465SOL     OW41182   1.610   2.113   1.273 -0.0360 -0.3338  0.7800
12465SOL    HW141183   1.641   2.203   1.277 -0.3279 -0.2549  1.3293
12465SOL    HW241184   1.687   2.059   1.293  0.1706 -0.2171  0.3143
12466SOL     OW41185   4.922   5.272   0.449 -0.0755  0.8444 -0.4090
12466SOL    HW141186   5.016   5.257   0.450 -0.4310 -1.9599 -0.5050
12466SOL    HW241187   4.894   5.251   0.538 -0.7548  0.4987 -0.6973
12467SOL     OW41188   7.870   8.138   5.133  0.0176  0.4345  0.2086
12467SOL    HW141189   7.911   8.053   5.146  2.4221  1.5055  0.1893
12467SOL    HW241190   7.915   8.197   5.194 -0.7590  1.9353 -0.5874
12468SOL     OW41191   1.046   8.018   2.910  0.9353  0.1898 -0.5745
12468SOL    HW141192   1.087   8.049   2.991  2.0602 -0.5476 -0.8490
12468SOL    HW241193   1.040   8.096   2.855  0.3820  0.6466  0.1034
12469SOL     OW41194   1.970   5.889   0.208 -0.0861 -0.4322 -0.2906
12469SOL    HW141195   2.006   5.832   0.277  2.2703  1.4369  0.1569
12469SOL    HW241196   1.884   5.914   0.241  0.4868 -0.5661  1.4011
12470SOL     OW41197   8.792   3.722   1.460  0.1528  0.2001  0.6324
12470SOL    HW141198   8.886   3.706   1.473  0.3121  0.7930  0.2439
12470SOL    HW241199   8.760   3.641   1.421  1.0873  1.0071 -2.0057
12471SOL     OW41200   1.628   6.738   8.870  0.3046  0.3166  0.2692
12471SOL    HW141201   1.576   6.721   8.792  0.7930 -0.3770  0.0842
12471SOL    HW241202   1.574   6.707   8.943  0.2601  0.0421  0.1198
12472SOL     OW41203   9.292   0.568   7.231 -0.2545  0.3945 -0.3989
12472SOL    HW141204   9.305   0.647   7.282  0.3601 -0.4077  0.7251
12472SOL    HW241205   9.378   0.546   7.196 -0.4067  0.1846 -0.6537
12473SOL     OW41206   1.836   1.287   3.253 -0.1038 -0.1619  0.6199
12473SOL    HW141207   1.814   1.276   3.345  1.0012 -0.6225  0.8403
12473SOL    HW241208   1.861   1.199   3.223  2.0562  0.4107  0.5712
12474SOL     OW41209   9.584   3.635   5.937 -0.4661 -0.0086 -0.1688
12474SOL    HW141210   9.567   3.631   6.031  0.9431  1.7461  0.2065
12474SOL    HW241211   9.643   3.561   5.920 -0.8927 -0.4603  0.2667
12475SOL     OW41212   6.408   3.070   7.554 -0.1739 -0.1060  0.2044
12475SOL    HW141213   6.436   3.082   7.463  0.0808  0.7578  0.3827
12475SOL    HW241214   6.395   2.976   7.563 -1.4578 -0.0787 -1.0851
12476SOL     OW41215   1.509   5.174   3.703 -0.2177 -0.6840 -0.0022
12476SOL    HW141216   1.436   5.113   3.695 -1.3152  0.6085 -0.2284
12476SOL    HW241217   1.499   5.234   3.629  0.0986  0.5022  0.8854
12477SOL     OW41218   0.369   0.768   0.966  0.1153 -0.1906 -0.3007
12477SOL    HW141219   0.324   0.852   0.962  0.3797  0.0005  0.4417
12477SOL    HW241220   0.462   0.791   0.963  0.1912 -0.4357  0.1394
12478SOL     OW41221   1.072   6.555   2.809  0.3267  0.1115  0.0128
12478SOL    HW141222   1.062   6.532   2.902  0.3523 -1.8526 -0.4154
12478SOL    HW241223   1.079   6.470   2.765 -0.9626  0.9747 -1.9517
12479SOL     OW41224   6.924   7.845   9.223  0.6549  0.3257 -0.2066
12479SOL    HW141225   7.013   7.870   9.247  1.0868 -1.6823  0.4400
12479SOL    HW241226   6.935   7.777   9.157 -0.4593  1.0855 -1.2281
12480SOL     OW41227   9.329   8.557   7.009  0.0488 -0.1657 -0.0555
12480SOL    HW141228   9.322   8.513   6.924  2.5192 -0.6691 -0.0847
12480SOL    HW241229   9.382   8.498   7.062  2.8466  2.2977  0.1631
12481SOL     OW41230   8.115   5.802  10.243  0.1183 -0.0462  0.1902
12481SOL    HW141231   8.063   5.756  10.177  1.5445 -0.1541 -0.8990
12481SOL    HW241232   8.113   5.894  10.216 -2.6385  0.6801  2.3037
12482SOL     OW41233   9.538   5.474   9.290 -0.4462 -0.3628 -0.2373
12482SOL    HW141234   9.524   5.550   9.347 -1.6464  0.3927 -1.4528
12482SOL    HW241235   9.474   5.409   9.320 -1.0179  0.0027 -0.6261
12483SOL     OW41236   3.488   4.597   2.737 -0.1020 -0.1780 -0.0846
12483SOL    HW141237   3.405   4.550   2.741 -0.0018 -0.3214  0.3320
12483SOL    HW241238   3.481   4.665   2.804 -1.2625  2.0970 -2.3151
12484SOL     OW41239  10.074   1.378   8.317  0.2120  0.0420 -0.4035
12484SOL    HW141240  10.107   1.435   8.247 -0.1025 -0.3003 -0.8385
12484SOL    HW241241  10.008   1.323   8.274  1.4318 -1.5670 -0.3386
12485SOL     OW41242   6.342   2.587   5.720  0.2599  0.1521  0.2117
12485SOL    HW141243   6.330   2.523   5.650 -0.6299 -0.6445  1.0626
12485SOL    HW241244   6.337   2.672   5.677  0.6201 -0.3385 -0.8147
12486SOL     OW41245   7.856   1.237   8.232  0.5355 -0.0314  0.2062
12486SOL    HW141246   7.852   1.298   8.305 -1.7388  2.7088 -1.9647
12486SOL    HW241247   7.884   1.290   8.158  0.2630 -2.0699 -1.4507
12487SOL     OW41248   8.517   7.149   4.774 -0.0915 -0.6286 -0.5514
12487SOL    HW141249   8.447   7.181   4.830  0.3874 -0.0491 -0.2622
12487SOL    HW241250   8.473   7.099   4.705 -0.7470 -0.6311 -0.1361
12488SOL     OW41251   1.536   3.973   3.400  0.1498  0.8098  0.0382
12488SOL    HW141252   1.559   4.001   3.489  0.3061  0.2206  0.1888
12488SOL    HW241253   1.561   3.881   3.397 -0.2276  0.7204 -0.4901
12489SOL     OW41254   2.660   5.878   3.785 -0.1376  0.8876 -0.1471
12489SOL    HW141255   2.627   5.957   3.829 -0.5104  1.3958 -1.2902
12489SOL    HW241256   2.584   5.819   3.783 -0.5112  1.3693 -1.2106
12490SOL     OW41257   0.610   6.141   5.349 -0.9293  0.0883 -0.3145
12490SOL    HW141258   0.612   6.237   5.344 -1.3116  0.0728 -0.8220
12490SOL    HW241259   0.583   6.122   5.439 -0.3049  0.4505 -0.0485
12491SOL     OW41260   3.230   4.365   3.728  0.2414 -0.5922 -0.1344
12491SOL    HW141261   3.325   4.367   3.720  0.1273  0.9939 -1.7669
12491SOL    HW241262   3.214   4.321   3.811  2.3949 -0.8579  0.1978
12492SOL     OW41263   9.215   2.960   7.396  0.5364 -0.5238  0.1252
12492SOL    HW141264   9.147   3.024   7.415  0.6100 -0.4860  0.2618
12492SOL    HW241265   9.170   2.891   7.347  0.5567 -0.1283 -0.4675
12493SOL     OW41266   2.596   9.615   7.245  0.3752 -0.3371 -0.0959
12493SOL    HW141267   2.533   9.572   7.187 -0.3308 -1.4602  1.4115
12493SOL    HW241268   2.543   9.642   7.321  1.0517  2.0940 -0.4188
12494SOL     OW41269   9.641   7.388   1.741  0.3206  0.5767  0.0561
12494SOL    HW141270   9.556   7.425   1.764 -1.5328 -1.5311 -2.7450
12494SOL    HW241271   9.665   7.429   1.659  1.1313 -0.1404 -0.0890
12495SOL     OW41272   6.693   8.158   0.446 -0.2361  0.2848  0.4384
12495SOL    HW141273   6.732   8.195   0.525 -1.1114 -1.2946  1.6746
12495SOL    HW241274   6.708   8.064   0.454 -1.8156 -0.0763 -0.4318
12496SOL     OW41275   4.650   4.432   2.984 -0.1229 -0.0489 -0.3948
12496SOL    HW141276   4.644   4.359   3.045  3.8668 -0.5608 -0.3485
12496SOL    HW241277   4.645   4.510   3.039 -0.9020 -0.3589 -0.0091
12497SOL     OW41278   8.364   0.784   4.072  0.1525 -0.1649  0.0674
12497SOL    HW141279   8.324   0.786   4.159 -0.6371  1.5232 -0.2871
12497SOL    HW241280   8.456   0.805   4.087  0.3512 -1.3338  0.6179
12498SOL     OW41281   2.425   7.565   5.183 -0.4270  0.1510 -0.6697
12498SOL    HW141282   2.422   7.492   5.245 -2.5848 -0.1013 -1.0002
12498SOL    HW241283   2.446   7.524   5.099 -1.2710 -0.0677 -0.7855
12499SOL     OW41284   5.583   4.434   8.820 -0.2545 -0.0144  0.5234
12499SOL    HW141285   5.522   4.360   8.814  0.5512 -0.6099 -0.7132
12499SOL    HW241286   5.591   4.450   8.914 -2.0315 -0.1404  0.7285
12500SOL     OW41287   7.389   2.685   8.052 -0.0791  0.4652  0.0714
12500SOL    HW141288   7.398   2.657   7.961  0.1789 -1.1523  0.5675
12500SOL    HW241289   7.403   2.606   8.103  1.4838  1.6560  1.6044
12501SOL     OW41290   2.259   1.519   3.310  0.2598  0.1505 -0.2750
12501SOL    HW141291   2.238   1.445   3.254  0.0465  0.1186 -0.1521
12501SOL    HW241292   2.306   1.580   3.252  0.2903 -0.0057 -0.4161
12502SOL     OW41293   0.427   0.041   2.934 -0.7140  0.5921 -0.1519
12502SOL    HW141294   0.511   0.034   2.889  0.0948 -0.6656  1.4301
12502SOL    HW241295   0.386   0.119   2.897  1.5430  1.7823 -0.2982
12503SOL     OW41296   7.265   3.059   4.802 -0.5438 -0.5625 -0.7837
12503SOL    HW141297   7.177   3.028   4.823 -0.6154  0.2942  0.2948
12503SOL    HW241298   7.308   3.068   4.888  0.1645  0.2547 -1.2085
12504SOL     OW41299   1.833   9.623   4.625 -0.0209  1.0708  0.4059
12504SOL    HW141300   1.746   9.647   4.656 -0.7383 -2.3477  1.4717
12504SOL    HW241301   1.891   9.691   4.660 -2.0611  2.7043  0.7825
12505SOL     OW41302   8.023   9.309   1.825 -0.3597  0.6000 -0.1582
12505SOL    HW141303   8.060   9.274   1.906  0.5154 -0.3960 -0.9658
12505SOL    HW241304   8.008   9.232   1.770 -1.6118  1.1935 -0.6847
12506SOL     OW41305  10.081   4.555   4.556  0.5712  0.0537 -0.5901
12506SOL    HW141306  10.074   4.575   4.462 -1.4784 -1.1137 -0.7570
12506SOL    HW241307  10.089   4.460   4.560 -4.6476 -0.6574  0.3745
12507SOL     OW41308   0.452   8.879   4.208 -1.1222 -0.6702 -0.0112
12507SOL    HW141309   0.428   8.893   4.116 -2.3478 -1.9596  0.0701
12507SOL    HW241310   0.369   8.865   4.252 -0.4697 -1.2073  1.0817
12508SOL     OW41311   1.379   0.337   4.763  0.0651 -0.0659  0.1278
12508SOL    HW141312   1.395   0.430   4.748 -0.6285 -0.1577 -1.4287
12508SOL    HW241313   1.314   0.313   4.696  0.8319 -1.8325 -0.0445
12509SOL     OW41314   7.506   8.139   3.443  0.1223  0.0182 -0.1418
12509SOL    HW141315   7.461   8.128   3.527  0.3201 -0.0452 -0.0441
12509SOL    HW241316   7.531   8.050   3.418  1.4776  0.1969  0.5118
12510SOL     OW41317   3.937   5.517   7.829  0.4700  0.1177 -0.0381
12510SOL    HW141318   3.951   5.561   7.745  0.4783 -0.8783 -0.5855
12510SOL    HW241319   3.860   5.559   7.866  0.4592  0.5674 -0.5556
12511SOL     OW41320   7.639   5.291   3.525 -0.0723 -0.0341  0.6088
12511SOL    HW141321   7.591   5.208   3.525  3.5878 -2.4049  0.0180
12511SOL    HW241322   7.606   5.338   3.601 -3.8695 -0.9267 -0.2697
12512SOL     OW41323   6.087   1.392   4.647  0.4250  0.0637 -0.0368
12512SOL    HW141324   5.996   1.375   4.668  0.2494  1.3860  0.3053
12512SOL    HW241325   6.136   1.343   4.713  0.0059 -1.1580 -0.5915
12513SOL     OW41326   0.922   4.448   7.211 -0.3003 -0.1018  0.1663
12513SOL    HW141327   0.959   4.381   7.269  0.0557  0.1916  0.2843
12513SOL    HW241328   0.996   4.505   7.190 -0.6737  0.4682  0.3726
12514SOL     OW41329   1.112   0.346  10.008 -0.0905  0.3124 -0.2018
12514SOL    HW141330   1.112   0.252  10.030 -0.0851 -0.0593 -1.6993
12514SOL    HW241331   1.173   0.385  10.070 -0.7581 -0.5170  1.0334
12515SOL     OW41332   3.008   5.896   2.726 -0.9019  0.4340 -0.0606
12515SOL    HW141333   2.961   5.957   2.782 -0.5071  0.3348  0.3795
12515SOL    HW241334   3.049   5.833   2.786  0.8245  1.2367 -0.3379
12516SOL     OW41335   4.911   0.963   7.274 -0.6569  0.4309  0.2532
12516SOL    HW141336   4.987   1.002   7.317 -0.2827 -0.7981  0.7529
12516SOL    HW241337   4.885   1.027   7.208  3.7688 -1.0125 -3.4085
12517SOL     OW41338   0.617   2.933   5.497 -0.4949 -0.4948 -0.2915
12517SOL    HW141339   0.661   2.917   5.414 -1.0185  0.8191 -0.8653
12517SOL    HW241340   0.601   3.028   5.497 -2.0068 -0.7211  0.5332
12518SOL     OW41341   0.891   9.906   2.237 -0.0488 -0.1485 -0.2922
12518SOL    HW141342   0.818   9.903   2.175  1.3886  0.1919 -2.0847
12518SOL    HW241343   0.866   9.845   2.306 -3.3040  1.9967  0.6722
12519SOL     OW41344   6.434  10.122   1.699 -0.6840 -0.0552  0.7914
12519SOL    HW141345   6.432  10.142   1.793  0.2796  0.0903  0.7899
12519SOL    HW241346   6.468  10.202   1.658 -2.0378  0.2402  0.2060
12520SOL     OW41347   5.833   8.803   3.198 -0.0275  0.5825 -0.6222
12520SOL    HW141348   5.766   8.855   3.242 -0.8578 -0.4055 -0.6889
12520SOL    HW241349   5.785   8.751   3.133  0.7847 -0.2339 -0.5904
12521SOL     OW41350   3.247   6.713   3.830  0.0196 -0.4443 -0.1558
12521SOL    HW141351   3.209   6.792   3.793 -1.9512 -1.7511 -1.0485
12521SOL    HW241352   3.287   6.668   3.755 -0.4983 -1.1867  0.0084
12522SOL     OW41353   9.539  10.161   2.797 -0.0340 -0.3367  0.1289
12522SOL    HW141354   9.573  10.162   2.886 -1.4923  0.0297  0.7057
12522SOL    HW241355   9.546  10.252   2.767  0.8252 -0.5331 -0.2889
12523SOL     OW41356   9.614   2.164   8.203  0.1226  0.4969  0.3735
12523SOL    HW141357   9.641   2.128   8.287  0.6177  0.6377  0.2734
12523SOL    HW241358   9.658   2.110   8.138  0.9933  1.3660  0.2222
12524SOL     OW41359   1.033   1.225   9.350 -0.0675  0.1427 -0.2036
12524SOL    HW141360   0.981   1.285   9.404  1.1051  0.8344  0.1933
12524SOL    HW241361   1.008   1.138   9.380  0.3188  0.5047  1.2553
12525SOL     OW41362   9.617   5.441   8.662 -0.4497 -0.1678  0.1426
12525SOL    HW141363   9.680   5.374   8.689 -0.4872  0.1758  1.1091
12525SOL    HW241364   9.671   5.507   8.619 -0.4355 -0.8881 -0.9945
12526SOL     OW41365   6.141   4.614   3.880 -0.1412  0.0797 -0.0985
12526SOL    HW141366   6.063   4.626   3.934  0.4553  0.3324  0.7235
12526SOL    HW241367   6.112   4.556   3.809 -1.4329  1.2925 -0.6088
12527SOL     OW41368   9.689   2.982   2.678  0.7689 -0.0334 -0.0177
12527SOL    HW141369   9.657   2.932   2.604 -0.7369 -0.0518  0.6097
12527SOL    HW241370   9.692   2.919   2.750  1.3073  0.2027  0.1738
12528SOL     OW41371   5.864   7.756   3.479  0.3350 -0.3462  0.3661
12528SOL    HW141372   5.957   7.772   3.495  0.3667  0.0867 -0.2501
12528SOL    HW241373   5.819   7.804   3.549  0.5692 -0.6184  0.7120
12529SOL     OW41374   4.004   4.335   6.149 -0.0999  0.5695  0.3501
12529SOL    HW141375   4.092   4.312   6.179 -0.4404 -1.7106 -0.2056
12529SOL    HW241376   3.945   4.286   6.207 -0.8963 -0.2390 -1.0782
12530SOL     OW41377   5.915   3.585   6.371  0.5752 -0.3833  0.1169
12530SOL    HW141378   5.961   3.659   6.412  0.5916 -1.3220  1.8760
12530SOL    HW241379   5.876   3.623   6.292 -0.1469  1.7397  1.3940
12531SOL     OW41380   7.208   4.609   3.909 -0.4522  0.4151  0.0682
12531SOL    HW141381   7.130   4.570   3.949  0.3819 -0.8654  0.4969
12531SOL    HW241382   7.281   4.556   3.941  0.4237  0.4306 -1.7532
12532SOL     OW41383   9.376   6.058   8.274 -0.0020  0.5777  0.4462
12532SOL    HW141384   9.451   6.116   8.269  0.7426 -0.4705 -1.2813
12532SOL    HW241385   9.318   6.085   8.203  0.2029 -0.5649 -0.1752
12533SOL     OW41386   4.382   8.432   4.325 -0.4342 -0.0861  0.0111
12533SOL    HW141387   4.459   8.452   4.272 -1.3622  0.1318 -1.2982
12533SOL    HW241388   4.411   8.364   4.385  1.2636  1.2621  0.7953
12534SOL     OW41389   5.410   9.158   5.223 -0.1203  0.0872  0.4613
12534SOL    HW141390   5.462   9.180   5.301 -0.5455  1.1781  0.4563
12534SOL    HW241391   5.327   9.203   5.237 -0.3575 -0.0630 -0.4275
12535SOL     OW41392   2.225   8.130   9.155  0.4493  0.4433  0.0445
12535SOL    HW141393   2.132   8.144   9.172 -0.1058 -1.1034 -1.3912
12535SOL    HW241394   2.237   8.158   9.064  0.8842 -1.1985 -0.4582
12536SOL     OW41395   5.868   6.875   2.779  0.0382 -0.1934 -0.4101
12536SOL    HW141396   5.854   6.781   2.769 -0.4894 -0.1656  0.0530
12536SOL    HW241397   5.960   6.883   2.804 -0.0892 -0.6298  0.1949
12537SOL     OW41398   8.496   2.839   6.274 -0.0997 -0.4560  0.0945
12537SOL    HW141399   8.492   2.904   6.204 -3.6148 -0.3259  0.2368
12537SOL    HW241400   8.531   2.886   6.349  3.1182 -0.4317 -1.2581
12538SOL     OW41401   6.891   1.101   9.468  0.0340  0.0138  1.1597
12538SOL    HW141402   6.917   1.134   9.382  2.0319 -0.8742  1.3625
12538SOL    HW241403   6.850   1.175   9.511 -1.2198  0.4187 -0.6073
12539SOL     OW41404   9.589   7.812   3.900 -0.4061  0.1474 -0.1330
12539SOL    HW141405   9.651   7.767   3.842 -2.1541 -0.0557 -1.9675
12539SOL    HW241406   9.521   7.845   3.841 -1.4836  1.3140  1.6729
12540SOL     OW41407   5.401   2.695   3.934  0.1285 -0.0746 -0.0964
12540SOL    HW141408   5.478   2.707   3.878  0.6012 -0.2418  0.5087
12540SOL    HW241409   5.411   2.608   3.971  0.5976  0.5740  1.3910
12541SOL     OW41410   5.679   2.266   6.764  0.2051  0.4284 -0.1255
12541SOL    HW141411   5.629   2.273   6.683  0.3399  2.0081 -0.1147
12541SOL    HW241412   5.625   2.213   6.822 -0.6301  0.6041 -0.7248
12542SOL     OW41413   7.782   6.415   3.709 -0.1891  0.2742  0.1968
12542SOL    HW141414   7.696   6.441   3.675 -0.1411 -0.0813 -0.2031
12542SOL    HW241415   7.767   6.332   3.753  0.0773 -0.1397 -0.4841
12543SOL     OW41416   2.549   0.321   3.889 -0.1931 -0.3889  0.1855
12543SOL    HW141417   2.461   0.286   3.905 -0.1338 -0.8254 -0.4534
12543SOL    HW241418   2.554   0.333   3.795  0.6062 -0.8214  0.1644
12544SOL     OW41419   5.048   2.691   1.825 -0.0524 -0.2638  0.3468
12544SOL    HW141420   5.078   2.684   1.734 -0.5910  1.4134  0.0174
12544SOL    HW241421   4.996   2.612   1.839  0.3192 -0.7095 -0.6869
12545SOL     OW41422   3.346  10.201   1.183 -0.1338  0.3809  0.1111
12545SOL    HW141423   3.300  10.222   1.264 -2.1490  0.7925 -1.0457
12545SOL    HW241424   3.318  10.112   1.162 -1.9779  1.2711 -1.5321
12546SOL     OW41425   1.113   5.803   6.149 -0.3730 -0.1492  0.0696
12546SOL    HW141426   1.057   5.729   6.174 -0.8539 -0.0928 -0.8068
12546SOL    HW241427   1.118   5.857   6.228 -0.7820 -0.6413  0.4401
12547SOL     OW41428   5.429   2.146   6.912 -0.3761  0.2876  0.5547
12547SOL    HW141429   5.336   2.171   6.913 -0.1881  1.1184 -0.6395
12547SOL    HW241430   5.440   2.096   6.832  0.7873  2.8113 -1.0023
12548SOL     OW41431   4.232   8.713   6.071  0.0178 -0.6454  0.1885
12548SOL    HW141432   4.239   8.619   6.056  0.3036 -0.4899 -0.6732
12548SOL    HW241433   4.270   8.753   5.993 -0.5328  0.1864  0.3369
12549SOL     OW41434   9.042   4.576   7.604  0.6260 -0.2926 -0.0013
12549SOL    HW141435   9.041   4.493   7.556 -0.6906 -1.1859  1.4858
12549SOL    HW241436   9.096   4.634   7.550 -0.0504 -1.5032 -2.0895
12550SOL     OW41437   4.030   4.124   0.108  0.1309 -0.1960 -0.4581
12550SOL    HW141438   4.062   4.108   0.197 -0.1809 -1.5531 -0.5760
12550SOL    HW241439   4.042   4.218   0.095  0.9129 -0.1133  0.7304
12551SOL     OW41440   5.581   8.233   3.330 -0.2591 -0.4191  0.1149
12551SOL    HW141441   5.549   8.210   3.242  1.2052  0.7394 -0.7614
12551SOL    HW241442   5.624   8.153   3.361  3.2298  0.3535 -2.1772
12552SOL     OW41443   9.635   3.170   5.637 -0.2991 -0.6759  0.1691
12552SOL    HW141444   9.664   3.156   5.728  0.8552 -0.0811 -0.0851
12552SOL    HW241445   9.566   3.235   5.643  1.9380  1.8690  0.4152
12553SOL     OW41446   5.303   4.272   1.257 -0.0137 -0.5604 -0.5079
12553SOL    HW141447   5.297   4.322   1.176 -0.0978 -0.6358 -0.5482
12553SOL    HW241448   5.339   4.187   1.231 -0.9098 -0.9172 -0.6093
12554SOL     OW41449   6.691   6.360   8.223 -0.2442  0.0118  0.6026
12554SOL    HW141450   6.732   6.409   8.295 -0.2044 -1.2755  1.5094
12554SOL    HW241451   6.762   6.347   8.160 -0.1682  0.8125  0.5211
12555SOL     OW41452   0.137   8.021   0.133 -0.3866  0.0860  0.5142
12555SOL    HW141453   0.182   7.938   0.122 -1.7337 -1.1509  3.5668
12555SOL    HW241454   0.195   8.073   0.189 -0.7614  0.1679  0.8300
12556SOL     OW41455   1.684   1.732   6.512 -0.2643  0.2165 -0.5852
12556SOL    HW141456   1.775   1.758   6.523  0.7024 -2.4092 -1.4899
12556SOL    HW241457   1.660   1.692   6.596 -0.1092 -0.2958 -0.7788
12557SOL     OW41458   3.594   1.905   1.133  0.5865  0.0624 -0.1119
12557SOL    HW141459   3.635   1.910   1.219 -0.6516 -0.8925  0.5652
12557SOL    HW241460   3.588   1.811   1.115 -2.6474  0.0623  0.5066
12558SOL     OW41461   9.836   2.189   7.010  0.8934  0.3806 -0.6667
12558SOL    HW141462   9.924   2.201   7.047  0.4517 -0.3804  0.6626
12558SOL    HW241463   9.808   2.103   7.041  0.0885  0.1444 -1.9682
12559SOL     OW41464   6.228   2.043   1.758 -0.6366 -0.1500 -0.4244
12559SOL    HW141465   6.151   2.086   1.721 -0.9459  0.8401  1.2585
12559SOL    HW241466   6.299   2.063   1.697 -0.8796  2.4247  0.0340
12560SOL     OW41467   0.046   9.258   6.555  0.4219  0.0604 -0.7996
12560SOL    HW141468  -0.034   9.278   6.507  0.0195 -0.7687 -0.4882
12560SOL    HW241469   0.059   9.164   6.543  0.5174 -0.0996  0.4088
12561SOL     OW41470   2.584   3.947   5.222  0.1699  0.0757 -0.6385
12561SOL    HW141471   2.573   3.897   5.303 -0.2680 -0.1299 -0.8200
12561SOL    HW241472   2.558   3.886   5.153  0.5144  0.2582 -0.9328
12562SOL     OW41473   6.005   3.814   3.007  0.1784 -0.0891 -0.1109
12562SOL    HW141474   6.097   3.807   3.034  0.4102  0.3466 -0.7793
12562SOL    HW241475   5.979   3.724   2.989  0.0169 -0.4047  1.5232
12563SOL     OW41476   0.601   2.686   6.698 -0.3821 -0.3789 -0.5655
12563SOL    HW141477   0.589   2.688   6.603  1.8751 -1.5399 -0.9345
12563SOL    HW241478   0.684   2.731   6.713  0.0566 -1.5423  0.6851
12564SOL     OW41479   8.202  10.243   0.487  0.1239  0.1708 -0.3574
12564SOL    HW141480   8.221  10.311   0.551 -2.0519 -2.0156  2.9170
12564SOL    HW241481   8.260  10.171   0.511  2.0343  0.5250 -3.4385
12565SOL     OW41482   9.124   4.258   0.586  0.1616  0.0572  0.2603
12565SOL    HW141483   9.094   4.220   0.504  0.6631  1.0104 -0.3847
12565SOL    HW241484   9.149   4.183   0.640  1.8601 -0.5330 -1.2503
12566SOL     OW41485   2.156   7.842   9.946  0.0553 -0.4591 -0.0171
12566SOL    HW141486   2.215   7.864  10.017  1.4379  0.5461 -1.4025
12566SOL    HW241487   2.070   7.872   9.974  1.1521  3.2048 -0.1463
12567SOL     OW41488   9.063   4.078   7.229 -0.2799 -0.1628  0.3603
12567SOL    HW141489   9.072   4.021   7.305  1.6880 -1.6702 -0.9067
12567SOL    HW241490   9.130   4.047   7.168 -0.8770  1.8768 -1.4407
12568SOL     OW41491   8.453   1.304   9.085 -0.1106  0.7726 -0.1647
12568SOL    HW141492   8.429   1.392   9.116 -1.4666  0.1766  0.6044
12568SOL    HW241493   8.452   1.250   9.165 -0.9048 -0.2563 -0.8434
12569SOL     OW41494   5.274   1.226   9.409  0.0429 -0.1646 -0.6576
12569SOL    HW141495   5.224   1.159   9.455 -1.5653  1.2673 -0.2276
12569SOL    HW241496   5.245   1.309   9.447  2.0216  0.8036 -1.1166
12570SOL     OW41497   7.102   0.391   4.813 -0.5763  0.4880  0.5297
12570SOL    HW141498   7.036   0.364   4.749 -1.8489  3.1783  0.5567
12570SOL    HW241499   7.171   0.431   4.760  0.7927 -1.7099  0.5569
12571SOL     OW41500   2.272   5.519   7.893 -0.4956  0.2725  0.4899
12571SOL    HW141501   2.187   5.511   7.936 -1.0520 -1.0688 -0.7934
12571SOL    HW241502   2.253   5.510   7.800  1.2331 -2.3819  0.2706
12572SOL     OW41503  10.012   8.065   0.683  0.2915  0.3129 -0.6093
12572SOL    HW141504   9.968   8.002   0.626  0.5803  0.4232 -0.9578
12572SOL    HW241505  10.035   8.138   0.626  0.9321  0.2531 -0.4432
12573SOL     OW41506   3.939   1.374   6.689 -0.1117 -0.1199 -0.2351
12573SOL    HW141507   3.962   1.296   6.740  0.0968 -0.0191 -0.1753
12573SOL    HW241508   3.846   1.362   6.669 -0.8046  0.8485  2.0004
12574SOL     OW41509   6.811   1.939   4.558  0.4199  0.1255 -0.5713
12574SOL    HW141510   6.801   1.991   4.638  0.7562  0.7978 -0.9561
12574SOL    HW241511   6.901   1.907   4.561 -0.1264 -1.4573  0.2485
12575SOL     OW41512   7.663   5.172   2.878 -0.6213  0.4418  0.5523
12575SOL    HW141513   7.648   5.168   2.783  0.4868  0.5041  0.3626
12575SOL    HW241514   7.575   5.178   2.915 -1.1670 -1.1602 -0.3849
12576SOL     OW41515   7.534   2.798   0.089 -0.1041  0.3668 -0.0060
12576SOL    HW141516   7.546   2.888   0.058  1.8281  0.2623  0.3417
12576SOL    HW241517   7.590   2.745   0.033 -0.8537 -0.5873  0.1093
12577SOL     OW41518   7.731   5.916   3.480  0.0582 -0.6644 -0.0971
12577SOL    HW141519   7.745   5.905   3.574 -0.9570  1.3009  0.3242
12577SOL    HW241520   7.701   5.830   3.450 -2.2504 -0.6747  1.9097
12578SOL     OW41521   8.165   5.247   3.901 -0.4660  0.4700 -0.4288
12578SOL    HW141522   8.184   5.311   3.970 -2.3482 -0.9294  1.5334
12578SOL    HW241523   8.069   5.238   3.902 -0.2573 -4.2878  1.4152
12579SOL     OW41524   7.730   6.357   9.123  0.1494 -0.3483  0.3876
12579SOL    HW141525   7.807   6.363   9.179  1.4615  1.0239 -1.4381
12579SOL    HW241526   7.710   6.264   9.118  0.2133 -0.5461  2.7612
12580SOL     OW41527   8.168   9.578   6.210  0.0803  0.2104  0.1962
12580SOL    HW141528   8.204   9.601   6.296 -1.3934 -0.9983  1.1995
12580SOL    HW241529   8.103   9.646   6.192  0.6487  0.6697 -0.1589
12581SOL     OW41530   8.839   9.354   6.247 -0.2418  0.3649 -0.3247
12581SOL    HW141531   8.819   9.344   6.340  0.4461  0.2250 -0.1883
12581SOL    HW241532   8.767   9.408   6.213 -1.2162 -0.6908 -0.0042
12582SOL     OW41533   2.828   5.586   8.141 -0.0561 -0.3719  0.2715
12582SOL    HW141534   2.882   5.659   8.172 -0.4828  0.7018 -1.3807
12582SOL    HW241535   2.739   5.620   8.142 -0.0944 -0.2906 -2.0130
12583SOL     OW41536   6.512   8.225   6.651  0.3538 -0.7077 -0.1531
12583SOL    HW141537   6.528   8.184   6.736  2.8728 -0.8944 -0.6615
12583SOL    HW241538   6.512   8.319   6.669 -0.7017 -0.7646  0.2552
12584SOL     OW41539   9.470   8.791   7.156  0.0026 -0.0268 -0.4972
12584SOL    HW141540   9.468   8.702   7.121 -1.5830 -0.6318  0.9982
12584SOL    HW241541   9.390   8.831   7.122  0.5851  0.7735 -0.9570
12585SOL     OW41542   1.539   3.898  10.355 -0.0290  0.2752  0.3719
12585SOL    HW141543   1.555   3.848  10.275 -0.6119 -0.6422  0.8167
12585SOL    HW241544   1.507   3.983  10.325 -1.3564 -0.4610 -0.3613
12586SOL     OW41545   2.914   5.172   5.251 -0.2879  0.3733  0.1253
12586SOL    HW141546   2.962   5.130   5.180  0.3059 -1.0266  1.3073
12586SOL    HW241547   2.867   5.100   5.294  0.7526  0.8608  2.2036
12587SOL     OW41548   3.449   7.510   6.761 -0.2200 -0.1810 -0.1166
12587SOL    HW141549   3.451   7.571   6.687  2.2563  0.6382  0.5453
12587SOL    HW241550   3.386   7.549   6.822  0.7656  1.3650 -0.0337
12588SOL     OW41551   5.322   1.723   6.172 -0.2786  0.0304 -0.3241
12588SOL    HW141552   5.363   1.713   6.258 -1.6882 -0.0208  0.3715
12588SOL    HW241553   5.302   1.634   6.143  0.7876  0.0002 -1.0323
12589SOL     OW41554   0.816   4.206   5.953  0.0776 -0.7290  0.0284
12589SOL    HW141555   0.786   4.288   5.914  1.1307 -0.1142  0.4773
12589SOL    HW241556   0.805   4.142   5.883 -2.2686 -0.5761  0.1620
12590SOL     OW41557   7.164   3.788   5.147  0.1895  0.3963 -0.0049
12590SOL    HW141558   7.247   3.816   5.185 -0.1900  0.9114  0.4732
12590SOL    HW241559   7.169   3.693   5.144  1.3810  0.4661 -1.3568
12591SOL     OW41560   8.528   2.249  10.340  0.0463 -0.9707  0.0776
12591SOL    HW141561   8.530   2.337  10.378  0.0646  1.0437 -4.0397
12591SOL    HW241562   8.434   2.228  10.334 -0.3309  0.9947 -3.0871
12592SOL     OW41563   2.583   2.185   5.075 -0.2095 -0.0738  0.1005
12592SOL    HW141564   2.658   2.150   5.027 -0.5974 -2.9777  1.3643
12592SOL    HW241565   2.510   2.181   5.012 -0.2849 -1.9072  0.2505
12593SOL     OW41566   8.670   7.228   7.223 -0.0818 -0.1317 -0.1797
12593SOL    HW141567   8.683   7.321   7.241 -0.5851 -0.4553  2.0641
12593SOL    HW241568   8.585   7.224   7.178  0.0704  0.4870 -0.5406
12594SOL     OW41569   4.198   2.584   1.058 -0.5674 -0.6106 -0.1769
12594SOL    HW141570   4.247   2.503   1.043 -0.1904 -0.4925  0.4175
12594SOL    HW241571   4.263   2.654   1.049 -1.0052 -0.3169 -1.2865
12595SOL     OW41572   9.805   8.554   4.038 -0.2485 -0.1637  0.1976
12595SOL    HW141573   9.746   8.480   4.047  0.5398 -0.9356 -0.7673
12595SOL    HW241574   9.749   8.626   4.008 -0.7886 -0.7479 -0.2235
12596SOL     OW41575  10.150   8.670   6.067  0.6318  0.7387 -0.0397
12596SOL    HW141576  10.107   8.585   6.077 -0.0257  1.2010  1.2540
12596SOL    HW241577  10.164   8.678   5.973  0.4873 -0.6927 -0.2114
12597SOL     OW41578   7.190   4.824   0.904  0.3622 -0.2675 -0.3054
12597SOL    HW141579   7.145   4.908   0.908  1.3409  0.2555  0.2568
12597SOL    HW241580   7.121   4.759   0.907 -0.3515  0.5036  0.9218
12598SOL     OW41581   5.316   2.833   1.870 -0.3488 -0.1843  0.1665
12598SOL    HW141582   5.261   2.766   1.912  0.3795 -0.4697  0.6809
12598SOL    HW241583   5.257   2.907   1.857 -0.4318  0.2413  2.4973
12599SOL     OW41584   0.678   9.376   9.045  0.2702 -0.5709 -0.4628
12599SOL    HW141585   0.659   9.439   8.975  0.9831  1.2922  0.9331
12599SOL    HW241586   0.593   9.342   9.071 -0.2200  0.4289 -0.7185
12600SOL     OW41587   1.112   4.205   3.373 -0.0868 -0.0650  0.2267
12600SOL    HW141588   1.173   4.244   3.436  0.5507 -0.0694 -0.3750
12600SOL    HW241589   1.076   4.129   3.419  0.3512 -0.0521  0.6024
12601SOL     OW41590   6.226   8.247   0.156  0.0780 -0.1478  0.1343
12601SOL    HW141591   6.207   8.249   0.062  3.2749 -1.2294 -0.6392
12601SOL    HW241592   6.222   8.339   0.184  0.3847  0.3351 -1.3509
12602SOL     OW41593   0.450   5.422   2.981 -0.2934 -0.5058  0.1721
12602SOL    HW141594   0.524   5.479   2.999  0.6543 -1.8214  0.6169
12602SOL    HW241595   0.382   5.449   3.043  0.1590  0.0962  0.4056
12603SOL     OW41596   5.973   9.267   1.787  0.1012 -0.7542  0.0068
12603SOL    HW141597   5.929   9.245   1.870  1.8683 -0.1984  1.1423
12603SOL    HW241598   5.912   9.236   1.719 -1.3131 -1.4042  1.4911
12604SOL     OW41599   5.492   1.517   6.400  0.7824 -0.0594  0.6597
12604SOL    HW141600   5.549   1.483   6.331  0.0283 -0.0436  0.0069
12604SOL    HW241601   5.403   1.502   6.366  0.3513  3.6174 -0.2538
12605SOL     OW41602   4.340  10.035  10.019  0.1635 -0.0981  0.5420
12605SOL    HW141603   4.292  10.083  10.086 -1.6625 -0.1833 -0.6488
12605SOL    HW241604   4.405   9.984  10.067 -1.5011 -0.6480  2.3180
12606SOL     OW41605   1.295   0.535   9.820 -0.2508  0.4269 -0.1631
12606SOL    HW141606   1.342   0.537   9.903 -0.9984  0.9972  0.2579
12606SOL    HW241607   1.216   0.482   9.838  0.2048 -0.5234 -0.8568
12607SOL     OW41608   0.059   7.520   0.268 -0.5369 -0.1914 -0.7900
12607SOL    HW141609   0.149   7.494   0.286 -0.9551  0.0035  2.1444
12607SOL    HW241610   0.021   7.445   0.223  0.1657 -1.8737  1.2487
12608SOL     OW41611   9.831   7.012   9.600 -1.2467  1.0332  0.7234
12608SOL    HW141612   9.800   6.957   9.671  1.4025 -0.9203  0.5156
12608SOL    HW241613   9.754   7.028   9.545 -2.6297 -0.2219  2.2269
12609SOL     OW41614   6.069  10.085   8.445  0.2598 -0.0012  0.1439
12609SOL    HW141615   6.083  10.024   8.372 -0.3905 -1.3931  1.1466
12609SOL    HW241616   6.123  10.161   8.423  0.7005 -0.7160 -1.3903
12610SOL     OW41617   1.600   0.786   3.679 -0.4741  0.6026 -0.3359
12610SOL    HW141618   1.667   0.781   3.746 -1.1689 -1.3264  0.2646
12610SOL    HW241619   1.615   0.871   3.637  1.0494  1.0927  1.0929
12611SOL     OW41620   0.284   4.639   7.089  0.1930  0.4421  0.2266
12611SOL    HW141621   0.285   4.612   6.997 -2.1174 -0.5558  0.4016
12611SOL    HW241622   0.305   4.732   7.087 -3.1553  1.3647 -1.8102
12612SOL     OW41623   0.846   9.955   9.168 -0.1397  0.4356  0.2758
12612SOL    HW141624   0.776   9.911   9.121 -0.9395 -0.1047  1.8958
12612SOL    HW241625   0.805   9.986   9.249  1.3564  0.5838  1.0217
12613SOL     OW41626   5.525   6.303   8.962 -0.2784 -0.1692  0.6067
12613SOL    HW141627   5.463   6.297   9.035 -0.0601 -0.6886  0.7514
12613SOL    HW241628   5.610   6.317   9.003 -0.2048 -0.1083  0.4353
12614SOL     OW41629   4.586   2.046   6.281 -0.1138 -0.3548  0.0680
12614SOL    HW141630   4.555   2.043   6.190  0.7186 -0.6525 -0.2088
12614SOL    HW241631   4.540   1.973   6.324 -0.0959 -0.5540 -0.2457
12615SOL     OW41632   7.934   4.785   2.672  0.4828  0.0706 -0.1776
12615SOL    HW141633   7.846   4.802   2.638  0.0960 -0.8708  0.3315
12615SOL    HW241634   7.936   4.832   2.756 -0.1315 -1.2672  0.6079
12616SOL     OW41635   7.623   1.584   3.771 -0.0835 -0.0757 -0.5618
12616SOL    HW141636   7.637   1.491   3.751  0.2464  0.0313 -0.8458
12616SOL    HW241637   7.710   1.623   3.762 -0.3486  0.3849 -1.1245
12617SOL     OW41638   0.764   0.575   7.856 -0.0077 -0.0758 -0.9283
12617SOL    HW141639   0.779   0.637   7.928 -0.8342  0.4083 -1.1583
12617SOL    HW241640   0.674   0.592   7.828  0.5580  0.2928 -2.6234
12618SOL     OW41641   2.611   0.489   5.498  0.1336 -0.4659 -0.2234
12618SOL    HW141642   2.601   0.568   5.552 -0.0906  0.1130 -1.0930
12618SOL    HW241643   2.522   0.453   5.491 -0.1835  0.5182 -1.7486
12619SOL     OW41644   7.789   4.690   0.709  0.1068 -0.0746  0.2882
12619SOL    HW141645   7.863   4.630   0.701 -0.2366 -0.4412 -0.1986
12619SOL    HW241646   7.723   4.640   0.757 -0.6222 -0.5252 -1.1314
12620SOL     OW41647   6.250   5.209   5.507 -0.7896 -0.6594 -0.0383
12620SOL    HW141648   6.262   5.297   5.473 -1.1084 -1.4474 -2.3763
12620SOL    HW241649   6.336   5.185   5.544  0.5469 -0.7602 -2.9474
12621SOL     OW41650   4.925   1.056   8.940  0.1500  0.4780 -0.1750
12621SOL    HW141651   4.891   1.060   8.851  0.2113  1.4461 -0.1678
12621SOL    HW241652   4.984   0.981   8.939 -0.9490 -0.3934 -0.5475
12622SOL     OW41653   3.309   2.448   9.516 -0.0871 -0.2091 -0.3396
12622SOL    HW141654   3.404   2.440   9.513 -0.0159 -0.0514  0.8955
12622SOL    HW241655   3.287   2.504   9.441  1.2127  3.1481  1.5597
12623SOL     OW41656   7.390   5.729   2.317 -0.0552  0.3574 -0.3933
12623SOL    HW141657   7.434   5.770   2.392  2.9526 -2.2232 -0.5498
12623SOL    HW241658   7.460   5.711   2.254 -1.6917 -1.8962 -1.7416
12624SOL     OW41659   0.412   5.774   6.902  0.3624 -0.1664  0.2001
12624SOL    HW141660   0.325   5.739   6.922  0.6982 -0.6467  0.8558
12624SOL    HW241661   0.469   5.737   6.970  0.8553  1.1425  0.5280
12625SOL     OW41662   6.078   0.865   9.006  0.3124 -0.1253 -0.2334
12625SOL    HW141663   6.029   0.839   9.084 -1.3800  0.9392 -0.8775
12625SOL    HW241664   6.065   0.793   8.944  0.6338 -0.4271  0.0552
12626SOL     OW41665   2.384   8.041   8.823  0.5845 -0.0985  0.2373
12626SOL    HW141666   2.311   7.990   8.858 -0.4031  0.8635 -0.3340
12626SOL    HW241667   2.397   8.007   8.735  1.4470 -0.8797  0.6552
12627SOL     OW41668   1.010   2.893   0.306  0.9837  0.3970 -0.1957
12627SOL    HW141669   0.973   2.805   0.311  2.0682 -0.2919 -2.8799
12627SOL    HW241670   1.047   2.907   0.394 -0.9859 -0.9244  0.9405
12628SOL     OW41671   2.312   2.104   4.355  0.2813 -0.1177  0.7360
12628SOL    HW141672   2.228   2.142   4.381  0.1294 -0.1165  0.2353
12628SOL    HW241673   2.293   2.012   4.340  0.3968 -0.1420  0.7392
12629SOL     OW41674   1.579   1.022   3.503  0.3068 -0.3134 -0.2194
12629SOL    HW141675   1.529   1.064   3.433  0.6269  1.4224  0.5433
12629SOL    HW241676   1.653   1.081   3.518  0.5849 -0.9786  1.1573
12630SOL     OW41677   4.205   5.245   6.698  0.5740  0.2672 -0.4302
12630SOL    HW141678   4.208   5.237   6.793 -2.8355  3.1801  0.1700
12630SOL    HW241679   4.139   5.182   6.671  0.3196  0.6068 -0.6093
12631SOL     OW41680   1.522   4.516   2.856 -0.1605 -0.1747  0.3230
12631SOL    HW141681   1.552   4.450   2.919 -1.1491 -1.5046 -0.5367
12631SOL    HW241682   1.541   4.600   2.898  0.7519 -0.9984  1.6413
12632SOL     OW41683   1.848   6.655   5.328  0.2289  0.5946  0.0314
12632SOL    HW141684   1.785   6.585   5.346  1.3259 -0.4015  0.0836
12632SOL    HW241685   1.797   6.735   5.335 -1.2806 -0.2276 -0.9621
12633SOL     OW41686   7.451   2.456   8.195  0.5235  0.1007  0.0926
12633SOL    HW141687   7.432   2.362   8.197  0.8895  0.0371  1.0537
12633SOL    HW241688   7.462   2.480   8.287 -1.8546  1.5822  0.0560
12634SOL     OW41689  10.306  10.162   9.636  0.5683 -0.3967  0.3030
12634SOL    HW141690  10.319  10.067   9.624 -0.8199 -0.3611 -2.1416
12634SOL    HW241691  10.277  10.193   9.550 -0.0172  2.0977  1.3213
12635SOL     OW41692   5.452   3.497   3.448  0.4656  0.5237 -0.0537
12635SOL    HW141693   5.437   3.507   3.354 -1.1101  1.7397  0.2824
12635SOL    HW241694   5.402   3.419   3.471 -1.4502  1.7537  0.1920
12636SOL     OW41695   8.850   2.129   6.297 -0.3427  0.0150  0.3352
12636SOL    HW141696   8.773   2.104   6.245  0.1102  1.3367 -1.0151
12636SOL    HW241697   8.920   2.073   6.263 -0.6209 -1.0362  1.4195
12637SOL     OW41698   9.604   0.425   1.033 -0.2444  0.0752  0.0731
12637SOL    HW141699   9.545   0.353   1.009 -1.4307  1.0994 -0.2052
12637SOL    HW241700   9.691   0.387   1.028 -0.7097 -0.8584 -1.9473
12638SOL     OW41701   0.189   0.416   1.655 -0.1372 -0.4740  0.0458
12638SOL    HW141702   0.096   0.392   1.658 -0.0438 -1.0869 -1.2267
12638SOL    HW241703   0.190   0.510   1.675 -1.1508 -0.2372 -0.8969
12639SOL     OW41704   3.328   5.256   7.271 -0.0401 -0.4573  0.5466
12639SOL    HW141705   3.258   5.319   7.255 -0.6245 -1.0586  0.6895
12639SOL    HW241706   3.387   5.266   7.197 -2.4163 -2.8448 -1.8921
12640SOL     OW41707   1.003   3.327   0.423 -0.3260  0.0380 -0.2783
12640SOL    HW141708   1.097   3.343   0.420 -0.1126 -0.3372  2.2816
12640SOL    HW241709   0.965   3.413   0.446 -0.4245 -0.1783  0.3932
12641SOL     OW41710   0.160   3.676   2.978 -0.1827  0.5855  0.1827
12641SOL    HW141711   0.106   3.738   3.027  0.4202  2.0020 -0.8815
12641SOL    HW241712   0.100   3.634   2.917 -0.5825  0.1328  0.8680
12642SOL     OW41713   3.600   5.144  10.271 -0.5034  0.4383 -0.2038
12642SOL    HW141714   3.557   5.066  10.306 -0.6015  0.5843  0.0046
12642SOL    HW241715   3.671   5.110  10.217  0.2184  0.2189  0.8571
12643SOL     OW41716   0.302   0.824   8.361 -0.4123 -0.3911  0.0824
12643SOL    HW141717   0.357   0.792   8.433  1.0818  0.0111 -0.8196
12643SOL    HW241718   0.259   0.746   8.327  2.3930 -1.4238 -1.4371
12644SOL     OW41719   7.250   5.243   0.885  0.0430 -0.1986  0.5408
12644SOL    HW141720   7.183   5.261   0.818  0.1587  2.5275  1.0550
12644SOL    HW241721   7.212   5.173   0.938  0.1947 -2.9161 -2.6332
12645SOL     OW41722   5.812   6.834   3.738 -0.3161 -0.4475  0.5486
12645SOL    HW141723   5.875   6.780   3.787  0.4439 -0.0142  0.0695
12645SOL    HW241724   5.745   6.772   3.708  0.2655 -1.0390  0.4522
12646SOL     OW41725   0.043   3.170   7.891 -0.9045 -0.0608  0.3582
12646SOL    HW141726   0.073   3.116   7.963 -0.5611 -0.7129 -0.2587
12646SOL    HW241727  -0.046   3.196   7.915 -1.0176 -0.7770  0.7258
12647SOL     OW41728   6.984   0.822   9.839 -0.8996  0.1287  0.5961
12647SOL    HW141729   6.996   0.728   9.822  0.3728  0.4547 -0.4413
12647SOL    HW241730   6.889   0.834   9.838 -1.0441 -0.6957 -2.0182
12648SOL     OW41731   8.139   1.354   2.134  0.1800 -0.0619  0.4549
12648SOL    HW141732   8.224   1.312   2.141 -0.2681 -1.1382 -0.2822
12648SOL    HW241733   8.085   1.312   2.201 -0.5040 -1.3356 -0.8207
12649SOL     OW41734   2.798   7.677   5.648  0.1569 -0.3438 -0.1014
12649SOL    HW141735   2.743   7.756   5.642 -0.2648 -0.6415 -0.2026
12649SOL    HW241736   2.768   7.622   5.576  0.6123 -0.4971 -0.1718
12650SOL     OW41737   0.607   3.918   1.022 -0.2412 -0.0322  0.0781
12650SOL    HW141738   0.559   3.984   1.071 -0.8189  0.5625 -1.2730
12650SOL    HW241739   0.549   3.892   0.951  1.0636  0.0674 -1.0780
12651SOL     OW41740   2.381   2.922   8.457  0.6217 -0.3181 -0.1598
12651SOL    HW141741   2.344   2.845   8.414 -3.0059  1.1160  0.0434
12651SOL    HW241742   2.408   2.891   8.544 -0.7272 -1.4022 -0.1050
12652SOL     OW41743  10.153   7.874   7.112  0.2395  0.9274  0.1453
12652SOL    HW141744  10.058   7.882   7.118  0.2089  0.1054  0.9460
12652SOL    HW241745  10.186   7.923   7.188  0.3763 -0.1413  0.7909
12653SOL     OW41746   1.966   9.452   1.485 -0.0322  1.0732  0.5314
12653SOL    HW141747   2.050   9.406   1.490 -0.8275 -0.5023  0.1786
12653SOL    HW241748   1.931   9.448   1.574  0.8854  3.0314  1.0221
12654SOL     OW41749   3.961   3.550   0.473 -0.9196  0.0130 -0.7012
12654SOL    HW141750   4.009   3.475   0.510  0.7701 -0.3308 -3.3499
12654SOL    HW241751   3.995   3.625   0.521  0.8417 -0.4557 -1.1359
12655SOL     OW41752   6.503   5.550   0.927 -0.0747  0.2781 -0.2710
12655SOL    HW141753   6.450   5.597   0.862  1.3173  2.2931 -0.0269
12655SOL    HW241754   6.445   5.542   1.003 -0.4100  1.5102 -0.3659
12656SOL     OW41755   4.404   9.301   8.771  0.0948  0.1983  0.3012
12656SOL    HW141756   4.370   9.388   8.790  1.1269  0.7491 -0.3054
12656SOL    HW241757   4.360   9.275   8.690 -2.4588 -1.1376  1.9548
12657SOL     OW41758   1.684   7.583  10.196 -0.0050  0.7259 -0.2748
12657SOL    HW141759   1.734   7.594  10.115 -0.0726  0.1363 -0.3956
12657SOL    HW241760   1.599   7.624  10.177  0.5386  2.0697  0.0564
12658SOL     OW41761   9.536   5.031   4.104 -0.2152  0.1995 -0.1598
12658SOL    HW141762   9.450   5.069   4.120  0.4822  1.0024  2.1271
12658SOL    HW241763   9.597   5.091   4.148  1.2048 -2.0540  1.1517
12659SOL     OW41764   2.100   0.500   7.529  0.1134  0.5279  0.0369
12659SOL    HW141765   2.084   0.533   7.441 -0.7637  0.9026  0.3292
12659SOL    HW241766   2.195   0.507   7.541  0.2118  0.6536 -0.8012
12660SOL     OW41767   2.044   3.433   6.136 -0.0941  0.1402  0.6759
12660SOL    HW141768   1.990   3.410   6.211 -1.4860  0.6277 -0.1307
12660SOL    HW241769   2.094   3.510   6.164 -3.1098  2.5088  0.1330
12661SOL     OW41770   6.784   9.995   2.531  0.3454  0.0145 -0.2971
12661SOL    HW141771   6.729   9.933   2.580 -2.2322  2.4024  0.0484
12661SOL    HW241772   6.840  10.035   2.598 -0.4827  0.5551  0.0850
12662SOL     OW41773   4.036   5.359   3.800  0.1398  0.2323 -0.0810
12662SOL    HW141774   3.945   5.330   3.805  0.6780 -1.3930  0.7204
12662SOL    HW241775   4.052   5.371   3.706 -1.0121  0.9928 -0.2057
12663SOL     OW41776   4.941   5.592   1.758 -0.1659  0.2949 -0.2127
12663SOL    HW141777   4.955   5.510   1.711 -2.5006 -0.2623 -0.0398
12663SOL    HW241778   4.939   5.659   1.689 -2.9042 -0.4406 -0.9906
12664SOL     OW41779   5.457   2.207   8.360  0.2871  0.6511 -0.0936
12664SOL    HW141780   5.514   2.134   8.336  0.3893  0.2363  1.2930
12664SOL    HW241781   5.369   2.176   8.340 -0.0091 -1.2029  3.2763
12665SOL     OW41782   8.329   8.415   3.052 -0.4451 -0.0688 -0.4362
12665SOL    HW141783   8.422   8.432   3.040  0.2094 -2.4261  0.7555
12665SOL    HW241784   8.291   8.501   3.069  1.7381  0.7763  0.5042
12666SOL     OW41785   8.269   5.444   9.294  0.1530 -0.1904 -0.5367
12666SOL    HW141786   8.195   5.484   9.340  2.4222  0.8177  2.5877
12666SOL    HW241787   8.295   5.511   9.230 -0.5027  0.2122 -0.4040
12667SOL     OW41788   6.910   5.905   5.808  0.2676 -0.2903  0.1701
12667SOL    HW141789   6.866   5.831   5.767 -1.2937  0.1977  0.9155
12667SOL    HW241790   7.004   5.886   5.797 -0.0548 -0.6600 -2.6975
12668SOL     OW41791   2.471   9.220   1.759  0.0429  0.1484  0.1859
12668SOL    HW141792   2.424   9.226   1.843  0.6310  1.0649  0.4703
12668SOL    HW241793   2.459   9.130   1.731  0.6037 -0.4461  1.7261
12669SOL     OW41794   8.061   5.900   3.694  0.0461 -0.1631  0.7508
12669SOL    HW141795   7.966   5.894   3.708 -0.1852 -2.2719 -1.1135
12669SOL    HW241796   8.071   5.960   3.620 -0.1149 -1.9532 -0.7947
12670SOL     OW41797   6.668   3.385   8.942  0.1548 -0.7898  0.1747
12670SOL    HW141798   6.675   3.332   8.863  1.8200 -1.4308  0.7176
12670SOL    HW241799   6.629   3.467   8.911  1.9192 -0.5202 -1.6021
12671SOL     OW41800   4.524   3.285   8.230 -0.1384  0.1935 -0.3128
12671SOL    HW141801   4.440   3.241   8.236  0.3465 -1.0958 -2.0317
12671SOL    HW241802   4.505   3.369   8.188 -0.8106  0.8291  1.2090
12672SOL     OW41803   2.565   0.200   6.939  0.1186 -0.6381  0.0284
12672SOL    HW141804   2.618   0.132   6.979  2.1931  0.6398 -0.4247
12672SOL    HW241805   2.553   0.265   7.009  0.0116 -0.4455 -0.1673
12673SOL     OW41806   9.463   7.238   6.790  0.0119 -0.1290  0.6628
12673SOL    HW141807   9.448   7.146   6.811  0.0033 -1.2416 -3.3403
12673SOL    HW241808   9.524   7.269   6.856 -0.8796 -2.6389  2.8187
12674SOL     OW41809   4.840   3.753   1.973  0.0570  0.2477 -0.3936
12674SOL    HW141810   4.914   3.698   2.000  0.4989  1.7418  1.7200
12674SOL    HW241811   4.771   3.692   1.951  0.5927 -1.1936  1.6430
12675SOL     OW41812   7.654   1.390   6.781  0.3199 -0.1532 -0.0726
12675SOL    HW141813   7.667   1.468   6.727 -0.2331 -0.4517 -0.6450
12675SOL    HW241814   7.614   1.326   6.722 -0.4531 -0.4319  0.7391
12676SOL     OW41815   4.234   0.077   3.383  0.1909 -0.1851 -0.5119
12676SOL    HW141816   4.146   0.089   3.420  0.6594  1.2878  0.1783
12676SOL    HW241817   4.252   0.157   3.335  1.6898  0.1206  0.4920
12677SOL     OW41818   8.991   5.277   1.503  0.0395  0.2619  0.4932
12677SOL    HW141819   8.973   5.361   1.462 -1.4695  0.1529  0.8680
12677SOL    HW241820   8.941   5.214   1.452 -1.4971  0.0647  2.1548
12678SOL     OW41821   5.535   5.698   6.334 -0.3347 -0.5812  0.3346
12678SOL    HW141822   5.616   5.648   6.342 -0.3500 -0.4922  1.0292
12678SOL    HW241823   5.474   5.637   6.292 -0.8354 -1.7120  2.5984
12679SOL     OW41824   1.248  10.239   4.719  0.1216  0.5307  0.0680
12679SOL    HW141825   1.284  10.277   4.639 -0.5520 -1.6082 -1.3369
12679SOL    HW241826   1.199  10.311   4.759  1.8690  2.1417 -0.4878
12680SOL     OW41827   7.307   3.882   2.178 -0.3068  0.1001  0.3552
12680SOL    HW141828   7.368   3.906   2.107  0.2170 -1.0929  0.3739
12680SOL    HW241829   7.248   3.818   2.138 -1.2685  0.9156  0.4655
12681SOL     OW41830   1.207   8.086   7.353  0.0893  0.1777  1.0231
12681SOL    HW141831   1.188   8.110   7.443 -0.7775  0.2069  0.8421
12681SOL    HW241832   1.265   8.155   7.321 -0.3369  0.6595  1.2825
12682SOL     OW41833   6.435   9.460   3.090 -0.2031  0.0055 -0.0010
12682SOL    HW141834   6.498   9.394   3.119 -0.1112 -0.4593 -1.1857
12682SOL    HW241835   6.479   9.543   3.107  1.1247 -0.3182 -1.5312
12683SOL     OW41836   2.143   1.161   3.697 -0.7129  0.1401 -0.3501
12683SOL    HW141837   2.094   1.100   3.642 -1.0544  0.1644 -0.0799
12683SOL    HW241838   2.102   1.246   3.682 -1.1995  0.0486  0.3826
12684SOL     OW41839   1.399   9.125   8.340  0.6211  0.1937  0.2864
12684SOL    HW141840   1.345   9.090   8.410 -0.9965 -0.3064 -1.1395
12684SOL    HW241841   1.399   9.219   8.354 -0.0213  0.1319  0.7292
12685SOL     OW41842   2.201   1.047   8.493  0.0386 -0.1446  0.3695
12685SOL    HW141843   2.123   1.097   8.467  0.1864 -0.1981 -0.1806
12685SOL    HW241844   2.272   1.111   8.489  0.1872 -0.3391 -0.0990
12686SOL     OW41845   3.528   7.939   8.229 -0.7393 -0.4864  0.5427
12686SOL    HW141846   3.459   7.883   8.192 -0.1055 -0.8897 -0.0593
12686SOL    HW241847   3.527   7.919   8.322 -2.0079  0.1506  0.6918
12687SOL     OW41848   9.973   9.528   0.399  0.0409  0.2282  0.2620
12687SOL    HW141849   9.916   9.467   0.351 -1.5114  1.4883  0.4197
12687SOL    HW241850   9.993   9.484   0.481  0.9333 -1.0425 -0.5972
12688SOL     OW41851   9.573   4.526   1.024 -0.1505 -0.1561  0.4947
12688SOL    HW141852   9.548   4.434   1.011 -1.3226  0.0903  0.9161
12688SOL    HW241853   9.654   4.521   1.075  0.3150 -0.9672 -0.2821
12689SOL     OW41854   5.478   2.068   4.637 -0.8318  0.3587 -0.3001
12689SOL    HW141855   5.571   2.052   4.654 -0.8945  0.8570  0.5717
12689SOL    HW241856   5.477   2.151   4.589 -0.6854 -0.8275 -2.4761
12690SOL     OW41857   7.369   1.114   1.391  0.3144 -0.4560 -0.6985
12690SOL    HW141858   7.406   1.202   1.400 -0.5383 -0.1713  0.1188
12690SOL    HW241859   7.282   1.128   1.355  0.7087 -1.0822 -1.9359
12691SOL     OW41860   8.815   3.586   2.868 -0.4432 -0.1869 -0.1465
12691SOL    HW141861   8.752   3.657   2.883  0.9372  1.0955 -0.1584
12691SOL    HW241862   8.827   3.546   2.954 -0.3974  0.3143  0.0809
12692SOL     OW41863   2.627   4.196   0.519  0.2717 -0.1184  0.1239
12692SOL    HW141864   2.604   4.248   0.441  0.1359 -0.9969 -0.4378
12692SOL    HW241865   2.719   4.219   0.536  0.3258  0.0252 -0.3414
12693SOL     OW41866   3.298   1.309   2.070  0.2533  0.3986 -0.3114
12693SOL    HW141867   3.221   1.359   2.043 -0.3826 -0.1906  0.3770
12693SOL    HW241868   3.262   1.228   2.106  1.2813 -1.0063 -2.2298
12694SOL     OW41869   9.953   7.984   6.822  0.0470  0.3300 -0.0371
12694SOL    HW141870   9.886   7.977   6.889  0.1066 -0.1259 -0.0188
12694SOL    HW241871  10.001   8.064   6.843  0.8693 -0.4481  1.2252
12695SOL     OW41872   8.676   8.526   1.101 -0.4293 -0.2384  0.0970
12695SOL    HW141873   8.748   8.513   1.163  0.2960  1.9864 -0.1749
12695SOL    HW241874   8.694   8.612   1.062 -2.0796 -0.5983 -1.5676
12696SOL     OW41875   4.959   2.771   2.079 -0.1787 -0.3664  0.3630
12696SOL    HW141876   4.949   2.862   2.053  1.3914  0.1370  1.3773
12696SOL    HW241877   5.005   2.730   2.006  0.9669  0.1707  0.7635
12697SOL     OW41878   9.431   7.103   9.619  0.1767  0.2409  0.0058
12697SOL    HW141879   9.405   7.039   9.685 -0.5639  0.0265 -0.4729
12697SOL    HW241880   9.348   7.139   9.588  0.5748  1.2390  0.0734
12698SOL     OW41881   4.083   4.376   0.402 -0.1208 -0.4115 -0.4806
12698SOL    HW141882   4.012   4.431   0.433 -1.4715 -3.4601  2.4736
12698SOL    HW241883   4.099   4.406   0.312 -2.6695  2.7089 -0.0724
12699SOL     OW41884   1.109   9.872   5.442 -0.0152 -0.0439 -0.3199
12699SOL    HW141885   1.137   9.963   5.449  0.7684 -0.4037  2.1685
12699SOL    HW241886   1.034   9.865   5.501 -1.0813 -0.7074 -1.6812
12700SOL     OW41887   5.152   1.773   9.202 -0.1422  0.0744 -0.3775
12700SOL    HW141888   5.213   1.805   9.135 -2.1696 -0.7198 -2.7470
12700SOL    HW241889   5.138   1.848   9.259  0.3167  1.3769 -1.8873
12701SOL     OW41890   8.532   2.627   0.956 -0.0796  0.2712 -0.0874
12701SOL    HW141891   8.449   2.578   0.960 -0.6046  1.0022 -1.4361
12701SOL    HW241892   8.508   2.716   0.982  0.5733  0.1808  0.8708
12702SOL     OW41893   5.112   3.240   1.258  0.7757  0.3903  0.3348
12702SOL    HW141894   5.091   3.319   1.208  0.4190  0.7622  1.0631
12702SOL    HW241895   5.203   3.253   1.287  0.2321  1.2361  1.7307
12703SOL     OW41896   9.727   4.201   0.025 -0.2570 -0.4384 -0.2132
12703SOL    HW141897   9.726   4.106   0.014 -2.6632 -0.4824 -0.0390
12703SOL    HW241898   9.658   4.219   0.089  0.7323  1.3804  0.4257
12704SOL     OW41899   8.085   8.608   1.065  0.3184 -0.1162  0.1507
12704SOL    HW141900   8.065   8.545   0.996 -0.7686 -0.4349  0.7295
12704SOL    HW241901   8.180   8.616   1.064  0.3718 -0.7209 -0.8445
12705SOL     OW41902   1.541   6.349   2.375 -0.3275 -0.2600 -0.1482
12705SOL    HW141903   1.473   6.288   2.403  1.2860 -2.1788 -0.2216
12705SOL    HW241904   1.576   6.386   2.456 -1.6134  0.9875 -0.1211
12706SOL     OW41905   2.943   9.859   4.364 -0.2499 -0.0147  0.0764
12706SOL    HW141906   2.933   9.947   4.400 -1.1124 -0.1648  0.2124
12706SOL    HW241907   2.940   9.871   4.269 -2.4294 -0.1058  0.0923
12707SOL     OW41908   5.882   4.154   3.785  0.7501 -0.4234 -0.0309
12707SOL    HW141909   5.850   4.064   3.787  0.6758 -0.4024 -0.2069
12707SOL    HW241910   5.854   4.187   3.699  1.0590 -0.3373 -0.0986
12708SOL     OW41911   5.663   1.252   7.390  0.3431  0.2309  0.1926
12708SOL    HW141912   5.600   1.303   7.442  0.5382  1.2371 -0.5412
12708SOL    HW241913   5.748   1.285   7.416  0.4744  0.2705 -0.2846
12709SOL     OW41914   0.335   6.146   5.259  0.2923  0.4046  0.6777
12709SOL    HW141915   0.331   6.052   5.278 -0.4808  0.4662  0.8561
12709SOL    HW241916   0.412   6.177   5.307  0.0281  0.0240  1.3693
12710SOL     OW41917   4.185   4.175   1.786 -0.1984  0.1364 -0.1740
12710SOL    HW141918   4.199   4.081   1.771  1.0236  0.1560  0.6613
12710SOL    HW241919   4.121   4.201   1.720 -2.7681 -1.8617  1.3709
12711SOL     OW41920   2.533   3.437   0.106  0.4723  0.4237  0.2888
12711SOL    HW141921   2.627   3.453   0.119  0.6496  1.3303 -1.7374
12711SOL    HW241922   2.512   3.369   0.170  2.8611 -0.8807 -0.1569
12712SOL     OW41923   7.020   4.531   7.018 -0.6839 -0.0728 -0.0252
12712SOL    HW141924   7.038   4.442   7.051  0.5109 -0.3414 -1.3134
12712SOL    HW241925   7.012   4.584   7.097  2.2477 -0.6555  0.7864
12713SOL     OW41926   8.266   3.522   1.860  0.0313 -0.1205  0.1212
12713SOL    HW141927   8.194   3.568   1.902 -0.6490 -0.5329 -0.5771
12713SOL    HW241928   8.344   3.551   1.908 -0.5122  0.8304  0.4555
12714SOL     OW41929   2.652   9.393   3.713 -0.1224  0.0256  0.6300
12714SOL    HW141930   2.621   9.424   3.798  1.5693  0.8129  1.0067
12714SOL    HW241931   2.706   9.316   3.734 -0.3899 -0.2858  0.1809
12715SOL     OW41932   0.546   3.685   6.696  0.6624 -0.2385  0.0278
12715SOL    HW141933   0.460   3.724   6.706  1.3914  1.4858  0.0270
12715SOL    HW241934   0.581   3.680   6.785  0.1103 -2.1514  0.1866
12716SOL     OW41935   8.515   4.844   1.168  0.3885 -0.2882  0.2472
12716SOL    HW141936   8.494   4.929   1.130  0.6484 -0.0718  0.5819
12716SOL    HW241937   8.550   4.864   1.255  0.4769 -0.7341  0.3194
12717SOL     OW41938   1.217   7.751   9.742  0.5490 -0.6073 -0.3327
12717SOL    HW141939   1.226   7.656   9.742  1.3992 -0.5303 -0.1474
12717SOL    HW241940   1.148   7.769   9.806 -0.2015 -1.1397 -0.9633
12718SOL     OW41941   0.478   7.463   9.328 -0.6433 -0.0762 -0.1628
12718SOL    HW141942   0.451   7.508   9.248  1.6055 -0.5106 -1.2410
12718SOL    HW241943   0.505   7.533   9.387 -2.0350  0.2269  0.1490
12719SOL     OW41944   1.365   5.299   4.209  0.2573  0.0509  0.3532
12719SOL    HW141945   1.283   5.330   4.170 -0.7389 -0.2357  2.1365
12719SOL    HW241946   1.433   5.350   4.164 -0.9978  1.4799 -0.0293
12720SOL     OW41947   6.367   8.067   0.742  0.1387  0.5879  0.3476
12720SOL    HW141948   6.462   8.068   0.749  0.2371 -1.1844 -0.1359
12720SOL    HW241949   6.349   8.099   0.653  0.1361  2.6773  1.0512
12721SOL     OW41950   5.566   1.983   2.640  0.2610 -0.2564  0.2035
12721SOL    HW141951   5.593   1.928   2.713 -0.6963 -0.4895  0.3883
12721SOL    HW241952   5.486   1.943   2.607 -1.0945  1.6144  1.0419
12722SOL     OW41953   1.103   1.155   7.510 -0.0875 -0.6895  0.1895
12722SOL    HW141954   1.096   1.080   7.451 -1.9048 -0.0373 -0.4751
12722SOL    HW241955   1.164   1.215   7.466  2.6607 -2.3330  1.4526
12723SOL     OW41956   5.765   6.468   1.853  0.3368 -0.1041 -0.8504
12723SOL    HW141957   5.675   6.458   1.823 -0.0926  1.5786 -0.2449
12723SOL    HW241958   5.799   6.542   1.802  1.2988 -0.5647 -0.8966
12724SOL     OW41959   4.718   4.754   0.136 -0.5435  0.0850 -0.1991
12724SOL    HW141960   4.782   4.686   0.119 -0.0147  0.1976  1.2131
12724SOL    HW241961   4.640   4.727   0.088  0.6907  0.2092 -2.3810
12725SOL     OW41962   8.110   7.520   6.500  0.0837 -0.7511  0.0402
12725SOL    HW141963   8.131   7.445   6.554  0.4986 -0.3762  0.4068
12725SOL    HW241964   8.151   7.594   6.544  2.4277 -0.7338 -1.9436
12726SOL     OW41965   2.873   0.313   9.796  0.4433 -0.4111 -0.2121
12726SOL    HW141966   2.891   0.315   9.890 -0.9342  1.6163  0.0836
12726SOL    HW241967   2.955   0.281   9.756  1.6170  0.2420  1.5568
12727SOL     OW41968   9.522   5.486   5.436 -0.6353 -0.1863  0.2131
12727SOL    HW141969   9.532   5.565   5.488  0.6321 -0.8009  0.9740
12727SOL    HW241970   9.428   5.471   5.431 -0.9438  1.7186 -0.5366
12728SOL     OW41971   9.955   0.278   9.299  0.6114 -0.3763 -0.4243
12728SOL    HW141972  10.024   0.261   9.235  0.3853 -0.7592 -0.5695
12728SOL    HW241973   9.915   0.192   9.314 -1.0403  0.1305 -1.6950
12729SOL     OW41974   4.925   9.671   9.134  0.7371  0.4967  0.1023
12729SOL    HW141975   5.012   9.655   9.170 -0.3495 -0.8643  2.4248
12729SOL    HW241976   4.915   9.766   9.135  1.4216  0.5840  1.9098
12730SOL     OW41977   8.516   8.523   6.757 -0.2283  0.0438 -0.1092
12730SOL    HW141978   8.545   8.600   6.708  1.1938  0.4537  1.2852
12730SOL    HW241979   8.596   8.476   6.779 -0.9401 -0.9113  0.5329
12731SOL     OW41980   7.085   4.079   5.413 -0.1942 -0.5501  0.3135
12731SOL    HW141981   7.181   4.075   5.420  0.3386 -2.4918 -4.2665
12731SOL    HW241982   7.066   4.172   5.402  1.7092 -0.3198 -1.9513
12732SOL     OW41983   3.218   9.019   4.015  0.7044  0.0465 -0.5657
12732SOL    HW141984   3.305   9.011   3.974  0.7301 -1.0833 -0.3243
12732SOL    HW241985   3.232   8.994   4.106  0.2378  0.4821 -0.3700
12733SOL     OW41986   8.300   0.678   7.081 -0.4457  0.4781  0.1079
12733SOL    HW141987   8.219   0.696   7.033 -0.4395  2.6076  0.8304
12733SOL    HW241988   8.273   0.677   7.173  0.0429 -0.7579  0.2601
12734SOL     OW41989   7.974   3.741   8.486 -0.8002 -0.4221 -0.0758
12734SOL    HW141990   7.984   3.764   8.578  0.8877 -1.4375  0.0319
12734SOL    HW241991   8.021   3.811   8.439  0.8600 -1.4025  0.0369
12735SOL     OW41992   3.441   4.119   4.606  0.3432 -0.1038 -0.0269
12735SOL    HW141993   3.422   4.031   4.639  0.3132 -0.3934 -0.7933
12735SOL    HW241994   3.456   4.171   4.684  1.4933 -1.0411  0.4051
12736SOL     OW41995   8.078   3.000   8.372  0.8007  0.5916  0.1464
12736SOL    HW141996   8.031   2.995   8.455 -1.6416  1.4871 -1.0756
12736SOL    HW241997   8.112   2.911   8.358  0.8396  0.3175  1.8476
12737SOL     OW41998   0.733   4.888   8.966 -0.1686 -0.2470  0.2637
12737SOL    HW141999   0.771   4.974   8.984 -1.5547  0.7841 -1.3466
12737SOL    HW242000   0.638   4.904   8.967 -0.4342 -1.5178 -1.0202
12738SOL     OW42001   4.283   2.071   2.671 -0.4532 -0.1790 -0.2488
12738SOL    HW142002   4.354   2.135   2.679 -2.5498  2.2988 -0.0725
12738SOL    HW242003   4.217   2.115   2.617 -1.5386 -2.6876 -1.1106
12739SOL     OW42004   9.013   9.014   1.248  0.1434 -0.0233  0.5102
12739SOL    HW142005   9.052   9.017   1.335  0.1530 -0.3085  0.5151
12739SOL    HW242006   8.951   9.087   1.247 -1.8637 -1.6054  1.7168
12740SOL     OW42007   8.718   0.483   8.625  0.1457 -0.6512 -0.2496
12740SOL    HW142008   8.774   0.422   8.672  0.9154 -0.6770 -1.1699
12740SOL    HW242009   8.666   0.428   8.566 -3.1378 -1.0002  2.6617
12741SOL     OW42010   3.184   2.307   3.599 -0.6373  0.2910  0.3755
12741SOL    HW142011   3.151   2.341   3.516  1.1318 -0.1000 -0.5487
12741SOL    HW242012   3.106   2.277   3.646 -1.5965 -0.6696 -1.7011
12742SOL     OW42013   9.279   8.256   4.268 -0.4273  0.1402  0.2031
12742SOL    HW142014   9.195   8.240   4.311 -1.1890  0.6483 -1.0482
12742SOL    HW242015   9.285   8.187   4.202  0.1173  0.1525  0.2357
12743SOL     OW42016   9.290   5.921   1.521  0.2996 -0.0997 -0.6558
12743SOL    HW142017   9.371   5.898   1.567  0.4267  2.1581  0.4030
12743SOL    HW242018   9.319   5.964   1.441  0.1489  0.2290 -0.5366
12744SOL     OW42019   3.837   0.092   0.281  0.0728 -0.4065 -0.7287
12744SOL    HW142020   3.782   0.146   0.224  0.3213 -0.1461 -0.7200
12744SOL    HW242021   3.899   0.153   0.320  1.3020 -0.8989 -1.8274
12745SOL     OW42022  10.017   8.381   9.484 -0.3551 -0.0954 -0.4414
12745SOL    HW142023  10.091   8.371   9.543 -1.0837  0.0437  0.5238
12745SOL    HW242024  10.031   8.315   9.416  0.4227 -0.3588 -0.0315
12746SOL     OW42025   9.483   8.923   0.992  0.2354  0.2369  0.2121
12746SOL    HW142026   9.569   8.885   1.008  0.8478  1.2785 -0.5240
12746SOL    HW242027   9.500   9.015   0.972 -0.9936  0.3345 -0.5055
12747SOL     OW42028   0.717   8.415   3.643 -0.3242 -0.8032  0.1732
12747SOL    HW142029   0.684   8.501   3.617 -1.4151 -0.7962  1.4311
12747SOL    HW242030   0.805   8.431   3.676  0.0357 -0.4118 -0.9628
12748SOL     OW42031   2.994   1.856   5.038  0.2694  0.2633  0.0195
12748SOL    HW142032   3.068   1.885   4.984  0.1763  0.5133  0.0251
12748SOL    HW242033   2.990   1.761   5.024  1.0371  0.1385  0.5685
12749SOL     OW42034  10.121   3.766   9.429 -0.4692  0.1301 -0.3793
12749SOL    HW142035  10.107   3.801   9.342 -1.7628 -0.6526 -0.5137
12749SOL    HW242036  10.134   3.672   9.415  0.1236  0.1207  0.1986
12750SOL     OW42037   8.489   7.722   4.826  0.2669  0.0860 -0.3377
12750SOL    HW142038   8.488   7.754   4.917  1.8559 -1.5515  0.3209
12750SOL    HW242039   8.457   7.796   4.775 -1.7294  0.7124  1.6318
12751SOL     OW42040   5.028   7.953   3.569  0.3851  0.0691 -0.1491
12751SOL    HW142041   5.005   8.025   3.511  0.1655  0.3886  0.3253
12751SOL    HW242042   5.098   7.988   3.624  1.1818 -0.5025 -0.7770
12752SOL     OW42043   1.393   9.457   5.758 -0.5881 -0.4647 -0.2043
12752SOL    HW142044   1.368   9.414   5.839  0.6246 -1.0145 -0.1082
12752SOL    HW242045   1.331   9.530   5.749 -0.5234 -0.1893  1.3831
12753SOL     OW42046   2.370   9.106   7.956  0.0058  0.4140 -0.3449
12753SOL    HW142047   2.414   9.187   7.931 -2.5582  2.2379  0.6457
12753SOL    HW242048   2.330   9.125   8.041 -0.0746 -2.1490  0.2607
12754SOL     OW42049   5.420   2.494   7.038 -0.4441  0.1735 -0.0605
12754SOL    HW142050   5.451   2.534   7.119  0.8506  1.5288 -1.1640
12754SOL    HW242051   5.396   2.405   7.063 -0.5046  0.6950  1.8857
12755SOL     OW42052   2.267   0.399   7.818  0.3633  0.1620  0.0225
12755SOL    HW142053   2.301   0.364   7.736 -0.9597 -0.0456 -0.4667
12755SOL    HW242054   2.174   0.415   7.800 -0.0539 -0.3024  1.6126
12756SOL     OW42055   0.638   5.905   5.229  0.0041 -0.0074 -0.0673
12756SOL    HW142056   0.628   5.994   5.261 -1.3860 -0.0493 -0.3096
12756SOL    HW242057   0.648   5.852   5.308 -0.4557  0.2320  0.1575
12757SOL     OW42058   8.748   3.375   1.689 -0.2812 -0.3734 -0.1114
12757SOL    HW142059   8.686   3.326   1.635 -2.8047  0.2081  2.0224
12757SOL    HW242060   8.698   3.450   1.722  2.2542  1.4018  0.0119
12758SOL     OW42061  10.026   8.475   5.318  0.2497 -0.0195  0.6283
12758SOL    HW142062   9.944   8.435   5.288  0.9480 -0.5232 -0.6489
12758SOL    HW242063   9.997   8.545   5.377 -1.1561  0.4532 -0.5495
12759SOL     OW42064   9.164   6.749   9.459 -0.3640 -0.2154  0.4378
12759SOL    HW142065   9.171   6.704   9.374 -1.4668 -1.5265  1.0078
12759SOL    HW242066   9.131   6.836   9.437 -0.0644 -0.3269 -0.5297
12760SOL     OW42067   4.651   1.382   0.892 -0.0728  0.0498  0.1267
12760SOL    HW142068   4.694   1.373   0.807 -2.1214  2.2835 -1.3250
12760SOL    HW242069   4.704   1.331   0.952  2.6296 -0.0090 -2.1013
12761SOL     OW42070   9.707   5.453   3.859  0.5098 -0.5413  0.2437
12761SOL    HW142071   9.781   5.510   3.881  0.7274 -1.7032  2.8376
12761SOL    HW242072   9.636   5.514   3.839  0.7790  0.7279  2.7606
12762SOL     OW42073   9.248   7.344   5.388  0.0136  0.4585 -0.3332
12762SOL    HW142074   9.337   7.313   5.370 -0.0531  1.0924 -1.9283
12762SOL    HW242075   9.261   7.423   5.440  0.3764  0.4692 -0.4346
12763SOL     OW42076   3.296   1.310   5.784 -0.0288 -0.1528  0.3715
12763SOL    HW142077   3.309   1.249   5.858 -0.5402  0.6129  1.1114
12763SOL    HW242078   3.256   1.256   5.716  1.4156 -1.1319  0.2384
12764SOL     OW42079   2.002   6.826   0.485 -0.3152 -0.5261  0.5005
12764SOL    HW142080   1.906   6.832   0.481 -0.2772  0.6506  0.9387
12764SOL    HW242081   2.032   6.866   0.403 -0.1646  0.9478  1.2486
12765SOL     OW42082   2.396   5.217   5.279  0.4085  0.3009  1.3966
12765SOL    HW142083   2.382   5.140   5.225  2.3036  0.8092  0.0596
12765SOL    HW242084   2.347   5.287   5.235  0.4470  0.3126  1.3725
12766SOL     OW42085   2.182   8.683   0.280  0.0608 -0.1852 -0.2327
12766SOL    HW142086   2.217   8.619   0.219  1.5506  1.4773 -1.1986
12766SOL    HW242087   2.236   8.674   0.358  0.9565  0.5898 -0.7549
12767SOL     OW42088   9.723   7.104   4.519  0.5843  0.3856  0.2487
12767SOL    HW142089   9.782   7.151   4.577  0.8229 -0.0210  0.3387
12767SOL    HW242090   9.637   7.111   4.562  1.0297 -1.3382  1.5573
12768SOL     OW42091   9.723   4.193   1.631 -0.0735 -0.1838  0.7006
12768SOL    HW142092   9.812   4.196   1.596 -0.3753  1.5440  0.0042
12768SOL    HW242093   9.675   4.257   1.580 -1.6110 -0.7290  1.4129
12769SOL     OW42094   1.154  10.283   0.860  0.6246  0.3125  0.2098
12769SOL    HW142095   1.095  10.208   0.851  0.5345  0.1921  1.5737
12769SOL    HW242096   1.155  10.323   0.773 -0.1207 -0.6760 -0.2818
12770SOL     OW42097   5.741   4.188   1.220  0.1318 -0.4194  1.2976
12770SOL    HW142098   5.750   4.108   1.272 -1.4806  0.1919  2.6336
12770SOL    HW242099   5.775   4.257   1.277 -1.2842  0.2123  1.4243
12771SOL     OW42100   2.183   2.455  10.317 -0.5442  0.2269 -0.1663
12771SOL    HW142101   2.211   2.534  10.362 -0.8334  1.0317 -1.3754
12771SOL    HW242102   2.112   2.421  10.372 -0.2737  0.6850  0.4745
12772SOL     OW42103   4.291   1.601   9.646 -0.0757  0.2663 -0.7916
12772SOL    HW142104   4.370   1.653   9.662 -1.0144  2.1907 -2.0154
12772SOL    HW242105   4.323   1.520   9.606  1.3375  0.6320 -0.4547
12773SOL     OW42106   1.305   6.608   9.861  0.0365 -0.0400  0.0244
12773SOL    HW142107   1.399   6.628   9.859 -0.1329  0.7644 -0.3301
12773SOL    HW242108   1.263   6.691   9.881 -0.5544 -0.5907  1.1748
12774SOL     OW42109   2.826   7.265   6.473 -0.3215 -0.3846  0.0065
12774SOL    HW142110   2.852   7.194   6.531 -2.3874 -0.6132  0.7055
12774SOL    HW242111   2.785   7.222   6.398  0.4697 -0.0003 -0.6675
12775SOL     OW42112   3.713   0.356   2.985 -0.6596  0.3869 -0.7697
12775SOL    HW142113   3.683   0.436   3.028 -1.3325  1.2857 -2.7923
12775SOL    HW242114   3.639   0.297   2.991 -0.6750  0.4300 -0.5189
12776SOL     OW42115   3.253   1.406   3.440 -0.5161  0.0453  0.5024
12776SOL    HW142116   3.185   1.374   3.499  0.0087 -2.4987 -0.1178
12776SOL    HW242117   3.227   1.373   3.354  0.7279  0.3034  0.0111
12777SOL     OW42118   9.349   4.809   6.894 -0.1523  0.0769  0.2779
12777SOL    HW142119   9.337   4.848   6.807 -2.4033  2.5733  1.5708
12777SOL    HW242120   9.266   4.764   6.912  0.3313 -0.5123  1.0981
12778SOL     OW42121   9.965   9.278   5.978 -0.0034  0.0210  0.5386
12778SOL    HW142122  10.024   9.353   5.979 -0.2039  0.2709  3.3882
12778SOL    HW242123  10.023   9.202   5.972  0.2211  0.3071 -1.9469
12779SOL     OW42124   5.606   4.202   6.564 -0.0651  0.2440 -0.2524
12779SOL    HW142125   5.680   4.177   6.510  0.0559 -0.9115  0.4145
12779SOL    HW242126   5.606   4.298   6.563  0.4048  0.2482 -1.6175
12780SOL     OW42127   5.172   7.343   1.138  0.2122  0.1574  0.1042
12780SOL    HW142128   5.125   7.339   1.222  1.2871  0.7536  0.7508
12780SOL    HW242129   5.114   7.298   1.077 -0.4686 -0.5598  1.2278
12781SOL     OW42130   4.546   9.753   6.633  0.0531  0.3193 -0.1782
12781SOL    HW142131   4.519   9.762   6.724  0.2391 -0.9999  0.0387
12781SOL    HW242132   4.494   9.817   6.585  0.3354  1.3993  0.9165
12782SOL     OW42133   2.504   6.629   7.839  0.2268 -0.3812  0.1049
12782SOL    HW142134   2.555   6.564   7.888 -1.3841 -1.1397  0.8349
12782SOL    HW242135   2.549   6.636   7.754  0.9015 -1.8394  0.3170
12783SOL     OW42136   6.235   6.248   4.275  0.0186  0.0867 -0.3851
12783SOL    HW142137   6.162   6.300   4.307  0.2161 -0.4894  1.0589
12783SOL    HW242138   6.266   6.296   4.197 -2.0556  0.1732 -1.2262
12784SOL     OW42139   9.719   5.394   7.241  0.0088  0.6725 -0.6714
12784SOL    HW142140   9.768   5.453   7.184  0.1933  1.1403 -0.0419
12784SOL    HW242141   9.712   5.441   7.324  1.8076 -0.9679  0.4862
12785SOL     OW42142   8.370   2.667   8.624 -0.6055 -0.2132  0.0479
12785SOL    HW142143   8.379   2.713   8.708 -0.2439  2.0902 -1.1777
12785SOL    HW242144   8.459   2.665   8.589 -1.0953  1.2510 -1.4169
12786SOL     OW42145   6.696   8.239   6.434  0.0925  0.2093  0.3304
12786SOL    HW142146   6.780   8.268   6.470 -0.2349  1.8770 -0.1248
12786SOL    HW242147   6.635   8.246   6.507 -0.0663  1.1251  0.1220
12787SOL     OW42148   1.944   3.599   5.739 -0.1205  0.2130  0.7308
12787SOL    HW142149   2.006   3.549   5.792 -0.4275  0.2340  1.1142
12787SOL    HW242150   1.866   3.545   5.735  0.1142 -0.0768 -0.2458
12788SOL     OW42151   5.171   8.393   1.520  0.7031 -0.1999  0.3829
12788SOL    HW142152   5.115   8.413   1.445  0.9865 -0.8047  0.0053
12788SOL    HW242153   5.111   8.392   1.594 -0.0048 -1.8855 -0.1603
12789SOL     OW42154   9.132   6.919   6.261  0.0428 -0.0811  0.4610
12789SOL    HW142155   9.130   7.013   6.276  0.7710  0.5086 -2.5554
12789SOL    HW242156   9.057   6.885   6.310 -2.0404  2.4708 -0.7286
12790SOL     OW42157   4.389   3.481   6.670  0.2683  0.0454 -0.2345
12790SOL    HW142158   4.354   3.437   6.746 -1.2779 -1.0214 -1.5028
12790SOL    HW242159   4.367   3.573   6.683 -0.3632 -0.1886  0.3808
12791SOL     OW42160   5.618   5.754   0.366  0.2090 -0.1011 -0.6221
12791SOL    HW142161   5.671   5.691   0.319 -0.7237 -1.5242  0.1469
12791SOL    HW242162   5.550   5.702   0.409  0.7523  1.1237  1.9666
12792SOL     OW42163   2.731   9.628  10.252 -0.7779 -0.6671  0.3117
12792SOL    HW142164   2.691   9.712  10.273  0.2204 -0.0985  0.0390
12792SOL    HW242165   2.676   9.563  10.295 -2.5773 -0.0173 -0.8804
12793SOL     OW42166  10.324   1.636   7.165 -0.1332  0.2167  0.9911
12793SOL    HW142167  10.369   1.551   7.161  2.9457  1.6990  1.7313
12793SOL    HW242168  10.267   1.635   7.087  0.0559 -2.3396  0.7741
12794SOL     OW42169   1.929   7.963   0.736  0.0241 -0.2508  0.2053
12794SOL    HW142170   1.911   7.958   0.642 -1.8557  0.1394  0.5219
12794SOL    HW242171   2.025   7.966   0.741  0.1691  2.0280 -1.8380
12795SOL     OW42172   1.419   3.671   8.167  0.1353 -0.1626  0.0130
12795SOL    HW142173   1.490   3.735   8.158 -0.0034  0.3561  2.0878
12795SOL    HW242174   1.355   3.714   8.223 -0.6779 -1.5632  0.2031
12796SOL     OW42175   2.211   1.008   4.291 -0.0778  0.6547 -0.2128
12796SOL    HW142176   2.262   1.049   4.221  1.4910  0.7417  0.9413
12796SOL    HW242177   2.122   1.041   4.279 -0.1470 -0.2668 -2.8896
12797SOL     OW42178   1.061   8.164   6.950 -0.1324  0.3070 -0.2757
12797SOL    HW142179   1.036   8.114   7.027  0.8265 -0.8086 -0.6639
12797SOL    HW242180   0.990   8.149   6.888 -0.1225 -0.1224 -0.1877
12798SOL     OW42181   6.466   9.663   4.074  0.0249 -0.4657 -0.3489
12798SOL    HW142182   6.503   9.582   4.040  0.6818  0.5519 -2.2780
12798SOL    HW242183   6.411   9.695   4.003 -0.0256  0.8769  0.2611
12799SOL     OW42184   8.647   5.083   1.699  0.3998  0.1278  0.2721
12799SOL    HW142185   8.601   5.017   1.752 -1.1068  1.0583  0.1616
12799SOL    HW242186   8.727   5.101   1.749 -0.4426  0.1565  1.6700
12800SOL     OW42187   2.885   4.837   9.065 -0.5618  0.3548  0.3774
12800SOL    HW142188   2.839   4.815   9.146  0.2507  0.2566  0.8214
12800SOL    HW242189   2.860   4.766   9.005 -1.7913  0.8481  0.2738
12801SOL     OW42190   2.184  10.141   3.114 -0.2167 -0.5825  0.1281
12801SOL    HW142191   2.274  10.122   3.087 -0.1411  0.5310 -0.4869
12801SOL    HW242192   2.132  10.128   3.035 -0.7708 -2.1677  0.7167
12802SOL     OW42193   4.363   0.106   7.770  0.6102 -0.4410 -0.6225
12802SOL    HW142194   4.293   0.160   7.734  0.7342 -0.8454 -1.5193
12802SOL    HW242195   4.328   0.073   7.853  0.2514  0.4024 -0.4294
12803SOL     OW42196   9.421   4.650   2.752  0.2223 -0.3310  0.1709
12803SOL    HW142197   9.395   4.695   2.833  0.6556 -0.3259  0.3093
12803SOL    HW242198   9.443   4.561   2.780 -3.7360 -1.7299 -0.5288
12804SOL     OW42199   1.420   9.584   9.736 -0.0548  0.4633 -0.0359
12804SOL    HW142200   1.512   9.568   9.758 -0.3454 -0.0763  0.8654
12804SOL    HW242201   1.391   9.503   9.693 -0.2020  0.4878  0.0147
12805SOL     OW42202   2.705   5.998  10.024  0.1336 -0.2211 -0.4126
12805SOL    HW142203   2.661   6.032   9.946  0.9700 -0.8441 -1.1885
12805SOL    HW242204   2.639   5.946  10.069 -1.1344  2.2622  0.7380
12806SOL     OW42205   8.374   4.227   3.048 -0.5723  0.1783 -0.3856
12806SOL    HW142206   8.419   4.154   3.005  0.3989  1.4308 -1.5588
12806SOL    HW242207   8.286   4.193   3.066 -0.0682 -1.3650 -0.6391
12807SOL     OW42208   1.350   4.452   8.718  0.5863 -0.2936 -0.2758
12807SOL    HW142209   1.328   4.468   8.626 -0.3324  0.1065 -0.0048
12807SOL    HW242210   1.433   4.497   8.731  0.3250  0.3268 -0.7164
12808SOL     OW42211   4.243   4.145   0.401 -0.8586  0.0142  0.1649
12808SOL    HW142212   4.215   4.101   0.482 -1.2058 -2.1810 -1.0530
12808SOL    HW242213   4.186   4.221   0.394 -1.8125 -0.5647  1.2641
12809SOL     OW42214   7.988   2.990   8.034 -0.1280 -0.6187 -0.3010
12809SOL    HW142215   8.082   3.003   8.035 -0.5281  3.6983 -0.8093
12809SOL    HW242216   7.958   3.029   8.117 -1.6177  1.0521 -1.5447
12810SOL     OW42217   9.137   0.981   9.966 -0.0752  0.1489 -0.5444
12810SOL    HW142218   9.159   0.920   9.896 -0.5696  2.7757 -3.1907
12810SOL    HW242219   9.071   1.039   9.927  0.4702  2.4678  1.7005
12811SOL     OW42220   0.030   4.331   4.539  0.5719  1.0897 -0.3774
12811SOL    HW142221   0.015   4.365   4.627  0.4055  0.3914 -0.1265
12811SOL    HW242222   0.108   4.276   4.548 -0.9405 -1.1393 -0.0350
12812SOL     OW42223   5.317   5.098   8.246  0.0662  0.1866  0.2499
12812SOL    HW142224   5.337   5.137   8.161  0.8353  0.0489  0.3617
12812SOL    HW242225   5.297   5.173   8.303  1.1391  0.3993  0.3590
12813SOL     OW42226   0.316   2.732  10.019  0.0666  0.8069 -0.1069
12813SOL    HW142227   0.406   2.760  10.035  1.5295 -2.2193 -2.1940
12813SOL    HW242228   0.317   2.696   9.931 -2.5855 -1.5267  0.6594
12814SOL     OW42229   6.979   2.571   6.745 -0.0757 -0.0736 -0.0230
12814SOL    HW142230   7.030   2.508   6.796  0.9662  1.3972  0.8413
12814SOL    HW242231   6.928   2.518   6.684  1.3700 -1.6865  0.1095
12815SOL     OW42232   2.223   4.643   9.257 -0.2845 -0.1608 -0.0810
12815SOL    HW142233   2.293   4.708   9.247 -0.6592  0.4471  1.0218
12815SOL    HW242234   2.242   4.576   9.191  1.7040 -0.3424  0.6195
12816SOL     OW42235   7.581   4.480   1.014  0.3577 -0.1545  0.0143
12816SOL    HW142236   7.499   4.452   1.055  1.4864  1.8694  4.1061
12816SOL    HW242237   7.633   4.399   1.006 -1.1708 -1.1144 -0.6631
12817SOL     OW42238   4.241   7.216   0.891  0.6516  0.3235 -0.1645
12817SOL    HW142239   4.202   7.182   0.810  1.0203  2.7788 -1.4574
12817SOL    HW242240   4.306   7.151   0.915  0.3125 -0.6279 -1.6551
12818SOL     OW42241   0.839   4.859   1.402 -0.1613 -0.3553 -0.9873
12818SOL    HW142242   0.772   4.806   1.360 -0.7465  1.1878 -2.0738
12818SOL    HW242243   0.795   4.897   1.478 -0.5810  0.7393 -1.7580
12819SOL     OW42244   7.564   1.503   8.346  0.1127 -0.9717 -0.0968
12819SOL    HW142245   7.497   1.446   8.382 -0.6809 -1.3016 -1.9691
12819SOL    HW242246   7.565   1.483   8.252 -0.3933  2.2555 -0.9089
12820SOL     OW42247   8.879  10.054   7.255  0.0084 -0.3091  0.1289
12820SOL    HW142248   8.822  10.005   7.196 -1.6166 -0.6179  1.8445
12820SOL    HW242249   8.952   9.995   7.272 -0.8248 -1.2855  0.4525
12821SOL     OW42250   8.921   4.754   8.506  0.1455 -0.8226 -0.0448
12821SOL    HW142251   9.007   4.731   8.470  0.0988 -2.0389  0.5549
12821SOL    HW242252   8.860   4.737   8.435  0.0736 -3.0234  0.4830
12822SOL     OW42253   8.060   4.102   6.512 -0.4900 -0.2499 -0.3370
12822SOL    HW142254   8.017   4.176   6.554 -1.2117 -0.0191 -1.4376
12822SOL    HW242255   8.080   4.042   6.584  2.2239  1.9626  0.9418
12823SOL     OW42256   9.400   2.568   3.652  0.5133  0.1383  0.3735
12823SOL    HW142257   9.471   2.508   3.675  0.5051 -0.3768 -0.8759
12823SOL    HW242258   9.345   2.518   3.591  0.0912  1.1560 -0.1010
12824SOL     OW42259   1.113   0.873   9.941 -0.9494 -0.1731  0.3150
12824SOL    HW142260   1.073   0.800   9.894  0.8974 -0.6727 -0.6140
12824SOL    HW242261   1.158   0.923   9.873  1.1922 -0.4960  1.3873
12825SOL     OW42262   7.246   9.346   0.148 -0.1140  0.1326 -0.3595
12825SOL    HW142263   7.318   9.397   0.184 -1.3099  1.8945 -0.3201
12825SOL    HW242264   7.284   9.260   0.130  1.7963  0.7831  0.2972
12826SOL     OW42265   0.307   3.380   8.044 -0.0685 -0.3926 -0.1414
12826SOL    HW142266   0.216   3.402   8.023 -0.3639 -1.2601  0.1420
12826SOL    HW242267   0.307   3.370   8.139  0.2782 -0.5667 -0.1588
12827SOL     OW42268   6.074   0.994   8.480  0.3277 -0.6281  0.2044
12827SOL    HW142269   6.106   1.035   8.561  2.5820 -0.2125 -0.8322
12827SOL    HW242270   6.091   1.059   8.412 -3.4081 -0.1049 -0.4356
12828SOL     OW42271  10.063   3.148   2.887  0.2569  0.6546  0.3218
12828SOL    HW142272  10.014   3.079   2.932  0.3940 -0.2238 -0.8476
12828SOL    HW242273  10.000   3.219   2.875 -0.0865  0.4472  0.8685
12829SOL     OW42274   3.980   7.656   9.688  0.1173 -0.1835  0.4941
12829SOL    HW142275   3.994   7.717   9.616 -0.2184  1.7438  1.9786
12829SOL    HW242276   3.886   7.640   9.688  0.0033  0.4425  0.9552
12830SOL     OW42277   3.174  10.037   0.887  0.6012  0.3377  0.1842
12830SOL    HW142278   3.242  10.093   0.850  1.7588 -0.6474  0.7589
12830SOL    HW242279   3.218   9.988   0.956 -0.2891 -1.4597 -0.4554
12831SOL     OW42280   5.610   2.823   0.751  0.3581  0.2259  0.6575
12831SOL    HW142281   5.515   2.820   0.749  0.2310  0.1185  3.3031
12831SOL    HW242282   5.638   2.748   0.698 -0.9387  0.9528 -1.1502
12832SOL     OW42283   3.377   3.361   7.813 -0.3672 -0.1261 -0.2724
12832SOL    HW142284   3.316   3.303   7.766  1.1585 -1.3654 -0.8152
12832SOL    HW242285   3.413   3.306   7.883  0.7258  0.3246 -0.4628
12833SOL     OW42286   3.962   0.662   6.491 -0.1180  0.3819 -0.7209
12833SOL    HW142287   3.956   0.727   6.561  0.5104 -2.1415  1.8910
12833SOL    HW242288   4.050   0.626   6.499  1.2228  2.0672 -5.0111
12834SOL     OW42289   1.835   1.632   5.143  0.2154  0.0635 -0.1650
12834SOL    HW142290   1.755   1.599   5.182 -0.6699  0.8371 -1.2556
12834SOL    HW242291   1.832   1.727   5.155  0.9695  0.1026 -0.2045
12835SOL     OW42292   1.736   6.603   5.003  0.0889 -0.6542  0.2099
12835SOL    HW142293   1.809   6.624   5.062 -0.3756 -1.9557  1.3008
12835SOL    HW242294   1.695   6.687   4.985  0.8002 -0.1202  0.9970
12836SOL     OW42295   1.660   7.796   6.670 -0.3062  0.0430 -0.7285
12836SOL    HW142296   1.633   7.836   6.587  0.1583  0.3052 -0.7561
12836SOL    HW242297   1.612   7.845   6.736 -1.2873 -0.6865 -0.8845
12837SOL     OW42298   2.870   3.722   5.961 -0.4368  0.2437  0.0780
12837SOL    HW142299   2.830   3.752   5.879  1.9395  0.2221 -1.1817
12837SOL    HW242300   2.840   3.631   5.970 -0.9760  0.3457 -0.6191
12838SOL     OW42301   9.809   7.711   9.582 -0.2787 -0.0044  0.5008
12838SOL    HW142302   9.881   7.648   9.590 -0.0663  0.2975  1.0033
12838SOL    HW242303   9.769   7.712   9.669  0.4985  1.4874  0.8595
12839SOL     OW42304  10.088   2.443   1.075 -0.2255  0.3663  0.2184
12839SOL    HW142305  10.108   2.497   0.999 -1.1374  1.1276  0.4945
12839SOL    HW242306  10.072   2.356   1.039 -0.0603  0.5782 -0.3845
12840SOL     OW42307  10.059   4.033   5.850  0.0415  0.4979  0.1142
12840SOL    HW142308  10.056   4.069   5.762 -1.6395 -0.0443 -0.1011
12840SOL    HW242309  10.021   3.946   5.842  0.6948  0.0825  1.2317
12841SOL     OW42310   8.393   8.724   9.332  0.2587  0.3131 -0.1145
12841SOL    HW142311   8.471   8.670   9.315 -1.8155 -2.4191 -1.9486
12841SOL    HW242312   8.329   8.693   9.268 -2.5454  2.0170  1.6710
12842SOL     OW42313   4.288   0.450   1.833  0.2432  0.4785  0.2339
12842SOL    HW142314   4.318   0.365   1.799  0.2078  0.7760 -0.5635
12842SOL    HW242315   4.356   0.476   1.894  0.7186  0.3016 -0.2113
12843SOL     OW42316  10.323   0.874   2.529 -0.0411 -0.2213 -0.1016
12843SOL    HW142317  10.388   0.941   2.550  0.0892 -0.6785  1.0346
12843SOL    HW242318  10.280   0.906   2.450  1.6753  0.0096 -0.9934
12844SOL     OW42319   0.161   7.230   0.555 -0.1445  0.0614  0.4059
12844SOL    HW142320   0.096   7.282   0.602  0.1051  0.9621 -0.2245
12844SOL    HW242321   0.110   7.164   0.508 -0.5959  0.6885  0.0081
12845SOL     OW42322   0.550   1.788   3.172  0.2774  0.0137 -0.0556
12845SOL    HW142323   0.612   1.861   3.177 -2.3517  2.6308 -2.0402
12845SOL    HW242324   0.565   1.749   3.086  0.3083 -0.4806  0.1705
12846SOL     OW42325   2.413   8.317   4.083 -0.1405 -0.3029  0.0953
12846SOL    HW142326   2.358   8.320   4.005 -0.2970 -0.2595  0.2068
12846SOL    HW242327   2.471   8.242   4.069 -1.1016 -1.1583  0.5502
12847SOL     OW42328   5.865   9.415   0.745  0.1018 -0.3771 -0.7637
12847SOL    HW142329   5.955   9.422   0.712  0.6535  0.6192  0.8674
12847SOL    HW242330   5.855   9.488   0.805 -0.8637 -2.0384  1.2481
12848SOL     OW42331   5.087   3.226   2.422 -0.2591 -0.1042  1.0772
12848SOL    HW142332   5.014   3.212   2.483 -1.4421 -1.4719 -0.5857
12848SOL    HW242333   5.125   3.140   2.409 -0.8965 -0.0895 -1.1466
12849SOL     OW42334   6.991   9.452   3.453  0.1851 -0.4256  0.0352
12849SOL    HW142335   7.067   9.439   3.509  1.1739 -1.8797 -1.5370
12849SOL    HW242336   7.025   9.504   3.379 -0.0346 -1.9071 -1.1674
12850SOL     OW42337   8.602   2.265   6.936 -0.3316  0.2990  0.3952
12850SOL    HW142338   8.661   2.268   6.860 -0.1310  0.0337  0.5379
12850SOL    HW242339   8.652   2.304   7.007 -0.2661 -0.0610  0.5536
12851SOL     OW42340   9.316   6.329   5.152  0.3515 -0.1793 -0.1129
12851SOL    HW142341   9.361   6.349   5.069  0.4408 -0.9192 -0.2444
12851SOL    HW242342   9.259   6.255   5.131 -1.1766  0.9177 -0.0268
12852SOL     OW42343   6.140  10.032   6.570 -0.5363 -0.1316 -0.2522
12852SOL    HW142344   6.194  10.110   6.583  0.7045 -0.9524 -0.3226
12852SOL    HW242345   6.145  10.015   6.476  1.5169 -1.8679  0.1016
12853SOL     OW42346   9.846   2.471   2.023  0.0074 -0.2273 -0.4207
12853SOL    HW142347   9.921   2.414   2.040  0.4499  0.3059 -0.5888
12853SOL    HW242348   9.873   2.524   1.948 -0.4706  0.0943 -0.3654
12854SOL     OW42349   3.836   4.555   4.013 -0.4459 -0.9617  0.2792
12854SOL    HW142350   3.909   4.606   3.979 -1.2769 -0.5155 -0.9013
12854SOL    HW242351   3.761   4.614   4.006 -0.5293 -0.3309  4.0567
12855SOL     OW42352   7.333   3.897   6.868  0.2948 -0.4628  0.5426
12855SOL    HW142353   7.305   3.806   6.858  1.5304 -0.6922 -1.5505
12855SOL    HW242354   7.399   3.909   6.800  0.1957  2.0032  0.7863
12856SOL     OW42355   8.672   9.628   2.447 -0.0003 -0.2074 -0.0628
12856SOL    HW142356   8.608   9.595   2.510  0.8748 -0.8662  0.4995
12856SOL    HW242357   8.702   9.710   2.484  0.6632 -0.6935  0.4993
12857SOL     OW42358   4.657   8.461   3.523 -0.1285  0.4169 -0.4099
12857SOL    HW142359   4.700   8.378   3.544 -1.3976 -0.3477 -0.7505
12857SOL    HW242360   4.626   8.494   3.607 -0.6765 -0.0707 -0.4126
12858SOL     OW42361   5.661   7.054   8.052  0.1680  0.0133 -0.0210
12858SOL    HW142362   5.698   7.033   7.966  0.7340 -0.8977  0.4316
12858SOL    HW242363   5.727   7.112   8.092  0.5381 -0.6332  0.3126
12859SOL     OW42364   2.682   3.622   6.663 -0.4501  0.3150 -0.3867
12859SOL    HW142365   2.626   3.645   6.589 -0.4667  1.5435 -0.0042
12859SOL    HW242366   2.623   3.585   6.728 -0.1474 -3.1717 -1.8643
12860SOL     OW42367   3.431  10.330   3.724  0.3688  0.4955  0.2458
12860SOL    HW142368   3.452  10.398   3.789  0.9353  1.1155 -0.5693
12860SOL    HW242369   3.474  10.251   3.758  0.5636  0.7867  0.6902
12861SOL     OW42370   5.423   9.222   3.045 -0.0715 -0.3326  0.1138
12861SOL    HW142371   5.352   9.236   2.982 -0.4506 -0.4076  0.5125
12861SOL    HW242372   5.381   9.173   3.116  0.5348 -0.9218  0.0685
12862SOL     OW42373   7.816   0.796   7.963 -0.5904 -0.2923  0.8101
12862SOL    HW142374   7.753   0.821   7.895  0.0757 -1.0327 -0.0991
12862SOL    HW242375   7.830   0.876   8.013 -0.5770  0.4442 -0.3437
12863SOL     OW42376   1.976   3.050   4.842 -0.1779 -0.0535  0.3109
12863SOL    HW142377   1.897   3.072   4.793 -0.3718  2.0535  1.4712
12863SOL    HW242378   2.014   2.975   4.795 -1.7760  0.1781 -1.4261
12864SOL     OW42379   0.235   1.142   0.048  0.6019  0.4313  0.1185
12864SOL    HW142380   0.231   1.059   0.095 -0.8266  0.7461  0.6176
12864SOL    HW242381   0.208   1.121  -0.041 -0.2751  0.4086  0.3705
12865SOL     OW42382   1.793   8.653   4.676  0.2572  0.1568 -0.2506
12865SOL    HW142383   1.770   8.605   4.756  2.6937 -1.3515 -0.3571
12865SOL    HW242384   1.816   8.584   4.613 -0.1892  1.3784 -1.8170
12866SOL     OW42385   6.251  10.301   8.267 -0.1542 -0.1811  0.2859
12866SOL    HW142386   6.160  10.322   8.286 -0.3675 -0.3503 -0.5153
12866SOL    HW242387   6.292  10.386   8.251  0.2859  0.0743  2.4606
12867SOL     OW42388   7.953   9.133   0.540 -0.4177  0.3965  0.0420
12867SOL    HW142389   7.872   9.089   0.517 -0.9450  1.1802  0.3353
12867SOL    HW242390   7.956   9.210   0.483 -1.2021  1.7707  1.7366
12868SOL     OW42391   5.859   8.766   8.330 -0.2917  0.4403  0.2725
12868SOL    HW142392   5.784   8.709   8.348  0.1363  0.0578  0.8782
12868SOL    HW242393   5.825   8.855   8.340 -1.1180  0.3411 -1.2366
12869SOL     OW42394   3.409   9.385   2.094  0.9291 -0.0838  0.9169
12869SOL    HW142395   3.475   9.393   2.025  0.1376 -0.7886  0.0488
12869SOL    HW242396   3.411   9.293   2.119 -0.3679 -0.3392  0.1907
12870SOL     OW42397   1.890  10.060   2.106  0.3896 -0.7885 -0.2198
12870SOL    HW142398   1.896  10.093   2.196  1.0967 -1.3000 -0.0658
12870SOL    HW242399   1.895  10.139   2.051  0.0978 -0.4852  0.1814
12871SOL     OW42400   8.482   9.706   2.180 -0.0968  0.3889  0.3100
12871SOL    HW142401   8.514   9.786   2.138 -0.7734  0.6041  0.1814
12871SOL    HW242402   8.551   9.641   2.165 -0.6834  0.2106 -1.8967
12872SOL     OW42403   0.536   0.658   6.586  0.2379  0.9069 -0.5161
12872SOL    HW142404   0.467   0.685   6.647 -0.2229  1.4670 -1.2622
12872SOL    HW242405   0.552   0.566   6.607 -1.6602  0.3796 -1.1646
12873SOL     OW42406   1.075   4.195   9.641 -0.0221 -0.2481 -0.5545
12873SOL    HW142407   1.004   4.212   9.578  0.3301  2.6143 -0.3209
12873SOL    HW242408   1.039   4.221   9.725  1.0037  0.4360 -0.3081
12874SOL     OW42409   2.926   4.528   8.421 -0.0493  0.2019  0.0898
12874SOL    HW142410   2.986   4.560   8.489  0.9950  2.0690 -1.5902
12874SOL    HW242411   2.970   4.452   8.384  0.9256  1.0443 -0.5453
12875SOL     OW42412   2.114   2.869   5.682 -0.1929  0.2578  0.2119
12875SOL    HW142413   2.065   2.951   5.683 -1.9835 -0.7599  0.7012
12875SOL    HW242414   2.114   2.840   5.774 -0.8643 -0.9811 -0.1543
12876SOL     OW42415   6.054   2.374   4.756  0.1074  0.8164  0.3231
12876SOL    HW142416   6.121   2.310   4.736  0.7170  1.6033 -0.2266
12876SOL    HW242417   6.073   2.448   4.698 -0.9541  1.2423  0.4833
12877SOL     OW42418   4.618   7.788   2.896  0.3384  0.1400  0.3795
12877SOL    HW142419   4.527   7.787   2.866  1.0565  2.4766 -2.3397
12877SOL    HW242420   4.653   7.703   2.870 -0.3847  0.2746 -1.1439
12878SOL     OW42421  10.103   3.938   9.868  0.1413  0.3649  0.0985
12878SOL    HW142422  10.033   3.999   9.892 -0.1664  0.0817 -0.0625
12878SOL    HW242423  10.062   3.879   9.805  0.7204  0.6152 -0.5270
12879SOL     OW42424   9.072   8.473   2.979  0.5430 -0.5875 -0.5511
12879SOL    HW142425   9.014   8.514   2.915 -0.2767 -1.2715 -0.2692
12879SOL    HW242426   9.150   8.529   2.981 -0.1055  0.3519 -0.9402
12880SOL     OW42427   9.365   9.274   2.594  0.1083 -0.2682  0.2388
12880SOL    HW142428   9.319   9.353   2.624 -1.0440 -0.9544  0.3545
12880SOL    HW242429   9.389   9.228   2.674  1.5980  0.4015  0.1913
12881SOL     OW42430   0.425   7.384   2.449  0.3369 -0.0806 -0.8196
12881SOL    HW142431   0.399   7.409   2.360 -1.5801  0.4364 -0.1641
12881SOL    HW242432   0.468   7.299   2.439 -0.3258 -0.2784 -2.1819
12882SOL     OW42433   3.699   0.301   9.220 -0.3024 -0.1089 -0.8403
12882SOL    HW142434   3.741   0.372   9.268 -1.9250  0.7245 -0.5930
12882SOL    HW242435   3.667   0.241   9.287  0.4646 -0.7414 -1.0260
12883SOL     OW42436   1.969   8.751   3.488 -0.5905  0.1633 -0.3886
12883SOL    HW142437   1.912   8.701   3.546 -0.9143  1.7790  0.7791
12883SOL    HW242438   2.013   8.686   3.434 -0.2099 -1.4736  1.7447
12884SOL     OW42439   9.530   0.479   4.219  0.0049 -0.0376 -0.2163
12884SOL    HW142440   9.584   0.402   4.240  0.1102  0.2731  0.7033
12884SOL    HW242441   9.588   0.553   4.230  0.0569  0.1595 -1.6571
12885SOL     OW42442   8.351  10.094  10.049  0.2616  0.2420  0.2878
12885SOL    HW142443   8.384  10.107  10.138  1.5630 -0.9667  0.0056
12885SOL    HW242444   8.337  10.000  10.042 -1.7318  0.5307 -0.1616
12886SOL     OW42445   7.941   7.772   3.441 -0.7169  0.0655  0.1421
12886SOL    HW142446   7.915   7.736   3.356  0.3343 -0.3822 -0.0143
12886SOL    HW242447   7.917   7.704   3.504  0.5229 -0.6009 -0.0647
12887SOL     OW42448   2.370  10.357   7.595 -0.0886 -0.4266 -0.4250
12887SOL    HW142449   2.283  10.353   7.635 -0.1147 -1.3893 -0.5706
12887SOL    HW242450   2.420  10.288   7.639  0.9673  0.8552  0.4884
12888SOL     OW42451   7.571   9.127   2.091 -0.1050  0.2254  0.4869
12888SOL    HW142452   7.504   9.163   2.149  0.9561  1.0394  1.2287
12888SOL    HW242453   7.592   9.199   2.032  0.5716  0.1734  0.6650
12889SOL     OW42454   3.549   2.402   0.949 -0.1076  0.3594  0.1269
12889SOL    HW142455   3.544   2.411   1.044 -2.2516 -0.9442  0.2125
12889SOL    HW242456   3.477   2.457   0.916  0.1755  0.2489 -0.7095
12890SOL     OW42457   3.999   7.576   8.421  0.7209  0.5615  0.4586
12890SOL    HW142458   3.918   7.531   8.441  1.9555 -1.5505  1.0437
12890SOL    HW242459   3.991   7.661   8.465 -2.0988  1.4537 -1.5577
12891SOL     OW42460   7.956   0.364   3.203 -0.5457 -0.0251 -0.2475
12891SOL    HW142461   7.941   0.363   3.109 -0.4793  0.7649 -0.2780
12891SOL    HW242462   8.050   0.382   3.213 -0.4110 -0.8087 -0.0302
12892SOL     OW42463   5.330   8.647   3.224 -0.6677  0.5913  0.5436
12892SOL    HW142464   5.263   8.641   3.292  0.7409 -1.8062  1.8423
12892SOL    HW242465   5.335   8.559   3.187  0.8820  1.0289 -0.3881
12893SOL     OW42466   8.204   2.760   3.223 -0.1083 -0.4424  0.1488
12893SOL    HW142467   8.214   2.696   3.294  0.0774 -0.6609 -0.0715
12893SOL    HW242468   8.124   2.807   3.245  0.0606 -0.3643  0.6177
12894SOL     OW42469   7.328   5.090   6.548 -0.4406 -0.3088  0.4236
12894SOL    HW142470   7.307   5.112   6.457  0.9828  1.3529  0.4388
12894SOL    HW242471   7.243   5.072   6.589 -0.9622 -3.6632 -1.7597
12895SOL     OW42472   3.765   7.758   1.312 -0.2562 -0.0613 -0.6078
12895SOL    HW142473   3.837   7.784   1.254 -0.6759  1.3223 -0.5552
12895SOL    HW242474   3.719   7.689   1.264  0.9563 -0.8166 -0.7397
12896SOL     OW42475   2.629   3.281   1.166 -0.1477 -0.6440  0.1479
12896SOL    HW142476   2.661   3.263   1.078 -0.7685  1.4762 -0.5783
12896SOL    HW242477   2.647   3.201   1.215  2.0801 -1.1637 -1.3662
12897SOL     OW42478   4.532   7.562   7.560 -0.1145  0.1542 -0.1479
12897SOL    HW142479   4.592   7.501   7.603 -0.3392  0.3706  0.4947
12897SOL    HW242480   4.561   7.649   7.589  0.3105  0.3796 -1.1929
12898SOL     OW42481   3.123   2.251   9.502  0.2705  0.1257  0.6255
12898SOL    HW142482   3.152   2.164   9.528  0.4075  0.4996  1.7684
12898SOL    HW242483   3.199   2.307   9.516  1.6287 -0.1524 -3.9949
12899SOL     OW42484   7.567   7.837  10.192 -0.5725 -0.6116  0.1487
12899SOL    HW142485   7.599   7.870  10.108  1.0776  0.4304  1.1319
12899SOL    HW242486   7.588   7.744  10.190  1.3739 -0.2175  0.1896
12900SOL     OW42487   1.924   1.949  10.032  0.1058  0.0775 -0.0644
12900SOL    HW142488   1.896   1.973   9.944  3.0176  1.8014 -0.6775
12900SOL    HW242489   1.939   1.854  10.028 -0.8119 -0.0376 -1.0679
12901SOL     OW42490   0.810   7.304   2.857 -1.0031 -0.0362  0.0700
12901SOL    HW142491   0.833   7.222   2.814  0.1356 -0.8024  2.0207
12901SOL    HW242492   0.888   7.359   2.849 -0.4621 -0.4904  1.7614
12902SOL     OW42493   0.185   4.462   8.437 -0.1342  0.0944 -0.7298
12902SOL    HW142494   0.179   4.414   8.354  0.5403  0.0139 -0.7331
12902SOL    HW242495   0.103   4.440   8.483 -0.0849 -0.6197 -0.9680
12903SOL     OW42496   5.563   1.823   4.216 -0.6959  0.0173 -0.1637
12903SOL    HW142497   5.491   1.883   4.237 -0.5674  0.0839  0.0884
12903SOL    HW242498   5.642   1.874   4.233 -0.5784 -0.4218  0.6207
12904SOL     OW42499   7.669   6.990   5.149 -0.3525 -0.6738  0.3742
12904SOL    HW142500   7.642   7.074   5.110 -0.2473 -1.3019 -1.1039
12904SOL    HW242501   7.743   6.962   5.096  0.0386 -1.4063  1.2796
12905SOL     OW42502   2.681   8.327   3.888  0.1338 -0.0005  0.1316
12905SOL    HW142503   2.744   8.375   3.942  1.6602  0.3614 -1.8525
12905SOL    HW242504   2.649   8.257   3.945  1.3691  0.5873  1.6104
12906SOL     OW42505   6.716   8.711   2.606  0.4336 -0.0899 -0.0672
12906SOL    HW142506   6.705   8.618   2.624 -0.4842  0.3001  1.5335
12906SOL    HW242507   6.810   8.722   2.592  0.5100 -1.2950 -0.6614
12907SOL     OW42508   5.431   5.233   7.999  0.2242 -0.6495  0.8812
12907SOL    HW142509   5.456   5.325   7.993  0.3760 -0.5890  2.2364
12907SOL    HW242510   5.351   5.227   7.946  0.3464  0.2008  0.5765
12908SOL     OW42511   7.490   9.655   3.518 -0.1258 -0.2130 -0.0323
12908SOL    HW142512   7.420   9.677   3.456  1.5871  0.4927 -1.8040
12908SOL    HW242513   7.517   9.567   3.494  1.1930  0.4213 -0.9727
12909SOL     OW42514   9.114   6.152   7.371 -0.0866 -0.0817  0.0351
12909SOL    HW142515   9.170   6.074   7.370 -1.3450 -1.0473 -2.3555
12909SOL    HW242516   9.037   6.126   7.420 -0.1819 -0.0972 -0.1223
12910SOL     OW42517   5.394   0.291   0.558 -0.0561  0.2035  0.3411
12910SOL    HW142518   5.452   0.245   0.619 -1.2579 -2.9371 -0.6336
12910SOL    HW242519   5.445   0.297   0.477 -0.0494  0.1018  0.3365
12911SOL     OW42520   2.089   7.300   0.780  0.1164 -0.2176  0.5100
12911SOL    HW142521   2.100   7.226   0.720  0.6423  0.6661 -0.5340
12911SOL    HW242522   2.136   7.274   0.859  1.2463 -0.5614 -0.2497
12912SOL     OW42523   6.849   5.529   4.269 -0.0699 -0.0351  0.0280
12912SOL    HW142524   6.812   5.539   4.181 -0.0265  1.5748  0.1608
12912SOL    HW242525   6.832   5.438   4.292 -0.7151 -0.2944 -1.3600
12913SOL     OW42526   1.618   6.337   4.085 -0.1911 -0.4129  0.0840
12913SOL    HW142527   1.597   6.246   4.063  0.3779 -0.7904  1.0742
12913SOL    HW242528   1.611   6.383   4.001 -0.9588 -1.2694 -0.3493
12914SOL     OW42529   6.423   1.971   5.107 -0.2470 -0.5398 -0.1443
12914SOL    HW142530   6.494   2.017   5.062 -0.0275 -0.5785  0.1594
12914SOL    HW242531   6.426   2.003   5.197  0.1908 -1.4529  0.1828
12915SOL     OW42532   7.881   4.043   0.172 -0.2066 -0.0582  0.0767
12915SOL    HW142533   7.970   4.079   0.170 -0.3283  0.2586 -1.7265
12915SOL    HW242534   7.836   4.094   0.239  0.6706  0.5068  0.2599
12916SOL     OW42535   5.104   0.754   6.645 -0.0223 -0.1715  0.1278
12916SOL    HW142536   5.159   0.728   6.572 -0.0263 -0.2375  0.1479
12916SOL    HW242537   5.065   0.672   6.676  0.3707 -0.2156  0.5241
12917SOL     OW42538   7.032  10.109   6.910 -0.5435 -0.8269  0.4271
12917SOL    HW142539   7.082  10.112   6.992 -0.3251 -1.4788  0.3258
12917SOL    HW242540   6.983  10.191   6.909 -1.2196 -1.1907  1.6266
12918SOL     OW42541   6.372   6.305   3.671 -0.5570 -0.2272  0.1263
12918SOL    HW142542   6.438   6.239   3.649 -0.2607  0.8185 -2.6678
12918SOL    HW242543   6.288   6.263   3.655 -0.5865 -1.1190  2.3208
12919SOL     OW42544   4.333   3.949   9.408 -0.2109 -0.6250 -0.3715
12919SOL    HW142545   4.385   3.871   9.390 -0.8383 -0.6915 -2.0320
12919SOL    HW242546   4.243   3.918   9.412 -0.7283  0.2064 -3.1357
12920SOL     OW42547   9.877   1.111   1.179  0.4962  0.4602  1.1344
12920SOL    HW142548   9.827   1.034   1.152 -0.2556  2.1648 -2.9668
12920SOL    HW242549   9.811   1.179   1.191  1.4869  1.9537 -1.3280
12921SOL     OW42550   0.501   4.696   4.528 -0.3161  0.5657 -0.0443
12921SOL    HW142551   0.421   4.666   4.485 -0.5375 -0.1402  0.8404
12921SOL    HW242552   0.471   4.737   4.609  0.1059  1.8170 -0.4837
12922SOL     OW42553   4.967   8.714   9.891 -0.0812  0.8956  0.2849
12922SOL    HW142554   5.018   8.704   9.971  1.4810  1.1559 -0.6343
12922SOL    HW242555   4.939   8.626   9.868 -0.7223  0.8462  1.2134
12923SOL     OW42556   0.527   4.911   9.930 -0.5297 -0.1006 -0.1402
12923SOL    HW142557   0.524   5.006   9.943 -0.6394  0.1481 -1.8241
12923SOL    HW242558   0.618   4.887   9.948 -0.8709  0.0091  2.0321
12924SOL     OW42559   2.608   0.012   3.876  0.2837 -0.1333 -0.1535
12924SOL    HW142560   2.608   0.081   3.942  2.1607  1.5284 -1.7603
12924SOL    HW242561   2.549   0.044   3.807 -0.4912 -1.1580  0.0061
12925SOL     OW42562   3.377   1.497   8.666  0.4260 -0.2733  0.0882
12925SOL    HW142563   3.460   1.497   8.713  0.9456 -0.3124 -0.8085
12925SOL    HW242564   3.399   1.525   8.577 -0.6344  0.4581  0.0311
12926SOL     OW42565   0.679   9.131   0.686 -0.2041 -0.4284  0.6339
12926SOL    HW142566   0.627   9.211   0.692 -0.0494 -0.4288  2.5797
12926SOL    HW242567   0.681   9.111   0.592 -0.3926  1.7304  0.1158
12927SOL     OW42568   1.469   8.480   6.907 -0.4464 -0.3174 -1.0193
12927SOL    HW142569   1.555   8.518   6.889 -0.5339 -0.2551 -1.3149
12927SOL    HW242570   1.456   8.493   7.001 -1.0820  1.6357 -1.3308
12928SOL     OW42571   5.862   0.079   0.457  0.1337  0.1281 -0.2887
12928SOL    HW142572   5.952   0.054   0.438  0.3864  0.8383 -0.0695
12928SOL    HW242573   5.837   0.135   0.383 -0.5059 -0.9277 -0.9003
12929SOL     OW42574   1.250   0.871   5.405 -0.0409  0.2313 -0.0631
12929SOL    HW142575   1.340   0.840   5.394 -0.5279 -1.7751  1.1651
12929SOL    HW242576   1.233   0.864   5.499 -1.5821  0.2725 -0.3050
12930SOL     OW42577   6.187   2.350   0.354 -0.3163 -0.5046  0.1819
12930SOL    HW142578   6.228   2.335   0.439 -0.3294  0.5993  0.4045
12930SOL    HW242579   6.260   2.360   0.293 -0.2777 -0.2232  0.2705
12931SOL     OW42580   6.248   1.404   5.856 -0.0806 -0.0877 -0.0684
12931SOL    HW142581   6.331   1.416   5.902  0.1762 -0.2001 -0.5000
12931SOL    HW242582   6.271   1.355   5.777 -0.2629  1.4749 -1.1336
12932SOL     OW42583   7.618   6.785   2.903  0.3598  0.5772  0.1923
12932SOL    HW142584   7.542   6.727   2.892  0.4016  0.3424  1.0441
12932SOL    HW242585   7.640   6.814   2.815  0.2906 -0.6576 -0.2418
12933SOL     OW42586   2.385   2.861   5.604 -0.4818 -0.0003 -0.1103
12933SOL    HW142587   2.399   2.905   5.688  0.9388  1.2219 -0.9402
12933SOL    HW242588   2.291   2.842   5.602 -0.4043 -0.9701  2.1613
12934SOL     OW42589   2.610   2.713   5.192  0.2592  0.1722  0.2487
12934SOL    HW142590   2.587   2.627   5.158 -0.5408  0.7967 -0.8578
12934SOL    HW242591   2.705   2.717   5.186  0.1899  0.0093 -1.3600
12935SOL     OW42592   3.836   1.793   5.859 -0.3959 -0.0581  0.3099
12935SOL    HW142593   3.792   1.862   5.808 -1.6160  0.2079  1.6540
12935SOL    HW242594   3.790   1.792   5.942  1.0094 -1.0594  1.1167
12936SOL     OW42595   0.485   3.123   3.445 -0.1952  0.6623 -0.5002
12936SOL    HW142596   0.578   3.112   3.425 -0.0803  2.0518 -0.8745
12936SOL    HW242597   0.471   3.218   3.438 -2.2190  0.2887 -3.0946
12937SOL     OW42598   7.729   7.776   8.770 -0.0804 -0.7483  0.3417
12937SOL    HW142599   7.648   7.756   8.723  0.6803  1.3684 -2.1586
12937SOL    HW242600   7.781   7.696   8.763 -1.8371 -2.0946  1.8841
12938SOL     OW42601   1.412   9.875   6.009 -0.0316  0.0550  0.2766
12938SOL    HW142602   1.344   9.939   6.030  0.0549  0.5532 -0.8699
12938SOL    HW242603   1.382   9.794   6.049 -0.2508  0.7479  1.5799
12939SOL     OW42604   6.870   5.502   6.149 -0.2152  0.0964 -0.1033
12939SOL    HW142605   6.802   5.545   6.096 -1.2751 -1.2739  0.0858
12939SOL    HW242606   6.934   5.472   6.085  0.2254  1.3799 -0.2893
12940SOL     OW42607   8.593   0.642   2.859  0.3783  0.1388  0.7101
12940SOL    HW142608   8.549   0.727   2.859  0.3263  0.1168  0.0161
12940SOL    HW242609   8.598   0.617   2.951 -0.9663  0.1942  0.8136
12941SOL     OW42610   5.763   8.576   0.745  0.7865 -0.2532  0.5593
12941SOL    HW142611   5.843   8.591   0.794  0.1528  2.1181  0.9655
12941SOL    HW242612   5.694   8.614   0.799 -0.2812  0.0247 -0.9324
12942SOL     OW42613   1.890   8.435  10.055 -0.1441  0.1194  0.2266
12942SOL    HW142614   1.934   8.350  10.053  0.5840  0.4570  0.9767
12942SOL    HW242615   1.898   8.467   9.966  1.5185  0.3267  0.4027
12943SOL     OW42616   3.973   8.911   2.389  0.0403  0.4064  0.1381
12943SOL    HW142617   3.913   8.846   2.354 -1.2149  0.8960  1.2859
12943SOL    HW242618   3.924   8.953   2.461  1.3600  1.5599  0.4125
12944SOL     OW42619   7.993   3.454   8.499  0.2086 -0.4075  0.1161
12944SOL    HW142620   7.975   3.461   8.405  2.0611  0.0139 -0.2481
12944SOL    HW242621   8.001   3.545   8.528 -0.2238 -0.5425  0.6713
12945SOL     OW42622   3.009   3.614   3.684 -0.2012  0.5598  0.1595
12945SOL    HW142623   3.002   3.567   3.601  1.2239  0.1221  0.2655
12945SOL    HW242624   2.966   3.557   3.748 -0.1741  0.3022 -0.0538
12946SOL     OW42625   6.968   0.145  10.103 -0.5301  0.0316  0.1580
12946SOL    HW142626   6.964   0.238  10.078 -0.6303 -0.0604 -0.1749
12946SOL    HW242627   7.062   0.128  10.116 -0.3890 -0.1103 -0.9269
12947SOL     OW42628   1.428   7.253   0.660  0.3483 -0.0510 -0.0022
12947SOL    HW142629   1.369   7.225   0.590  1.5363 -2.1105 -0.2629
12947SOL    HW242630   1.369   7.284   0.729 -0.9389 -0.1599 -0.9902
12948SOL     OW42631   6.591   5.167   1.119 -0.7840 -0.2282  0.1550
12948SOL    HW142632   6.648   5.140   1.048 -2.6051  0.5722 -1.6981
12948SOL    HW242633   6.557   5.086   1.155  0.1376 -0.6371  0.1294
12949SOL     OW42634  10.301   8.267   6.965 -0.3063 -0.2628  0.5417
12949SOL    HW142635  10.313   8.246   7.058 -0.2640 -0.4957  0.4849
12949SOL    HW242636  10.318   8.361   6.959 -4.7247  0.8151  1.5855
12950SOL     OW42637   5.437   5.387   5.661  0.6999  0.0160 -0.1034
12950SOL    HW142638   5.488   5.322   5.612  0.3278  1.4546 -2.5997
12950SOL    HW242639   5.348   5.377   5.628  0.4504  1.1060  0.1887
12951SOL     OW42640   8.170   1.002   7.614  0.3231  0.3049  0.0918
12951SOL    HW142641   8.261   0.973   7.604 -0.0481 -0.6737 -0.6231
12951SOL    HW242642   8.159   1.068   7.546  0.2419 -0.2344 -0.4232
12952SOL     OW42643   1.858   4.860   8.948  0.0343 -1.0069  0.0803
12952SOL    HW142644   1.886   4.925   9.014 -0.3241 -0.7267 -0.0395
12952SOL    HW242645   1.904   4.885   8.869 -0.7542 -0.3659 -0.1958
12953SOL     OW42646   7.534   5.943   7.633 -0.1274  0.1232  0.2158
12953SOL    HW142647   7.546   5.973   7.722 -0.6908 -0.7671  0.6100
12953SOL    HW242648   7.557   5.850   7.636 -1.9490 -0.3748 -0.1271
12954SOL     OW42649   9.470   4.604   6.532 -0.3608 -0.6027  0.0759
12954SOL    HW142650   9.523   4.682   6.544  0.3017 -0.9992 -0.2363
12954SOL    HW242651   9.388   4.623   6.578 -0.0511  0.1118  0.3375
12955SOL     OW42652   3.988   6.597   4.735 -0.0222  0.1594 -0.0874
12955SOL    HW142653   4.009   6.587   4.828 -1.8836  0.5511  0.4202
12955SOL    HW242654   3.930   6.523   4.715 -0.8001  0.8625 -0.5256
12956SOL     OW42655  10.326   7.557   4.590  0.0316 -0.0968 -0.2148
12956SOL    HW142656  10.385   7.617   4.545 -0.5519  0.2515 -0.5343
12956SOL    HW242657  10.239   7.593   4.574 -0.1260  1.4432  3.2094
12957SOL     OW42658   3.605   2.923   5.650 -0.6125 -0.0269 -0.1661
12957SOL    HW142659   3.545   2.947   5.579 -0.8103 -1.2745 -0.4468
12957SOL    HW242660   3.548   2.898   5.722 -0.4187 -0.1228 -0.0460
12958SOL     OW42661   4.724   3.902   5.770 -0.3351  0.2510  0.2202
12958SOL    HW142662   4.700   3.834   5.833 -1.2783  0.0782 -0.3006
12958SOL    HW242663   4.710   3.861   5.684  1.5122  0.2792 -0.1317
12959SOL     OW42664   8.646   5.917   3.646 -0.5327  0.0540 -0.2923
12959SOL    HW142665   8.617   5.840   3.695 -0.5960  0.3366  0.1152
12959SOL    HW242666   8.705   5.963   3.705  0.8437 -0.5555 -1.1408
12960SOL     OW42667   3.953   8.398   0.468 -0.6468 -0.4334 -0.0404
12960SOL    HW142668   4.017   8.462   0.500 -2.1635  1.1350  0.0513
12960SOL    HW242669   3.985   8.374   0.381 -0.0919  0.5736 -0.1354
12961SOL     OW42670   6.070   9.197   2.961 -0.4259  0.4071  0.2351
12961SOL    HW142671   6.018   9.132   2.915  0.3109  0.8085 -1.2176
12961SOL    HW242672   6.009   9.238   3.023 -1.4256 -0.1809 -0.3527
12962SOL     OW42673   6.562   2.215   5.279  0.0178  0.0524  0.3499
12962SOL    HW142674   6.574   2.136   5.331  1.1199  1.6009  2.5892
12962SOL    HW242675   6.651   2.238   5.250 -0.2893  0.4913 -0.2627
12963SOL     OW42676   8.096   8.872   4.619 -0.0703 -0.3581 -0.3495
12963SOL    HW142677   8.129   8.956   4.586 -0.3133  1.1248  2.8599
12963SOL    HW242678   8.002   8.876   4.606 -0.2487  0.5302  1.0518
12964SOL     OW42679   2.322   1.235   2.201 -0.1895 -0.3244  0.0620
12964SOL    HW142680   2.340   1.325   2.230 -0.8382  0.2956 -1.3792
12964SOL    HW242681   2.326   1.239   2.106 -1.8724 -1.4638 -0.0959
12965SOL     OW42682   6.993   9.943   1.572 -0.3017 -0.3509  0.0649
12965SOL    HW142683   6.908   9.967   1.537  0.4699  1.3227 -0.7682
12965SOL    HW242684   7.018  10.016   1.628  0.3921 -1.0318  0.6717
12966SOL     OW42685   0.260   6.584   5.529  0.1166  0.1445 -0.1264
12966SOL    HW142686   0.328   6.646   5.554 -0.2484  0.7432 -0.5885
12966SOL    HW242687   0.249   6.529   5.607  1.4619 -0.2833 -0.2144
12967SOL     OW42688   6.358   1.606   4.723 -0.3277  0.4228  0.3308
12967SOL    HW142689   6.272   1.644   4.743 -0.1615  0.3131  1.2750
12967SOL    HW242690   6.418   1.681   4.723 -0.5786  0.6967 -1.5359
12968SOL     OW42691   3.809   3.633   0.793 -0.3308 -0.5221 -0.2539
12968SOL    HW142692   3.843   3.544   0.800  0.8015 -0.2396 -1.6314
12968SOL    HW242693   3.856   3.683   0.859 -0.9501 -0.9271  0.5031
12969SOL     OW42694   9.352   3.059   1.033 -0.1636 -0.3850  0.6243
12969SOL    HW142695   9.332   3.012   0.953  0.3977 -0.5574  0.5829
12969SOL    HW242696   9.303   3.141   1.025  1.4857  0.5035 -0.8333
12970SOL     OW42697   7.587   5.520   4.002  0.4171  0.1393  0.8752
12970SOL    HW142698   7.533   5.529   4.081  1.3629 -1.7056  1.7843
12970SOL    HW242699   7.677   5.514   4.035  1.0892  1.7550 -0.5219
12971SOL     OW42700   0.912   7.059   6.749 -0.0584  0.2002  0.1680
12971SOL    HW142701   0.832   7.111   6.756 -0.5596 -0.6046  0.4808
12971SOL    HW242702   0.915   7.030   6.658  0.3974  1.0281 -0.0966
12972SOL     OW42703   0.488   0.548   1.215  0.6908  0.1536 -0.1448
12972SOL    HW142704   0.498   0.453   1.210  3.3223  0.3818 -0.1316
12972SOL    HW242705   0.522   0.580   1.131  0.8503  1.1632  0.2965
12973SOL     OW42706   0.097   6.499   1.726 -0.1090  0.3673  0.2164
12973SOL    HW142707   0.047   6.514   1.645  0.3997 -1.6595 -0.5405
12973SOL    HW242708   0.053   6.553   1.791 -1.7903  0.5266 -0.9632
12974SOL     OW42709  10.121   3.231   8.872  0.2225 -0.8120  0.1496
12974SOL    HW142710  10.075   3.158   8.913  1.5538 -1.9741 -0.3634
12974SOL    HW242711  10.052   3.297   8.857 -0.6577 -1.1579  2.3298
12975SOL     OW42712  10.008   6.270   6.597 -0.0013 -0.1494 -0.4247
12975SOL    HW142713  10.096   6.240   6.621  0.2579  0.4351 -0.6326
12975SOL    HW242714   9.968   6.195   6.553  0.2864 -0.5152 -0.0680
12976SOL     OW42715   1.015   6.100   3.782 -0.0055 -0.3704 -0.6217
12976SOL    HW142716   0.956   6.032   3.813 -0.1856  0.5392  1.1540
12976SOL    HW242717   0.961   6.180   3.783  0.8100  0.1891 -0.5110
12977SOL     OW42718   3.848   5.342  10.199 -0.4991 -0.5013 -0.0480
12977SOL    HW142719   3.853   5.295  10.116  2.0729 -0.7111  0.1216
12977SOL    HW242720   3.940   5.357  10.223 -1.1899  1.1271  1.8789
12978SOL     OW42721   9.366   1.508   8.197  0.2359  0.6517 -0.7132
12978SOL    HW142722   9.340   1.519   8.289  1.2663 -1.1760 -0.1488
12978SOL    HW242723   9.415   1.587   8.176  0.7240  0.7178  0.5865
12979SOL     OW42724   6.064   8.834   1.498  0.0334  0.4927  0.5608
12979SOL    HW142725   6.045   8.902   1.433 -0.9243  0.8984  1.2391
12979SOL    HW242726   6.061   8.880   1.582 -3.1169 -0.7609  1.2828
12980SOL     OW42727   4.133   9.989   1.765 -0.1263  0.4494 -0.0378
12980SOL    HW142728   4.079   9.918   1.732 -0.4744  1.7949 -2.6535
12980SOL    HW242729   4.210   9.946   1.802  0.1342 -1.2987 -2.3958
12981SOL     OW42730   2.916   5.728   8.508 -0.4392  0.3689  0.3322
12981SOL    HW142731   2.841   5.670   8.494 -0.7190  0.7449  0.2388
12981SOL    HW242732   2.877   5.809   8.541  0.0051  0.2940  1.0547
12982SOL     OW42733   4.296   3.813   0.182 -0.4611  0.1846 -0.6414
12982SOL    HW142734   4.215   3.806   0.232 -0.9868  1.2836 -1.2956
12982SOL    HW242735   4.341   3.729   0.196 -1.7321 -0.4586 -0.3155
12983SOL     OW42736   2.598   1.786   1.655  0.3405 -0.4678  0.2057
12983SOL    HW142737   2.528   1.730   1.688  0.4407 -0.8499 -0.2062
12983SOL    HW242738   2.677   1.733   1.666  0.2645 -0.9986 -1.4816
12984SOL     OW42739   2.026   8.708   5.615 -0.0290 -0.5545  0.1255
12984SOL    HW142740   2.010   8.791   5.660 -0.7028  0.0130 -1.1385
12984SOL    HW242741   2.109   8.722   5.568 -0.6366 -0.2370 -0.8784
12985SOL     OW42742   1.125   1.405   7.885 -0.2503  0.5171 -0.6132
12985SOL    HW142743   1.076   1.383   7.964  0.1669 -2.4180 -1.0698
12985SOL    HW242744   1.216   1.415   7.915 -0.1852 -0.0049 -0.6362
12986SOL     OW42745   2.503   6.314   4.502  0.9075  0.0533  0.1334
12986SOL    HW142746   2.582   6.308   4.555  0.8578 -1.4906  0.0582
12986SOL    HW242747   2.518   6.255   4.428 -0.9733 -1.6471  1.0081
12987SOL     OW42748   2.632   0.430   9.242  0.1836 -0.1999 -0.5743
12987SOL    HW142749   2.657   0.514   9.282  1.0676  0.0693 -1.6627
12987SOL    HW242750   2.559   0.399   9.297  0.1097  1.0685  0.0945
12988SOL     OW42751   3.586   3.483   1.370  0.0043 -0.2161 -0.3574
12988SOL    HW142752   3.499   3.472   1.331  0.0971  0.5341 -0.7954
12988SOL    HW242753   3.582   3.568   1.413 -0.3047 -1.2990  1.8792
12989SOL     OW42754   5.342   4.428   6.051 -0.2134 -0.1870 -0.2325
12989SOL    HW142755   5.308   4.345   6.083  1.0521  0.4434  3.2147
12989SOL    HW242756   5.276   4.459   5.989 -1.1599 -3.2527 -0.9157
12990SOL     OW42757   2.090   9.000   7.841 -0.0594  0.0680  0.1586
12990SOL    HW142758   2.152   9.020   7.911 -0.6992  1.5379  0.3466
12990SOL    HW242759   2.124   9.047   7.764 -1.2357  1.4346  0.4288
12991SOL     OW42760   0.701   4.962   6.448 -0.3574  0.2493 -0.0849
12991SOL    HW142761   0.755   5.041   6.442 -0.8287  0.5263 -0.8731
12991SOL    HW242762   0.617   4.994   6.480 -0.8476  0.2392 -1.2834
12992SOL     OW42763   5.069   4.170   9.893  0.2651 -0.3341  0.6912
12992SOL    HW142764   5.045   4.234   9.826  0.8457 -2.7446 -1.9792
12992SOL    HW242765   4.991   4.116   9.903  0.5065 -0.5826  1.2566
12993SOL     OW42766   4.594   1.244   2.674  0.3970  0.6999  0.2839
12993SOL    HW142767   4.681   1.209   2.654  1.0051  1.0831  2.0680
12993SOL    HW242768   4.609   1.304   2.746 -1.3602  0.8555  0.5546
12994SOL     OW42769   0.930   8.609   4.165 -0.4524  0.0265  0.1994
12994SOL    HW142770   0.925   8.655   4.081 -2.3514 -0.5833 -0.0677
12994SOL    HW242771   0.872   8.658   4.223  1.9544  1.3240  1.6785
12995SOL     OW42772   3.548   0.410   6.782  0.2820  0.3272 -0.2114
12995SOL    HW142773   3.504   0.371   6.858  0.0839 -0.0217 -0.5013
12995SOL    HW242774   3.531   0.504   6.789  1.3969  0.4727  0.9052
12996SOL     OW42775   7.428   3.024   6.254  0.1273  0.3283  0.0080
12996SOL    HW142776   7.433   3.112   6.216 -0.4700  0.8923  1.1731
12996SOL    HW242777   7.509   3.016   6.305 -0.0620  0.4144  0.3244
12997SOL     OW42778   3.380   5.597   0.404 -0.3617  0.1719  0.5371
12997SOL    HW142779   3.469   5.627   0.385 -0.5311 -0.2951 -1.1373
12997SOL    HW242780   3.387   5.555   0.490  1.3298 -0.9774 -0.1035
12998SOL     OW42781   4.536   9.583   7.394 -0.4395 -0.1835 -0.3453
12998SOL    HW142782   4.512   9.491   7.405  0.3285 -0.2104  1.2746
12998SOL    HW242783   4.595   9.602   7.466  1.3806  0.9364 -2.0190
12999SOL     OW42784   0.904   6.090   9.507 -0.0295  0.2318  0.0717
12999SOL    HW142785   0.948   6.008   9.533  0.3740 -0.5695 -2.8212
12999SOL    HW242786   0.970   6.138   9.457 -1.3796  0.5972 -1.4392
13000SOL     OW42787   0.619   1.185   7.664  0.9262  0.2655 -0.1200
13000SOL    HW142788   0.546   1.160   7.607  1.3075  2.9630 -1.9805
13000SOL    HW242789   0.627   1.112   7.726 -1.2480 -1.5937 -1.8433
13001SOL     OW42790   4.847  10.331   6.038 -0.1806 -0.0920  0.1531
13001SOL    HW142791   4.780  10.335   6.107 -0.0186  0.6408  0.2670
13001SOL    HW242792   4.859  10.422   6.010 -1.3094 -0.4946 -1.8791
13002SOL     OW42793   9.393   4.371   3.341  0.1465  0.2177 -0.6661
13002SOL    HW142794   9.424   4.365   3.432 -0.3290  1.4562 -0.4091
13002SOL    HW242795   9.471   4.351   3.289  0.4703 -0.3380 -0.0016
13003SOL     OW42796   9.306   6.321   9.282  0.2288 -0.0855 -0.3667
13003SOL    HW142797   9.272   6.241   9.242 -1.5028  0.6465 -0.4193
13003SOL    HW242798   9.375   6.291   9.341 -1.3934 -1.7820  0.7632
13004SOL     OW42799   9.095   5.003   6.166  0.1497 -0.3473 -0.5333
13004SOL    HW142800   9.046   5.067   6.217  0.4121  0.2778 -1.0461
13004SOL    HW242801   9.146   4.954   6.230 -0.0243 -0.0109 -0.1347
13005SOL     OW42802   1.139   4.016   5.071 -0.0440  0.1880 -0.5670
13005SOL    HW142803   1.083   4.093   5.081  0.8973  0.8507 -0.2462
13005SOL    HW242804   1.228   4.051   5.064  0.4192 -0.8720 -0.3131
13006SOL     OW42805  10.171   6.367   9.926 -0.3382  0.4920  0.4139
13006SOL    HW142806  10.132   6.448   9.892 -0.0097  0.2951 -0.4570
13006SOL    HW242807  10.253   6.394   9.966 -0.6018  0.6935  0.8182
13007SOL     OW42808   3.579   5.460   8.471 -0.1614 -0.1496 -0.5524
13007SOL    HW142809   3.601   5.417   8.388 -1.3998 -1.3732 -0.2693
13007SOL    HW242810   3.665   5.480   8.510  0.4473 -1.4961 -1.1406
13008SOL     OW42811   4.196   1.245   5.656  0.2033 -0.1531 -0.0187
13008SOL    HW142812   4.265   1.311   5.661 -0.7503  0.9953 -1.1716
13008SOL    HW242813   4.207   1.192   5.735  1.1064  1.2924  0.8596
13009SOL     OW42814   0.015   5.395   3.675  0.3879  0.0257 -0.0296
13009SOL    HW142815   0.084   5.388   3.608 -0.1475  1.0803 -0.7277
13009SOL    HW242816  -0.037   5.316   3.664  1.0785 -0.4540  0.0457
13010SOL     OW42817   5.244   8.329   2.701 -0.1096 -0.2954  0.5661
13010SOL    HW142818   5.325   8.291   2.667  0.0677 -1.0917  1.7967
13010SOL    HW242819   5.208   8.378   2.628  1.2666 -0.2782 -0.1370
13011SOL     OW42820   9.471   2.049  10.117 -0.1461 -0.6125 -0.2294
13011SOL    HW142821   9.559   2.034  10.084  0.2351 -0.3718  0.6814
13011SOL    HW242822   9.414   2.004  10.053  0.6630 -1.3473 -0.4462
13012SOL     OW42823   6.758   3.409   2.724 -0.2283  0.0177 -0.4238
13012SOL    HW142824   6.797   3.331   2.686  1.7983  0.5966  0.3389
13012SOL    HW242825   6.829   3.473   2.726 -0.8993  0.7973  1.9753
13013SOL     OW42826   9.684   5.002   9.353 -0.5256  0.0502 -0.2385
13013SOL    HW142827   9.596   5.034   9.334 -0.4661  0.0456 -0.5287
13013SOL    HW242828   9.690   4.919   9.306 -0.4289 -0.0389 -0.0709
13014SOL     OW42829   7.722   9.194   4.381  0.1541  0.5789  0.0311
13014SOL    HW142830   7.739   9.108   4.342 -2.4520 -0.7817  1.6883
13014SOL    HW242831   7.790   9.251   4.343  1.0206 -1.8164 -2.2895
13015SOL     OW42832   0.086   0.940   5.029  0.3688  0.0408  0.0889
13015SOL    HW142833   0.069   0.858   5.074  0.8093  0.2862  0.7101
13015SOL    HW242834   0.043   0.930   4.944  0.4514 -0.8412  0.1456
13016SOL     OW42835   1.738   1.594   5.542  0.1326  0.1066 -0.1983
13016SOL    HW142836   1.763   1.662   5.604 -0.7652  0.0540  0.2461
13016SOL    HW242837   1.681   1.638   5.479  0.4072 -0.0093 -0.5317
13017SOL     OW42838   8.791   6.789   1.427  0.6629 -0.4945  0.4064
13017SOL    HW142839   8.742   6.801   1.509 -0.2450 -0.4479 -0.1338
13017SOL    HW242840   8.749   6.715   1.385 -0.4642  0.9605 -1.1526
13018SOL     OW42841   1.096   2.105   5.978  0.2707 -0.3966  0.1587
13018SOL    HW142842   1.157   2.174   5.953 -0.0963 -0.5625 -1.2871
13018SOL    HW242843   1.053   2.080   5.897  0.2949 -2.2451  0.6645
13019SOL     OW42844   9.134   5.414   6.537  0.8400 -0.9411 -0.5583
13019SOL    HW142845   9.110   5.482   6.475 -1.9523 -2.1544 -0.9658
13019SOL    HW242846   9.213   5.447   6.580  0.1322  2.0890 -1.3724
13020SOL     OW42847  10.222   8.719   7.171 -0.4115  0.1697  0.1603
13020SOL    HW142848  10.141   8.724   7.119  0.4078 -1.4382 -1.3919
13020SOL    HW242849  10.269   8.800   7.150 -0.1054 -0.4405 -1.6584
13021SOL     OW42850   2.763   1.177   3.413  0.0498 -0.3296 -0.4928
13021SOL    HW142851   2.806   1.173   3.499 -1.7538  0.9357  0.5303
13021SOL    HW242852   2.773   1.089   3.377  2.1781 -0.4640  0.3153
13022SOL     OW42853   4.758   8.326   0.948  0.5987 -0.0490 -0.3926
13022SOL    HW142854   4.707   8.368   0.878 -1.2936 -0.9234  0.4010
13022SOL    HW242855   4.749   8.385   1.023 -0.1571 -0.7263  0.0604
13023SOL     OW42856   2.888   1.139   6.791 -0.1889 -0.1347  0.3021
13023SOL    HW142857   2.931   1.075   6.735  0.6796  0.9324 -0.2909
13023SOL    HW242858   2.952   1.209   6.801 -1.1721  0.7169  0.7970
13024SOL     OW42859   8.070   6.649   7.122  0.0482 -0.7275  0.2026
13024SOL    HW142860   8.094   6.557   7.113  0.2466 -0.5877 -0.7752
13024SOL    HW242861   8.144   6.697   7.085 -1.9544 -0.2785 -3.6520
13025SOL     OW42862   6.101   3.730   2.257 -0.2830  0.5959  0.1023
13025SOL    HW142863   6.196   3.740   2.254 -0.4046  1.5694 -1.8135
13025SOL    HW242864   6.067   3.814   2.227 -1.8390  0.8883  2.4505
13026SOL     OW42865   7.167   1.500   3.696  0.6748 -0.7725  0.4630
13026SOL    HW142866   7.148   1.515   3.604  4.3576  0.3437 -0.2649
13026SOL    HW242867   7.220   1.420   3.697  2.1449  0.1707  1.3422
13027SOL     OW42868   5.302   7.543   0.053  0.2848  0.1980 -0.1909
13027SOL    HW142869   5.395   7.537   0.075  0.3203 -1.9088 -0.7028
13027SOL    HW242870   5.298   7.604  -0.021  1.1448  0.9202  0.3488
13028SOL     OW42871   4.350   2.619   7.899  0.1304 -0.0943 -0.0187
13028SOL    HW142872   4.263   2.584   7.880 -0.1928  0.8261 -0.2625
13028SOL    HW242873   4.370   2.588   7.988 -0.7711  0.3228  0.3405
13029SOL     OW42874   3.917   3.951   3.283 -0.0722 -0.0638  0.7552
13029SOL    HW142875   3.879   4.039   3.284 -1.9250 -0.7689 -0.9280
13029SOL    HW242876   3.935   3.933   3.191  2.6497 -0.5627  1.2811
13030SOL     OW42877   1.459  10.293  10.230 -0.1943  0.4437 -0.0621
13030SOL    HW142878   1.451  10.387  10.243  1.4587  0.7155 -0.7083
13030SOL    HW242879   1.376  10.257  10.261  0.1993  1.8046  2.9358
13031SOL     OW42880   5.679   6.278   8.095 -0.5445  0.4044 -0.8986
13031SOL    HW142881   5.608   6.326   8.137 -0.3272  0.0928 -0.1724
13031SOL    HW242882   5.734   6.346   8.057 -0.3210  0.7288 -0.0135
13032SOL     OW42883   6.631   2.604   3.942  0.0626  0.3722 -0.2714
13032SOL    HW142884   6.720   2.636   3.922 -0.0875  0.8076 -0.2677
13032SOL    HW242885   6.612   2.540   3.873  0.1476  0.7260 -0.6300
13033SOL     OW42886   2.723   8.024   2.849  0.3773  0.0155 -0.1096
13033SOL    HW142887   2.698   8.086   2.918 -1.1784  0.8844 -1.3946
13033SOL    HW242888   2.761   8.079   2.780 -1.9914 -0.2348 -1.7331
13034SOL     OW42889   7.300   8.036   3.126  0.0802  0.1255 -0.0232
13034SOL    HW142890   7.357   8.098   3.172  1.0586 -0.6661 -0.1331
13034SOL    HW242891   7.247   7.997   3.196  0.6121 -0.0975  0.2587
13035SOL     OW42892   0.513   0.392   6.617 -0.5273 -0.2536 -0.2727
13035SOL    HW142893   0.518   0.331   6.691  3.1220 -0.3902 -0.4410
13035SOL    HW242894   0.539   0.339   6.541 -1.8986  0.4487 -1.2786
13036SOL     OW42895   9.226   2.102   5.980  0.1970 -0.2288 -0.2744
13036SOL    HW142896   9.134   2.113   5.957  0.7204  0.1353 -2.3281
13036SOL    HW242897   9.245   2.178   6.036 -0.8129 -0.4846  0.4399
13037SOL     OW42898   9.249   3.095  10.198  0.3380  0.0135 -0.0221
13037SOL    HW142899   9.186   3.143  10.251 -0.4168 -1.3584  0.3674
13037SOL    HW242900   9.290   3.033  10.259 -1.2116 -2.2537 -1.1514
13038SOL     OW42901   5.497   3.645   1.339 -0.3938  0.2781  0.3000
13038SOL    HW142902   5.427   3.612   1.284 -2.1212  2.1303  1.2388
13038SOL    HW242903   5.549   3.701   1.282 -0.8898  0.4968  0.0634
13039SOL     OW42904   1.837   6.445   3.303 -0.4522 -0.1460  0.6896
13039SOL    HW142905   1.830   6.350   3.318 -0.1284 -0.7723 -2.4085
13039SOL    HW242906   1.929   6.459   3.283 -0.4384  0.8922  1.4596
13040SOL     OW42907   4.940  10.131   9.321  0.2811  0.0017 -0.2688
13040SOL    HW142908   4.903  10.218   9.306  0.2463  0.2240  0.9305
13040SOL    HW242909   5.026  10.149   9.361 -0.2958 -0.4843  1.2660
13041SOL     OW42910  10.116   3.329   4.066 -0.5258 -0.0829  0.1542
13041SOL    HW142911  10.159   3.396   4.014  0.4012 -0.3222  0.5892
13041SOL    HW242912  10.185   3.294   4.122 -0.5296 -2.7014 -1.3409
13042SOL     OW42913   7.193   5.735   6.393  0.2470 -0.1536  0.0088
13042SOL    HW142914   7.172   5.705   6.481 -1.1358 -1.2157 -0.6429
13042SOL    HW242915   7.109   5.737   6.347  0.6405  2.2727 -0.7614
13043SOL     OW42916   7.976   1.692   7.930  0.0090 -0.4666 -0.0827
13043SOL    HW142917   8.067   1.719   7.915  0.1018 -0.6346  0.1760
13043SOL    HW242918   7.979   1.642   8.012  0.1087 -2.6672 -1.3547
13044SOL     OW42919   8.481   9.291   3.163  0.1963  0.1049  0.2026
13044SOL    HW142920   8.518   9.322   3.246  0.0472 -1.4391  0.8756
13044SOL    HW242921   8.404   9.346   3.149 -0.2144 -0.1137  1.4971
13045SOL     OW42922   7.952   6.189   8.436  0.5391  0.0872  0.5823
13045SOL    HW142923   7.967   6.264   8.493 -0.9781  0.3147  0.7250
13045SOL    HW242924   7.877   6.214   8.382  0.4871 -1.0301  0.1039
13046SOL     OW42925   0.954   3.469   3.489 -0.4540 -0.2361 -0.9847
13046SOL    HW142926   0.865   3.502   3.476 -0.9823 -1.5237 -0.8105
13046SOL    HW242927   1.003   3.544   3.522 -1.6940  0.2693 -0.2172
13047SOL     OW42928   0.514   3.736   5.799  0.2729 -0.3473 -0.3107
13047SOL    HW142929   0.491   3.814   5.849  0.2978 -1.7025  1.9449
13047SOL    HW242930   0.432   3.708   5.759  0.0143  0.1623 -0.1479
13048SOL     OW42931   8.034   5.163   7.046  0.4111 -0.1526 -0.3717
13048SOL    HW142932   7.956   5.114   7.021 -0.0182  0.4038 -0.1511
13048SOL    HW242933   8.020   5.186   7.138  0.1734  1.1552 -0.7077
13049SOL     OW42934   3.396   7.769   0.077  0.0418  0.3336  0.0639
13049SOL    HW142935   3.413   7.830   0.005  1.1419 -0.6049 -0.4970
13049SOL    HW242936   3.324   7.715   0.045 -0.6837  1.0736  0.4119
13050SOL     OW42937   9.991   6.798   1.370  0.7376 -0.3699  0.3832
13050SOL    HW142938   9.925   6.848   1.418 -0.0305 -0.7142 -0.2771
13050SOL    HW242939   9.964   6.707   1.381  0.9603 -0.4970 -0.1089
13051SOL     OW42940   1.178   0.431   1.475  0.5895  0.1089 -0.2608
13051SOL    HW142941   1.247   0.366   1.486  1.0496  0.6365 -0.0117
13051SOL    HW242942   1.108   0.384   1.430  0.5652 -0.8028  0.7087
13052SOL     OW42943   0.213   8.304   0.235  0.5922 -0.0010 -0.0374
13052SOL    HW142944   0.143   8.316   0.300 -0.2250  0.8166 -1.0225
13052SOL    HW242945   0.283   8.259   0.283  1.7701  4.0648  2.6754
13053SOL     OW42946   8.036   0.206   0.655 -0.4001  0.0709  0.5777
13053SOL    HW142947   7.990   0.181   0.734 -0.3005  1.1919  1.0049
13053SOL    HW242948   8.124   0.168   0.665 -0.7009 -0.6728  0.5045
13054SOL     OW42949   3.112   7.005   3.484  0.1076 -0.2095  0.3600
13054SOL    HW142950   3.196   7.038   3.451  0.6067 -2.6740 -1.1143
13054SOL    HW242951   3.048   7.036   3.420  0.7030 -2.6184 -1.5799
13055SOL     OW42952   9.523   2.046   0.027  0.0464 -0.5020  0.4404
13055SOL    HW142953   9.446   2.070   0.079 -0.8071 -1.9166 -0.1180
13055SOL    HW242954   9.490   2.036  -0.062  1.0853 -0.1840 -0.0007
13056SOL     OW42955   5.846   0.386   2.835  0.1504 -0.2190  0.8708
13056SOL    HW142956   5.941   0.386   2.824  0.1989 -0.2610  1.2728
13056SOL    HW242957   5.822   0.478   2.844  0.0033 -0.1109 -0.4132
13057SOL     OW42958   8.596   5.705   7.996  0.7893 -0.0878  0.4850
13057SOL    HW142959   8.549   5.712   8.080  2.2724 -0.7174  1.4108
13057SOL    HW242960   8.546   5.760   7.936 -1.7421 -1.5308  1.1209
13058SOL     OW42961   1.103   5.264   1.188  0.0225  0.7218  0.2984
13058SOL    HW142962   1.034   5.315   1.230 -0.3682  0.9367 -0.5774
13058SOL    HW242963   1.128   5.199   1.253 -1.0462  0.6100  0.6121
13059SOL     OW42964   6.267   0.189   0.320 -0.5167  0.3262  0.5193
13059SOL    HW142965   6.340   0.147   0.364 -1.2961 -0.3912  1.1713
13059SOL    HW242966   6.239   0.258   0.380 -1.4926 -0.5640  1.1426
13060SOL     OW42967   5.056   7.356   9.924  0.5109 -0.5693  0.1320
13060SOL    HW142968   5.133   7.410   9.944 -1.3417  1.7503  1.5310
13060SOL    HW242969   5.023   7.329  10.010 -0.0892 -1.8020 -0.4565
13061SOL     OW42970   1.702   9.931   5.360 -0.0441 -0.4204  0.5964
13061SOL    HW142971   1.673   9.886   5.439  0.3562  2.7338  2.6907
13061SOL    HW242972   1.633   9.912   5.295 -1.6541 -1.1147  2.4231
13062SOL     OW42973   1.052   3.968   4.766  0.0389  0.3446 -0.9133
13062SOL    HW142974   1.107   3.924   4.831  0.7949  1.1251 -1.0001
13062SOL    HW242975   1.031   3.900   4.702 -0.8466 -0.4792  0.2080
13063SOL     OW42976   6.675   6.213   2.590 -0.1959  0.5564  0.1313
13063SOL    HW142977   6.738   6.153   2.631 -1.7288 -2.1003 -1.0880
13063SOL    HW242978   6.702   6.217   2.499  2.2227  5.1218  0.7516
13064SOL     OW42979   8.192   4.688   9.879  0.3114  0.1695  0.3824
13064SOL    HW142980   8.254   4.697   9.807  0.4842  0.0044  0.5115
13064SOL    HW242981   8.121   4.748   9.857  0.1149 -0.2663 -0.1930
13065SOL     OW42982   2.874   3.338   5.245  0.1145  0.3662  0.0749
13065SOL    HW142983   2.861   3.303   5.157  0.5221 -0.1347  0.2074
13065SOL    HW242984   2.932   3.413   5.234  0.2778  0.2192 -0.0687
13066SOL     OW42985   8.105   0.304   8.906  0.6152  0.1371  0.0513
13066SOL    HW142986   8.134   0.245   8.836  1.4977 -0.5969  0.9956
13066SOL    HW242987   8.034   0.257   8.950  1.4614 -0.3542  0.9382
13067SOL     OW42988   1.912   5.999   2.393 -0.1502  0.0367 -0.6827
13067SOL    HW142989   1.866   5.966   2.470  1.2861 -1.0760 -0.2618
13067SOL    HW242990   1.847   6.054   2.349 -1.1149  0.4518  1.1329
13068SOL     OW42991   2.997   1.362   0.030  0.2213  0.4110 -0.0081
13068SOL    HW142992   2.973   1.270   0.040 -0.7911  0.6891  0.2485
13068SOL    HW242993   2.923   1.410   0.068  0.9209  1.3198  0.2270
13069SOL     OW42994   2.083   2.010   2.626  0.5666  0.5247  0.2545
13069SOL    HW142995   2.069   2.062   2.705  0.9834  0.1264  0.5917
13069SOL    HW242996   2.178   2.006   2.616  0.6638 -1.9748  1.4643
13070SOL     OW42997   7.511   0.682   4.344 -0.6657 -0.0185  0.8033
13070SOL    HW142998   7.478   0.727   4.266  0.7906  0.5799  0.4881
13070SOL    HW242999   7.462   0.720   4.417 -1.1951  0.2811  0.2985
13071SOL     OW43000   6.261   0.573   2.716  0.0618 -0.5051 -0.3431
13071SOL    HW143001   6.258   0.490   2.669 -0.2257  0.6006 -2.4627
13071SOL    HW243002   6.353   0.598   2.716  0.2130 -1.0415  0.7355
13072SOL     OW43003   4.126   3.382   7.191  0.0962  0.0489  0.1674
13072SOL    HW143004   4.103   3.472   7.216  1.2877  0.5047 -0.3008
13072SOL    HW243005   4.045   3.345   7.158 -0.9127  0.2785  2.1962
13073SOL     OW43006   9.424   5.635   2.300 -0.2977 -0.4241  0.1828
13073SOL    HW143007   9.510   5.595   2.314  0.2552  0.8320  0.4631
13073SOL    HW243008   9.441   5.729   2.296 -1.4409 -0.2415 -1.4560
13074SOL     OW43009   2.610  10.301   0.559 -0.3107  0.0126  0.4131
13074SOL    HW143010   2.699  10.268   0.573 -0.0751 -0.6046 -2.0072
13074SOL    HW243011   2.618  10.396   0.569  0.4765 -0.1007  0.9073
13075SOL     OW43012   6.342   3.135   2.970  0.5943  0.1956  0.2418
13075SOL    HW143013   6.263   3.093   3.003  1.7901 -0.7833  1.9974
13075SOL    HW243014   6.344   3.114   2.877 -0.4891 -0.9329  0.4608
13076SOL     OW43015   4.834   7.195   6.480  0.2328  0.7976  0.3040
13076SOL    HW143016   4.883   7.236   6.551  0.0460 -0.3740  1.1399
13076SOL    HW243017   4.747   7.234   6.485 -0.2760 -0.4273  1.8004
13077SOL     OW43018   8.873   8.189   0.108  0.2955  0.3417  0.4284
13077SOL    HW143019   8.796   8.151   0.151  1.5327  0.6345  3.1008
13077SOL    HW243020   8.850   8.281   0.095  0.1649  0.4170  1.1632
13078SOL     OW43021   5.074   0.504   5.533  0.4025 -0.2574 -0.0700
13078SOL    HW143022   5.152   0.453   5.507  0.9637  1.5893 -2.3328
13078SOL    HW243023   5.000   0.454   5.497  0.6005 -1.4151  1.0663
13079SOL     OW43024   1.707   0.897   6.077  0.0161 -0.3528 -0.0811
13079SOL    HW143025   1.637   0.838   6.048  0.6991  0.2360 -3.2913
13079SOL    HW243026   1.788   0.853   6.051  0.6523  0.7769 -0.0780
13080SOL     OW43027   6.747   0.049   0.793  0.3479  0.1833  0.3178
13080SOL    HW143028   6.762  -0.026   0.736  1.7244  0.3978  0.3532
13080SOL    HW243029   6.747   0.124   0.734 -1.2350  0.1705  0.2555
13081SOL     OW43030   8.507   8.100   5.661 -0.6613  0.8837 -0.6668
13081SOL    HW143031   8.595   8.081   5.628 -0.6495 -0.3501  0.0312
13081SOL    HW243032   8.467   8.014   5.675 -1.6614  1.4173 -0.1384
13082SOL     OW43033   5.150   2.328   3.038 -0.0982  0.2112  0.2758
13082SOL    HW143034   5.056   2.323   3.017  0.5549 -1.2512 -2.8855
13082SOL    HW243035   5.192   2.276   2.970  3.0336  0.4746  1.8434
13083SOL     OW43036   0.624   6.055   9.436 -0.3830 -0.4401  0.1513
13083SOL    HW143037   0.581   6.126   9.390 -1.4008 -1.1429 -0.0185
13083SOL    HW243038   0.717   6.078   9.435 -0.4563 -0.1107 -1.6651
13084SOL     OW43039   5.367   2.197   1.709 -0.1029 -0.8115 -0.1935
13084SOL    HW143040   5.375   2.176   1.802 -0.4345 -1.8032 -0.3697
13084SOL    HW243041   5.455   2.220   1.682  0.2227 -1.6386  0.1210
13085SOL     OW43042   9.583   6.753   6.200  0.3310  0.2496 -0.3081
13085SOL    HW143043   9.547   6.711   6.122  0.5138 -0.1539 -0.1809
13085SOL    HW243044   9.622   6.681   6.249  0.8682  0.6089 -0.2047
13086SOL     OW43045   5.935   5.993   2.837  0.0398  0.2630 -0.3114
13086SOL    HW143046   6.010   6.002   2.779  0.3947 -1.1468 -0.1156
13086SOL    HW243047   5.972   5.967   2.921 -0.6900 -1.9195 -0.5836
13087SOL     OW43048   3.702   0.380   2.296  0.0440  0.3245 -0.0637
13087SOL    HW143049   3.631   0.427   2.340  0.3240  1.0477 -0.3686
13087SOL    HW243050   3.704   0.294   2.338 -0.3775  0.6381  0.6071
13088SOL     OW43051   6.778   6.725   8.507  0.3192  0.2271  0.3768
13088SOL    HW143052   6.838   6.705   8.579  0.6897 -2.2758 -0.5195
13088SOL    HW243053   6.804   6.811   8.477  2.9935 -0.4488  0.5301
13089SOL     OW43054   9.040   5.837   0.860 -0.3889 -0.6072  0.2654
13089SOL    HW143055   9.058   5.790   0.778 -1.7766 -0.8157  0.0659
13089SOL    HW243056   8.980   5.907   0.835 -1.1628 -0.9260  1.1711
13090SOL     OW43057   8.681   1.179   6.261 -0.1730  0.0127 -0.0409
13090SOL    HW143058   8.715   1.241   6.326 -0.2440  0.4030 -0.3715
13090SOL    HW243059   8.599   1.147   6.298 -0.1823  0.1873  0.0895
13091SOL     OW43060   0.986  10.325   7.554  0.4148 -0.2183 -0.2184
13091SOL    HW143061   1.045  10.265   7.507 -0.3630 -1.6971  0.6410
13091SOL    HW243062   1.005  10.309   7.646 -1.6832 -1.1658  0.1136
13092SOL     OW43063   8.889   3.779   3.991 -0.2931 -0.1395  0.6210
13092SOL    HW143064   8.797   3.784   4.016 -0.1925  0.6196  0.8520
13092SOL    HW243065   8.935   3.831   4.057  0.4856 -1.7280  1.3837
13093SOL     OW43066   1.312   4.118   5.532  0.1748 -0.0933 -0.5147
13093SOL    HW143067   1.245   4.059   5.568  1.1312 -0.1037  1.3571
13093SOL    HW243068   1.261   4.186   5.487 -1.0246 -1.0407 -0.6578
13094SOL     OW43069   3.924   7.222   3.652 -0.2892  0.0981 -0.2315
13094SOL    HW143070   3.839   7.191   3.623 -0.4018  1.0801 -1.0010
13094SOL    HW243071   3.930   7.195   3.744 -1.5338  0.2318 -0.0929
13095SOL     OW43072   0.149   1.874   2.864 -0.3429  0.0103 -0.7075
13095SOL    HW143073   0.076   1.934   2.846  0.7064  0.9813 -1.9048
13095SOL    HW243074   0.208   1.925   2.920  0.0448 -0.3029 -0.8297
13096SOL     OW43075   7.374   7.056   0.003  0.1761 -0.5090 -0.0019
13096SOL    HW143076   7.304   7.016   0.054  1.4522 -2.7960  0.1057
13096SOL    HW243077   7.419   6.982  -0.038  2.2758  0.8921 -0.3916
13097SOL     OW43078  10.243   9.266   1.055  0.4006 -0.0408 -0.1212
13097SOL    HW143079  10.152   9.275   1.086 -0.0069 -0.0937 -1.2804
13097SOL    HW243080  10.235   9.246   0.962  1.6070 -0.2786 -0.1852
13098SOL     OW43081  10.349   5.262   2.651  0.3430  0.1782  0.3693
13098SOL    HW143082  10.413   5.240   2.719  0.8862  0.2113 -0.1146
13098SOL    HW243083  10.299   5.181   2.638  2.5731 -0.9987 -1.6643
13099SOL     OW43084   2.171   2.018   1.497 -0.0629 -0.4628  0.3062
13099SOL    HW143085   2.109   1.978   1.437  0.6476  1.1990 -1.6796
13099SOL    HW243086   2.242   2.050   1.440  2.8629 -2.5751  2.4394
13100SOL     OW43087   1.988   5.939   3.464 -0.2576 -0.1695 -0.3196
13100SOL    HW143088   2.072   5.911   3.428  0.3301  0.4970  0.4799
13100SOL    HW243089   1.982   5.895   3.549 -0.2696  0.5119  0.0408
13101SOL     OW43090   9.135   0.801   5.591 -0.1016  0.0891  0.1314
13101SOL    HW143091   9.140   0.755   5.507 -1.6356  1.6036 -0.8754
13101SOL    HW243092   9.222   0.841   5.601 -0.1471  0.5869 -1.2000
13102SOL     OW43093   3.062   4.452   9.360 -0.3192  0.0230 -0.3770
13102SOL    HW143094   3.035   4.427   9.449  0.1692  0.7798 -0.0043
13102SOL    HW243095   3.024   4.538   9.347 -1.3885 -0.5658 -1.3748
13103SOL     OW43096   7.727   9.207   5.761 -0.0643  0.4356 -0.4362
13103SOL    HW143097   7.658   9.144   5.743 -0.6220  1.4790 -2.2427
13103SOL    HW243098   7.680   9.289   5.779  0.6766  0.8417 -0.3089
13104SOL     OW43099   4.114   8.864   9.889 -0.5969 -0.3967  0.4406
13104SOL    HW143100   4.146   8.938   9.941  1.7213 -0.7950 -0.2934
13104SOL    HW243101   4.164   8.789   9.921 -0.2549 -0.9404 -1.2534
13105SOL     OW43102   6.051   8.438   7.786  0.2267 -0.1493 -0.1572
13105SOL    HW143103   6.139   8.403   7.801  0.7245  1.8955  2.3156
13105SOL    HW243104   6.065   8.523   7.744 -0.3662  1.0394  1.9057
13106SOL     OW43105   3.160   4.943   5.394 -0.4106 -0.2778  0.3528
13106SOL    HW143106   3.103   4.915   5.322 -1.0208 -1.4313  1.2503
13106SOL    HW243107   3.167   4.866   5.451 -0.2476  0.7183  1.7387
13107SOL     OW43108   8.850   7.914   5.448  0.5376 -0.2211  0.1419
13107SOL    HW143109   8.836   7.853   5.521 -0.3442 -0.3207 -0.0977
13107SOL    HW243110   8.913   7.869   5.391 -2.1733 -2.2923 -1.5079
13108SOL     OW43111   7.978   2.940   5.753 -0.3237 -0.6313 -0.2138
13108SOL    HW143112   7.887   2.921   5.730 -0.2345  0.0942 -1.2656
13108SOL    HW243113   8.023   2.855   5.747 -1.1236 -1.2143  1.4525
13109SOL     OW43114   2.079   2.125   2.892  0.5730  0.1092  0.3630
13109SOL    HW143115   2.018   2.132   2.965 -1.1165 -3.6802 -0.4612
13109SOL    HW243116   2.140   2.056   2.917  1.6198  0.5967 -0.7451
13110SOL     OW43117   3.572   8.013   1.132 -0.3723  0.5878 -0.1894
13110SOL    HW143118   3.551   8.098   1.094  0.3182  0.4378 -0.9251
13110SOL    HW243119   3.603   7.960   1.059 -0.3942 -0.1732  0.3309
13111SOL     OW43120   9.250   5.701   5.456 -0.1315 -0.2260  0.3664
13111SOL    HW143121   9.319   5.731   5.397 -0.8166  1.1409  0.2209
13111SOL    HW243122   9.242   5.607   5.438 -0.7132  0.2453 -2.1745
13112SOL     OW43123   2.136   7.661   3.083 -0.3347 -1.2752 -0.5141
13112SOL    HW143124   2.209   7.717   3.109 -0.2484 -2.4623  2.1192
13112SOL    HW243125   2.178   7.584   3.044 -0.3346 -0.8603 -1.3656
13113SOL     OW43126   7.942   5.292   2.080 -0.2455 -0.9630  0.0210
13113SOL    HW143127   7.986   5.233   2.142  2.2691  0.3522 -0.3853
13113SOL    HW243128   8.001   5.296   2.005  0.1177  2.5762  0.3183
13114SOL     OW43129   5.172   2.697   7.657  0.0699 -0.2912 -0.7981
13114SOL    HW143130   5.185   2.602   7.659  0.9466 -0.1687  1.0111
13114SOL    HW243131   5.087   2.710   7.700 -0.8196 -0.3264 -2.4689
13115SOL     OW43132   7.053   0.409  10.050 -0.0698  0.1528  0.4491
13115SOL    HW143133   7.026   0.500  10.052 -0.7431 -0.0390  1.9024
13115SOL    HW243134   7.145   0.411  10.075  0.1416  0.4902 -0.3425
13116SOL     OW43135   3.133   1.509   2.083  0.1122 -0.1219  0.4590
13116SOL    HW143136   3.132   1.504   2.179 -0.0504 -0.6982  0.4347
13116SOL    HW243137   3.211   1.561   2.062 -0.0274  0.2710  0.9134
13117SOL     OW43138   6.314   0.117   0.697 -0.2487  0.4942  0.9722
13117SOL    HW143139   6.312   0.044   0.758  0.5409 -0.5684 -0.2438
13117SOL    HW243140   6.222   0.139   0.682 -0.6031 -1.5623 -0.1578
13118SOL     OW43141   2.850   1.002  10.341 -0.3938  0.1256 -0.6037
13118SOL    HW143142   2.796   0.934  10.300 -2.7928  1.7331 -0.2959
13118SOL    HW243143   2.847   0.982  10.434  2.0758 -1.4524 -0.7853
13119SOL     OW43144   1.337   0.636   0.253 -0.4457  0.5948 -0.4829
13119SOL    HW143145   1.295   0.561   0.297 -0.0818  0.3533 -0.5380
13119SOL    HW243146   1.273   0.664   0.188 -0.1484 -0.3708 -1.2120
13120SOL     OW43147   3.735   7.747   4.916  0.1776  0.2276 -0.1485
13120SOL    HW143148   3.649   7.785   4.902  0.1556 -0.1410 -1.0371
13120SOL    HW243149   3.795   7.805   4.869  0.2525 -0.2768 -0.6886
13121SOL     OW43150   6.835   9.919   8.561 -0.2138  0.5294 -0.5001
13121SOL    HW143151   6.926   9.936   8.584 -0.8973  2.8676  0.8746
13121SOL    HW243152   6.808   9.997   8.511 -1.8929  0.7367  0.6298
13122SOL     OW43153   4.346   8.946   2.076  0.1387 -0.5897  0.4302
13122SOL    HW143154   4.381   9.032   2.099 -0.7047 -0.2567  0.5087
13122SOL    HW243155   4.395   8.919   1.999  0.6689 -0.2082  0.6304
13123SOL     OW43156   9.244   3.903   3.901 -0.3325  0.0937 -0.1817
13123SOL    HW143157   9.293   3.944   3.831  0.2142 -0.8321 -0.3569
13123SOL    HW243158   9.152   3.917   3.879 -0.2023  2.6289  0.6092
13124SOL     OW43159   8.980   9.664   2.035  0.3586  0.1581 -0.3108
13124SOL    HW143160   9.043   9.633   2.099 -0.0544  0.5978  0.3220
13124SOL    HW243161   8.966   9.590   1.976  0.0200 -0.5686  0.6679
13125SOL     OW43162  10.078   0.161   6.030  0.0867 -0.0938  0.1188
13125SOL    HW143163   9.999   0.200   6.066  0.4110  2.0872 -1.2804
13125SOL    HW243164  10.148   0.188   6.090  0.3667  1.9974 -1.0437
13126SOL     OW43165   1.042   4.263   7.387  0.0498  0.2452 -0.1430
13126SOL    HW143166   1.095   4.315   7.447 -1.4750  0.7653  0.7760
13126SOL    HW243167   1.037   4.177   7.428  1.2483 -0.2149 -0.8912
13127SOL     OW43168   3.194   3.283   7.387 -0.2523  0.2373 -0.2712
13127SOL    HW143169   3.147   3.201   7.373  0.3497 -0.2700  0.6131
13127SOL    HW243170   3.286   3.262   7.369 -0.0534  0.6373  0.2575
13128SOL     OW43171   1.248   1.267   2.175 -0.0344 -0.4103  0.4582
13128SOL    HW143172   1.232   1.339   2.236  1.2595 -0.7355  1.2306
13128SOL    HW243173   1.171   1.266   2.118  0.3411  2.2187 -0.2330
13129SOL     OW43174   8.600   4.652   4.647  0.6484  0.3738 -0.0095
13129SOL    HW143175   8.599   4.655   4.742 -0.7278  2.9422 -0.0109
13129SOL    HW243176   8.523   4.600   4.623  0.5955  0.3295  0.2607
13130SOL     OW43177   6.321   6.529   9.319 -0.2121 -0.2999 -0.5066
13130SOL    HW143178   6.353   6.547   9.407  1.2607 -1.3171 -0.8019
13130SOL    HW243179   6.287   6.440   9.323 -0.3454 -0.2720 -0.9230
13131SOL     OW43180   8.925   5.383   6.089  1.1573 -0.8788  0.1691
13131SOL    HW143181   9.017   5.366   6.065  0.6605 -2.5275 -0.7819
13131SOL    HW243182   8.875   5.336   6.022 -0.3936  0.2893  0.4766
13132SOL     OW43183   6.951   2.886   2.809 -0.2044  0.2967 -0.2014
13132SOL    HW143184   7.000   2.937   2.873  0.0968 -1.2265  0.8054
13132SOL    HW243185   7.017   2.842   2.757 -0.4704 -0.4530  0.0836
13133SOL     OW43186   2.762   1.689   9.429  0.4583  0.4865  0.0109
13133SOL    HW143187   2.834   1.700   9.367  1.1347  1.2640  0.9105
13133SOL    HW243188   2.701   1.761   9.408  0.3554  0.3460 -0.1810
13134SOL     OW43189   6.051   6.254   1.787  0.5086  0.0323 -0.4335
13134SOL    HW143190   6.075   6.186   1.849 -0.3201  0.2643  0.1528
13134SOL    HW243191   5.990   6.309   1.834  0.3483  0.5731 -1.2548
13135SOL     OW43192   5.277   0.209   7.049 -0.0244  0.4112 -0.2533
13135SOL    HW143193   5.290   0.177   6.960 -3.4395 -1.1759 -0.3376
13135SOL    HW243194   5.286   0.305   7.041 -0.3598  0.3211 -2.3222
13136SOL     OW43195   4.762   2.204   2.239 -0.7444 -0.4545  0.5384
13136SOL    HW143196   4.677   2.236   2.209 -1.7260 -0.8817  2.6610
13136SOL    HW243197   4.741   2.129   2.295  1.0430 -0.5717  1.1166
13137SOL     OW43198   4.419   7.384  10.013 -0.2287 -0.0352  0.2883
13137SOL    HW143199   4.492   7.379  10.075 -0.0354 -1.7457 -0.0359
13137SOL    HW243200   4.393   7.476  10.014  2.3459  0.7741 -0.0370
13138SOL     OW43201   5.300   5.362   8.292  0.2597 -0.2673 -0.1584
13138SOL    HW143202   5.246   5.431   8.330 -0.1443 -0.1460 -0.9365
13138SOL    HW243203   5.346   5.405   8.220 -0.7145 -1.0107 -1.2625
13139SOL     OW43204  10.180   2.448   8.390  0.5238  0.0232  0.1183
13139SOL    HW143205  10.191   2.361   8.353 -0.5107 -0.0711  0.0066
13139SOL    HW243206  10.240   2.503   8.340  0.1755 -0.3689 -0.7440
13140SOL     OW43207   6.285   8.886   8.748 -0.4906 -0.1993  0.1400
13140SOL    HW143208   6.219   8.817   8.753 -1.4574  0.7513  1.0476
13140SOL    HW243209   6.258   8.941   8.675  0.4081 -0.8763 -0.7311
13141SOL     OW43210   7.406   5.659   8.724  1.1612 -0.5670  0.1171
13141SOL    HW143211   7.455   5.703   8.655  1.5474 -1.3107 -0.0914
13141SOL    HW243212   7.322   5.636   8.684  0.1092  1.7638  0.8139
13142SOL     OW43213   4.804   4.577   6.752  0.1647 -0.0545  0.0943
13142SOL    HW143214   4.894   4.611   6.750 -0.0928  0.5999 -0.8050
13142SOL    HW243215   4.812   4.492   6.796  1.1830  0.1061  0.2493
13143SOL     OW43216   3.785   6.702   9.113 -0.1333  0.0585 -0.0077
13143SOL    HW143217   3.748   6.617   9.091 -0.4737  0.1855  0.0744
13143SOL    HW243218   3.875   6.683   9.140 -0.6790 -0.4523  1.5212
13144SOL     OW43219   6.990   1.169   2.505 -0.5384  0.0536 -0.5359
13144SOL    HW143220   7.032   1.098   2.554  0.8243  1.3278  0.2458
13144SOL    HW243221   7.038   1.172   2.422 -0.8708 -0.2147 -0.7357
13145SOL     OW43222   7.068   2.048   7.253 -0.1141  0.1705  0.0832
13145SOL    HW143223   7.089   2.141   7.243 -1.0443  0.1675 -3.4254
13145SOL    HW243224   6.972   2.046   7.259 -0.0486 -0.5364  1.0514
13146SOL     OW43225   1.856   5.003   9.317 -1.1752 -0.1032 -0.2893
13146SOL    HW143226   1.792   4.970   9.380 -0.8552  0.0902  0.1360
13146SOL    HW243227   1.934   4.949   9.330 -0.9263  0.2903 -0.1492
13147SOL     OW43228   5.197  10.218   9.398 -0.1406  0.0878  0.6085
13147SOL    HW143229   5.287  10.224   9.428  0.3255  2.1944 -0.9704
13147SOL    HW243230   5.144  10.248   9.472  0.6728  1.4108  0.6784
13148SOL     OW43231   6.984   5.578   9.614 -0.3663 -0.4721 -0.2826
13148SOL    HW143232   6.919   5.641   9.583  0.1292  0.9128  1.2953
13148SOL    HW243233   7.068   5.623   9.603 -0.1149 -0.1452  2.2906
13149SOL     OW43234   9.271   3.507   4.128 -0.6386 -0.4958  0.4049
13149SOL    HW143235   9.264   3.412   4.137 -0.2414 -0.6206 -0.5290
13149SOL    HW243236   9.332   3.533   4.198 -0.3460 -0.9940  0.3422
13150SOL     OW43237   3.954   6.585   1.920  0.7086  0.3540 -0.0706
13150SOL    HW143238   3.893   6.513   1.933  0.4151  0.6295  0.1092
13150SOL    HW243239   3.972   6.585   1.826  1.4714 -0.5584  0.0670
13151SOL     OW43240   8.487   9.571   7.347  0.1718  0.3743 -0.4074
13151SOL    HW143241   8.475   9.569   7.252  1.2437 -0.3045 -0.5472
13151SOL    HW243242   8.401   9.592   7.382  0.2223  2.9311 -1.6094
13152SOL     OW43243   1.569   0.989   3.121  0.1731 -0.1218 -0.4198
13152SOL    HW143244   1.506   1.042   3.169 -1.0839 -0.6080 -1.4592
13152SOL    HW243245   1.543   1.000   3.029  1.5932 -0.3751 -0.8782
13153SOL     OW43246   4.026   8.176   4.415  0.7814 -0.7901 -0.2850
13153SOL    HW143247   4.065   8.182   4.327 -0.6660 -1.2350 -0.9928
13153SOL    HW243248   4.045   8.086   4.443  0.6074 -0.8875 -0.4709
13154SOL     OW43249   0.505   6.815   9.998  0.1097  0.1385 -0.1222
13154SOL    HW143250   0.436   6.804  10.063  1.1609  0.8971  1.1614
13154SOL    HW243251   0.458   6.847   9.920 -1.6015 -3.5487 -0.8534
13155SOL     OW43252   0.462   3.068   8.809  0.0973  0.0553 -0.4406
13155SOL    HW143253   0.556   3.065   8.787  0.3099  0.6767  0.3320
13155SOL    HW243254   0.441   2.979   8.835  0.4363 -0.1274 -0.7749
13156SOL     OW43255   2.487   4.513   8.941  0.8786 -0.1840 -0.6399
13156SOL    HW143256   2.474   4.590   8.885  1.3989 -0.5472 -1.2685
13156SOL    HW243257   2.460   4.439   8.887  2.6601 -0.6715 -0.9236
13157SOL     OW43258   5.995   9.034   1.015  0.4327  0.2933 -0.3727
13157SOL    HW143259   5.929   9.006   0.951  0.0278  0.0008  0.1608
13157SOL    HW243260   6.025   9.119   0.983 -0.3676  0.5361 -0.5186
13158SOL     OW43261   5.221   5.605   6.469 -0.0623 -0.0294  0.2561
13158SOL    HW143262   5.134   5.607   6.509 -0.0367 -0.9098  0.3620
13158SOL    HW243263   5.210   5.553   6.390  0.7187 -1.6800  1.1709
13159SOL     OW43264   4.958   5.918   9.206 -0.3803  0.4202 -0.5852
13159SOL    HW143265   4.899   5.862   9.156  0.4698  0.2439 -1.3929
13159SOL    HW243266   4.900   5.962   9.269 -1.1232 -1.0130 -0.2261
13160SOL     OW43267   6.608   8.689   7.181  0.4392  0.5924  0.4519
13160SOL    HW143268   6.542   8.758   7.178 -0.8116 -0.5428  1.0592
13160SOL    HW243269   6.605   8.656   7.271  0.6641 -0.5667  0.0522
13161SOL     OW43270   6.845   2.452   2.000  0.1971  0.3669  0.1322
13161SOL    HW143271   6.853   2.483   1.910 -0.9498 -1.0030 -0.4821
13161SOL    HW243272   6.901   2.374   2.003  0.2073  0.3900  0.5892
13162SOL     OW43273   1.144   6.142   9.947  0.1203 -1.0767 -0.2632
13162SOL    HW143274   1.092   6.074   9.903 -0.4034  0.3537 -1.9777
13162SOL    HW243275   1.123   6.222   9.899  2.3248 -0.0668  0.3623
13163SOL     OW43276   8.411   9.783   3.401 -0.7130 -0.1218  0.3929
13163SOL    HW143277   8.453   9.859   3.441 -0.4397  0.2702 -0.6101
13163SOL    HW243278   8.415   9.715   3.469 -2.1621  1.1098  1.8027
13164SOL     OW43279   6.892   5.416   5.765  0.0096  0.8682  0.4709
13164SOL    HW143280   6.855   5.369   5.689 -1.0155 -0.5719  1.8009
13164SOL    HW243281   6.986   5.399   5.760 -0.1422  0.1056 -0.0448
13165SOL     OW43282   6.028   4.353   6.070  0.1919 -0.4651 -0.0464
13165SOL    HW143283   5.992   4.282   6.017 -0.9820  0.1094 -0.0625
13165SOL    HW243284   6.119   4.361   6.041 -0.6073  0.3480 -2.5986
13166SOL     OW43285   5.659   6.139   0.735  0.2848  0.1488 -0.0710
13166SOL    HW143286   5.580   6.088   0.720 -0.9936  2.1423 -0.4783
13166SOL    HW243287   5.685   6.118   0.825 -1.2400  0.1533  0.3891
13167SOL     OW43288   9.539   5.520   5.748 -0.1486  0.3292 -0.4092
13167SOL    HW143289   9.565   5.600   5.703  1.3881  0.0711 -0.0169
13167SOL    HW243290   9.620   5.470   5.757 -0.8789 -0.7503  0.4001
13168SOL     OW43291   0.298   7.689   6.782  0.1698  0.1634  0.1157
13168SOL    HW143292   0.386   7.666   6.814  1.3972  0.3459 -2.8174
13168SOL    HW243293   0.297   7.785   6.782 -0.1396  0.1621  0.3807
13169SOL     OW43294   6.930   6.867   4.621  0.4397  0.2531 -0.3326
13169SOL    HW143295   7.025   6.863   4.610  0.3633 -0.1832 -0.8869
13169SOL    HW243296   6.913   6.812   4.698  0.8534  2.2884  1.2907
13170SOL     OW43297   3.410   2.905   8.300 -0.3835  0.1021 -0.2094
13170SOL    HW143298   3.410   2.970   8.230  0.0593 -0.4934 -0.7737
13170SOL    HW243299   3.496   2.914   8.341  0.1547 -0.9338 -1.0679
13171SOL     OW43300   7.914   6.551   2.131 -0.1802 -0.2269 -0.3632
13171SOL    HW143301   7.928   6.549   2.226 -0.0593  0.1996 -0.3718
13171SOL    HW243302   7.967   6.479   2.097 -0.4623 -0.5778 -0.0781
13172SOL     OW43303   8.888   2.998  10.351  0.1791  0.4228  0.0801
13172SOL    HW143304   8.944   2.921  10.359 -0.1831  0.2655  1.4064
13172SOL    HW243305   8.948   3.070  10.338  0.8314  0.3932  2.4205
13173SOL     OW43306   4.973   9.399   2.271  0.0900 -0.0298  0.7366
13173SOL    HW143307   5.013   9.485   2.285  0.2606 -0.0722  0.5000
13173SOL    HW243308   4.887   9.419   2.233  0.2348  0.0252  0.4389
13174SOL     OW43309   3.604   7.457   0.493  0.1806 -0.3940  0.1690
13174SOL    HW143310   3.544   7.453   0.418  0.5799 -1.1801 -0.1270
13174SOL    HW243311   3.610   7.550   0.515 -0.9291 -0.2824  0.0325
13175SOL     OW43312   8.874   5.483   6.634 -0.2422 -0.4035  0.7863
13175SOL    HW143313   8.845   5.394   6.654 -3.2061 -0.1131 -1.5867
13175SOL    HW243314   8.958   5.471   6.590 -1.1823 -2.1898 -0.6402
13176SOL     OW43315   0.298   8.114   4.325  0.1161 -0.1616  0.2588
13176SOL    HW143316   0.302   8.021   4.345  0.6523 -0.0806  0.5518
13176SOL    HW243317   0.384   8.135   4.289 -0.7116 -0.2375 -1.9305
13177SOL     OW43318   5.015   0.618   9.619 -0.1441 -0.1555  0.6564
13177SOL    HW143319   5.011   0.522   9.615  0.6000 -0.2190  1.3074
13177SOL    HW243320   4.932   0.643   9.659 -0.2411 -0.5423  0.7026
13178SOL     OW43321   0.767   9.021   8.569 -0.2496 -0.0598 -0.2030
13178SOL    HW143322   0.825   8.988   8.500  1.9020 -0.0374  1.4761
13178SOL    HW243323   0.732   8.943   8.611  1.5800 -0.2488  1.1218
13179SOL     OW43324   0.459   9.230   1.012 -0.2575  0.4778 -0.2868
13179SOL    HW143325   0.420   9.316   1.028 -1.4910  0.0962 -1.1288
13179SOL    HW243326   0.488   9.200   1.098 -0.0331  1.6230  0.0487
13180SOL     OW43327   4.799   7.441   2.627 -0.3532  0.6407 -0.2593
13180SOL    HW143328   4.743   7.473   2.698 -0.3056  3.3296 -1.3160
13180SOL    HW243329   4.837   7.360   2.662 -2.8562  0.0728  1.4701
13181SOL     OW43330   9.036   0.349   4.664 -0.0294  0.1720  0.1558
13181SOL    HW143331   9.109   0.406   4.685  0.8644 -0.5317 -0.9827
13181SOL    HW243332   8.958   0.405   4.674  0.6732  1.0458  0.9071
13182SOL     OW43333   9.538   9.794   1.229  0.2184  0.1905 -0.3024
13182SOL    HW143334   9.566   9.720   1.281 -0.3236 -0.8028 -1.3780
13182SOL    HW243335   9.449   9.813   1.259  0.3207  0.3450 -0.0957
13183SOL     OW43336   4.501   2.878  10.199  0.0419  0.2014 -0.3033
13183SOL    HW143337   4.443   2.804  10.212 -0.8668  1.0541  0.6255
13183SOL    HW243338   4.516   2.881  10.104 -0.2694 -0.8843 -0.3913
13184SOL     OW43339   1.694   8.913   0.328  0.3680 -0.5050  0.0996
13184SOL    HW143340   1.771   8.969   0.316 -0.5052  0.5309 -1.0108
13184SOL    HW243341   1.668   8.928   0.419 -0.0087  1.1798 -0.2454
13185SOL     OW43342   7.460   7.316   8.504 -0.0066 -0.0467  0.2021
13185SOL    HW143343   7.522   7.363   8.449  0.0060 -0.2830  0.0138
13185SOL    HW243344   7.513   7.255   8.555 -0.2197 -1.3446 -1.0614
13186SOL     OW43345   7.339   6.691   4.799  0.1351 -0.0668 -0.4733
13186SOL    HW143346   7.364   6.603   4.829 -0.0649 -0.2548 -0.8429
13186SOL    HW243347   7.291   6.728   4.873  0.9786  0.0717  0.0119
13187SOL     OW43348   7.866   1.044   0.390 -0.1925 -0.5715 -0.3171
13187SOL    HW143349   7.860   1.032   0.296 -1.3217  1.8130 -0.6247
13187SOL    HW243350   7.960   1.047   0.408  0.0251 -0.5262 -1.4321
13188SOL     OW43351   3.559   4.051   0.678  0.3340  0.4969 -0.0097
13188SOL    HW143352   3.570   4.140   0.645  0.6468  0.0381 -1.2008
13188SOL    HW243353   3.508   4.007   0.610 -1.2613  0.1943  1.3330
13189SOL     OW43354   4.241   6.979   8.349 -0.2368 -0.1025 -0.1183
13189SOL    HW143355   4.249   6.892   8.389  0.0979 -0.8821 -1.8019
13189SOL    HW243356   4.224   7.037   8.423  0.5362 -1.4438  1.1855
13190SOL     OW43357   5.882   2.659   0.424 -0.3305  0.0363 -0.6296
13190SOL    HW143358   5.797   2.702   0.423  0.7263  2.4720  1.7298
13190SOL    HW243359   5.934   2.705   0.358  0.0040  0.5802  0.0029
13191SOL     OW43360   9.282   4.203   6.058  0.0242  0.0396  0.1945
13191SOL    HW143361   9.296   4.296   6.039  0.1663 -0.1735 -0.7978
13191SOL    HW243362   9.191   4.198   6.089 -0.2016  0.4164 -0.3967
13192SOL     OW43363   8.294   7.487   7.302  0.3836  0.2560 -0.1464
13192SOL    HW143364   8.289   7.493   7.397  2.8965  0.9398  0.0319
13192SOL    HW243365   8.265   7.399   7.281  0.1084 -0.0107  1.2817
13193SOL     OW43366   1.220   6.560   8.194  0.6751 -0.0420 -0.7118
13193SOL    HW143367   1.293   6.565   8.256 -1.5703 -0.1301  2.2027
13193SOL    HW243368   1.188   6.650   8.189 -1.6555 -0.5866  1.7464
13194SOL     OW43369   8.079   9.411   2.591 -0.7396  0.0389 -0.6206
13194SOL    HW143370   8.010   9.450   2.644  1.0720  1.6444  0.6859
13194SOL    HW243371   8.142   9.377   2.654 -0.1960 -1.2227 -1.7806
13195SOL     OW43372   1.809   5.867   7.284  0.1316  0.0932 -0.5000
13195SOL    HW143373   1.789   5.914   7.204  1.9245  1.6808 -0.0691
13195SOL    HW243374   1.892   5.823   7.267  1.6086  2.1190  1.0909
13196SOL     OW43375  10.097   1.250   1.136 -0.2285 -0.5358 -0.1423
13196SOL    HW143376  10.020   1.195   1.152  0.1143 -1.2149 -0.7528
13196SOL    HW243377  10.096   1.268   1.042 -2.3763  3.6553  0.4536
13197SOL     OW43378   0.124   5.693   7.973 -0.3623 -0.1622  0.0983
13197SOL    HW143379   0.040   5.731   7.948 -0.8679 -0.8981  0.6242
13197SOL    HW243380   0.153   5.746   8.048  0.8339  1.6173 -1.5294
13198SOL     OW43381   7.134   7.843   5.260  1.0183 -0.2695 -0.0110
13198SOL    HW143382   7.115   7.924   5.213 -1.6023 -1.4835 -1.2948
13198SOL    HW243383   7.209   7.864   5.315  2.4830  2.0882 -2.6285
13199SOL     OW43384   4.532   8.957   4.694  0.4359  0.0429  0.2070
13199SOL    HW143385   4.580   9.023   4.744 -1.0744  0.1823  1.5211
13199SOL    HW243386   4.599   8.892   4.670  1.7905  1.6035 -0.4282
13200SOL     OW43387   2.542   0.402  10.357 -0.3546 -0.4685 -0.4402
13200SOL    HW143388   2.542   0.358  10.442  0.0564  2.1384  1.0335
13200SOL    HW243389   2.451   0.404  10.331 -0.6646 -0.1959  0.5984
13201SOL     OW43390   8.464   4.435   7.071 -0.0140  0.4871  0.6239
13201SOL    HW143391   8.416   4.352   7.080 -2.4091  1.8317  1.1122
13201SOL    HW243392   8.442   4.483   7.151  1.8288  1.3832  0.6318
13202SOL     OW43393   5.130   5.076   4.460  0.2119  0.3512 -0.0991
13202SOL    HW143394   5.225   5.092   4.462  0.3272 -0.2049 -0.8165
13202SOL    HW243395   5.122   4.986   4.427 -0.5439  0.1479  0.6288
13203SOL     OW43396   6.646   3.824   0.098 -0.5011  0.5977  0.0912
13203SOL    HW143397   6.624   3.760   0.031  0.3634  0.6296 -0.2390
13203SOL    HW243398   6.622   3.908   0.059  0.2358  0.6380 -0.2892
13204SOL     OW43399   7.161   9.636   4.278  0.6339 -0.0942 -0.6475
13204SOL    HW143400   7.075   9.670   4.252  0.0159  0.7022  2.1244
13204SOL    HW243401   7.220   9.667   4.209 -0.8327  1.8115 -1.1596
13205SOL     OW43402   0.242   5.194   7.734 -0.3239  0.2604 -0.0435
13205SOL    HW143403   0.280   5.239   7.659 -1.3497  1.1799 -0.0321
13205SOL    HW243404   0.185   5.127   7.696  0.1137 -0.1085 -0.0642
13206SOL     OW43405   9.742   9.753   2.546 -0.0413 -0.5749 -0.1376
13206SOL    HW143406   9.675   9.755   2.478 -0.0798  1.4855 -0.1113
13206SOL    HW243407   9.824   9.744   2.498 -0.1316  0.0052 -0.4133
13207SOL     OW43408   0.317   3.587   3.180 -0.2207  0.6029 -0.1588
13207SOL    HW143409   0.270   3.623   3.105 -1.0981 -0.2870 -0.0670
13207SOL    HW243410   0.379   3.655   3.205 -0.8581  1.4564 -0.8423
13208SOL     OW43411   6.459   6.019   2.691  0.2470  0.3214 -0.2213
13208SOL    HW143412   6.524   6.016   2.761  1.1681 -1.6186 -1.0963
13208SOL    HW243413   6.474   6.104   2.648  1.0265  0.6440  0.6547
13209SOL     OW43414   3.917   6.675   1.010 -0.1451  0.1921  0.0531
13209SOL    HW143415   3.895   6.724   0.932  0.6590 -0.4119 -0.5689
13209SOL    HW243416   3.873   6.722   1.081 -1.5747  0.2708 -0.8470
13210SOL     OW43417   4.431   4.674   5.764 -0.7420  0.1028 -0.0857
13210SOL    HW143418   4.342   4.693   5.734 -1.1554  0.8296  1.5339
13210SOL    HW243419   4.422   4.597   5.820 -0.2061 -0.3310 -0.5806
13211SOL     OW43420   9.891   4.907   9.516 -0.2166 -0.2870 -0.1766
13211SOL    HW143421   9.954   4.949   9.458  1.2525 -1.5739  0.4420
13211SOL    HW243422   9.806   4.928   9.477  0.3357  3.5197  0.2492
13212SOL     OW43423   9.955   5.536   2.220 -0.2377  0.7791 -0.3015
13212SOL    HW143424  10.019   5.539   2.148  0.7859  1.7295  0.5982
13212SOL    HW243425   9.987   5.466   2.276 -1.5538 -0.5867 -1.1959
13213SOL     OW43426   0.253   2.125   7.992 -0.1693 -0.1659 -0.1060
13213SOL    HW143427   0.224   2.170   8.071 -0.5334  0.5537 -0.6313
13213SOL    HW243428   0.327   2.177   7.960  0.7983 -1.1812  0.4444
13214SOL     OW43429   5.620   2.451   8.717  0.0365  0.2111 -0.1212
13214SOL    HW143430   5.568   2.395   8.660 -1.4127 -0.8620  2.1308
13214SOL    HW243431   5.709   2.416   8.712 -0.6512 -1.7266  0.4780
13215SOL     OW43432   0.513   6.853   5.824 -0.1565 -0.3153 -0.2351
13215SOL    HW143433   0.460   6.929   5.802  1.2328  1.6139  2.5095
13215SOL    HW243434   0.455   6.796   5.874 -0.7073 -0.2006 -0.7316
13216SOL     OW43435   7.176   1.736   3.853  0.1688  0.1239  0.2028
13216SOL    HW143436   7.258   1.733   3.804 -0.7479  1.9579 -1.5984
13216SOL    HW243437   7.125   1.663   3.818  1.2387 -1.4606  1.8313
13217SOL     OW43438   9.901   9.330   7.872 -0.2239 -0.2165  0.0391
13217SOL    HW143439   9.896   9.425   7.884  0.9337  0.0231 -1.2481
13217SOL    HW243440   9.897   9.317   7.778 -1.8517 -1.5732  0.2389
13218SOL     OW43441   0.037   4.051   7.046 -0.1317 -0.0747 -0.0730
13218SOL    HW143442   0.085   4.119   7.093  1.4846 -1.0169 -0.2618
13218SOL    HW243443   0.105   4.000   7.002 -1.4219 -0.7291 -1.4075
13219SOL     OW43444   2.785   4.949   4.719 -0.2567 -0.2316 -0.1684
13219SOL    HW143445   2.696   4.951   4.683 -0.0011  0.1660 -0.7944
13219SOL    HW243446   2.815   4.859   4.704 -1.2006 -0.9246  1.7109
13220SOL     OW43447   9.360   1.356   0.689  0.2353  0.5152  0.7417
13220SOL    HW143448   9.292   1.366   0.757  0.4836  0.8860  0.9321
13220SOL    HW243449   9.441   1.379   0.733  0.8630 -2.2736  1.2424
13221SOL     OW43450   4.696   1.024   0.343 -0.2203 -0.3124 -0.5287
13221SOL    HW143451   4.682   0.953   0.280 -2.0627 -0.1923 -0.3106
13221SOL    HW243452   4.667   1.103   0.297 -1.2502 -0.1706  0.3240
13222SOL     OW43453   1.092   9.732   9.549 -0.3185  0.0082 -0.0195
13222SOL    HW143454   1.143   9.805   9.584 -2.1151  0.8743  0.9138
13222SOL    HW243455   1.035   9.706   9.621  1.4273 -3.5302  0.2788
13223SOL     OW43456   7.349   8.790   1.001 -0.2280  0.4235  0.0688
13223SOL    HW143457   7.412   8.719   0.998 -0.9880 -0.2388 -2.1641
13223SOL    HW243458   7.292   8.769   1.075  2.8688  1.8196  3.1493
13224SOL     OW43459   6.456   9.696   0.874 -0.5384 -0.0089 -0.3739
13224SOL    HW143460   6.468   9.635   0.946 -0.5325  0.2376 -0.1643
13224SOL    HW243461   6.419   9.775   0.914 -0.1370  0.2862 -0.5678
13225SOL     OW43462   8.805   1.619   0.238 -0.0657  0.4424 -0.0927
13225SOL    HW143463   8.770   1.683   0.301 -0.6586  0.4877 -0.4625
13225SOL    HW243464   8.773   1.535   0.269  0.7514  0.3085  0.4191
13226SOL     OW43465   6.535   6.359   6.858  0.5414 -0.2285 -0.0480
13226SOL    HW143466   6.608   6.407   6.896 -1.7859  1.1995  3.0587
13226SOL    HW243467   6.565   6.267   6.858  2.6126  0.3893  0.2705
13227SOL     OW43468   5.619   6.025   7.973 -0.1239  0.1082  0.0124
13227SOL    HW143469   5.704   5.996   7.939  0.1333  1.1504 -0.2570
13227SOL    HW243470   5.636   6.110   8.013 -0.7302 -0.3883  1.4021
13228SOL     OW43471   8.202   2.359   6.925 -0.4135  0.2449  0.1038
13228SOL    HW143472   8.280   2.310   6.898 -1.5906 -1.6751  0.0152
13228SOL    HW243473   8.162   2.390   6.844 -1.4323 -1.5298 -0.1146
13229SOL     OW43474   2.901   0.218   4.887  0.4244  0.3660  0.4111
13229SOL    HW143475   2.878   0.279   4.957 -2.5361 -2.2406  1.9379
13229SOL    HW243476   2.950   0.149   4.930  0.5645 -0.1686 -0.5707
13230SOL     OW43477   2.233   7.872   6.202  0.4883  0.2380 -0.0404
13230SOL    HW143478   2.218   7.786   6.163  1.5232  0.0201  0.0212
13230SOL    HW243479   2.152   7.890   6.249 -1.2499  0.9739 -3.0414
13231SOL     OW43480   9.212   1.287   2.279  0.0125  0.1786  0.9440
13231SOL    HW143481   9.275   1.320   2.343 -0.1409  0.9282  0.7158
13231SOL    HW243482   9.264   1.234   2.218  0.4568  0.9212  0.6654
13232SOL     OW43483   4.627   5.877   3.367  0.3969 -0.5100  0.0664
13232SOL    HW143484   4.715   5.901   3.335  0.0962 -2.3125 -2.3893
13232SOL    HW243485   4.637   5.788   3.402 -0.0232  0.1598  2.0206
13233SOL     OW43486   2.370   9.800   6.060  0.0072  0.0692 -0.1941
13233SOL    HW143487   2.276   9.784   6.063 -0.1265  0.7388 -0.6636
13233SOL    HW243488   2.393   9.826   6.150 -0.4966  1.1969 -0.3791
13234SOL     OW43489   9.463   2.744   6.817 -0.2037 -0.1415 -0.3221
13234SOL    HW143490   9.557   2.736   6.803 -0.1887  1.0084 -0.9382
13234SOL    HW243491   9.434   2.654   6.835  0.7953 -0.7211 -1.4989
13235SOL     OW43492   3.492   8.053   0.024 -0.0397 -0.3492  0.3818
13235SOL    HW143493   3.572   8.104   0.036  0.1012 -0.6925  0.9615
13235SOL    HW243494   3.450   8.055   0.110 -1.1358  0.6121 -0.1481
13236SOL     OW43495   2.871   3.796   7.854 -0.1701  0.7233  0.6210
13236SOL    HW143496   2.855   3.847   7.774 -1.4797  2.6017  1.9831
13236SOL    HW243497   2.941   3.735   7.830 -0.9794  0.7306 -2.1337
13237SOL     OW43498   1.950   5.408   3.231  0.3931 -0.0443  0.3840
13237SOL    HW143499   1.983   5.405   3.141  0.3291  2.6491  0.1620
13237SOL    HW243500   2.007   5.472   3.275 -0.0585 -0.7269  2.0457
13238SOL     OW43501   1.873   6.667   1.030 -0.7648  0.7217 -0.0638
13238SOL    HW143502   1.908   6.704   1.111 -0.7083 -0.4219  0.4470
13238SOL    HW243503   1.789   6.627   1.056 -0.3166 -0.4496 -0.3685
13239SOL     OW43504   9.203   1.614   9.825 -0.2345  0.0405 -0.6300
13239SOL    HW143505   9.165   1.527   9.820 -0.3047 -0.0009  0.3996
13239SOL    HW243506   9.270   1.615   9.757 -1.7666 -0.0135 -2.2194
13240SOL     OW43507   9.736   2.052  10.030  0.3133 -0.2046  0.3893
13240SOL    HW143508   9.787   2.114  10.081  0.0507 -0.0503  0.4658
13240SOL    HW243509   9.785   1.970  10.036  3.8936  1.1298 -4.3842
13241SOL     OW43510   0.301   6.527   9.968  0.1143  0.2576  0.3214
13241SOL    HW143511   0.257   6.611   9.982 -0.3637 -0.2017  1.6915
13241SOL    HW243512   0.325   6.528   9.875 -0.6654  1.5258  0.1117
13242SOL     OW43513   6.325   4.154   2.350  0.3502 -0.1082 -0.4119
13242SOL    HW143514   6.279   4.086   2.302 -1.1157  0.8275 -0.3861
13242SOL    HW243515   6.299   4.143   2.441  1.5779 -0.6483 -0.1051
13243SOL     OW43516   6.052   0.668   5.228 -0.2078  0.2987 -0.1338
13243SOL    HW143517   6.098   0.588   5.202 -0.5754  0.4567 -1.3330
13243SOL    HW243518   6.018   0.649   5.316  1.4516 -0.1027  0.4499
13244SOL     OW43519   5.278   3.614   0.783  0.5077  0.2309  0.4629
13244SOL    HW143520   5.356   3.652   0.742  0.8178 -1.4242 -0.5249
13244SOL    HW243521   5.206   3.639   0.725  0.6956 -0.5755 -0.1260
13245SOL     OW43522   1.634   2.592   6.193 -0.1172  0.0943  0.0769
13245SOL    HW143523   1.546   2.565   6.165  0.3835 -1.4676 -0.1148
13245SOL    HW243524   1.692   2.535   6.143  0.9735  0.5391  0.8168
13246SOL     OW43525   4.136   6.051   2.757  0.1581 -0.4205 -0.5526
13246SOL    HW143526   4.070   6.061   2.689 -0.0505  1.3036 -0.1373
13246SOL    HW243527   4.114   5.968   2.800 -1.5475 -0.0335 -0.6317
13247SOL     OW43528   5.030   1.656   8.360  0.6514  0.4708 -0.3453
13247SOL    HW143529   5.068   1.696   8.282  2.8127 -0.5210  0.1382
13247SOL    HW243530   4.945   1.623   8.331  1.3314  0.2802 -2.2393
13248SOL     OW43531   2.963   9.253   3.748 -0.2961 -0.3808 -0.0774
13248SOL    HW143532   2.956   9.218   3.837  2.3087 -0.7738  0.0498
13248SOL    HW243533   2.897   9.204   3.698 -0.9565 -1.0277  1.3541
13249SOL     OW43534   8.418   5.923   8.414  0.3963 -0.1453 -0.3915
13249SOL    HW143535   8.337   5.963   8.383  0.8528 -0.4357 -2.0835
13249SOL    HW243536   8.398   5.890   8.501 -0.5710  1.9721  0.2493
13250SOL     OW43537   4.749   7.483   7.851  0.2631 -0.0057  0.0563
13250SOL    HW143538   4.840   7.461   7.833  1.5578  1.5315  3.6968
13250SOL    HW243539   4.698   7.424   7.795  3.3667  0.3211 -3.5454
13251SOL     OW43540   5.747   0.092   7.590 -0.0465  0.7524 -0.2060
13251SOL    HW143541   5.707   0.038   7.659  0.8767  1.7766  1.2053
13251SOL    HW243542   5.713   0.180   7.607 -2.0123  0.6173 -2.8345
13252SOL     OW43543   4.326   2.779   5.879  0.0617  0.3220 -0.1736
13252SOL    HW143544   4.298   2.816   5.963 -1.8557 -1.1023 -0.1080
13252SOL    HW243545   4.348   2.856   5.826 -0.6257  1.3760  0.9936
13253SOL     OW43546  10.232   9.773   7.542  0.1970 -0.1081 -0.1015
13253SOL    HW143547  10.195   9.710   7.480  1.1254  0.8121 -1.6428
13253SOL    HW243548  10.170   9.845   7.542 -0.9695 -1.0277  1.8164
13254SOL     OW43549   9.091   1.475   8.667  0.0292  0.0657  0.2303
13254SOL    HW143550   9.101   1.382   8.683 -0.3535 -0.4400 -2.1360
13254SOL    HW243551   9.088   1.514   8.754 -0.5390 -2.1989  1.2992
13255SOL     OW43552   8.164   1.415   1.732  0.6297 -0.1196  0.6439
13255SOL    HW143553   8.248   1.457   1.713  0.9082 -0.4097  1.2270
13255SOL    HW243554   8.123   1.472   1.796  1.0722 -0.8031  1.5493
13256SOL     OW43555   3.020   5.767   0.431  0.5017 -0.5241  0.4551
13256SOL    HW143556   2.987   5.697   0.375 -1.3624 -0.3767  1.3144
13256SOL    HW243557   2.961   5.840   0.415  1.1229  0.1601  1.1936
13257SOL     OW43558   7.305   9.202   7.806  0.1183 -0.3083 -0.0789
13257SOL    HW143559   7.322   9.128   7.748  0.8342 -1.6420  1.7275
13257SOL    HW243560   7.385   9.255   7.801 -1.0646  1.4035 -2.7322
13258SOL     OW43561   5.170   5.466   4.268  0.2113  0.4701 -0.3319
13258SOL    HW143562   5.085   5.508   4.267 -1.0429 -1.8170  1.2612
13258SOL    HW243563   5.190   5.454   4.361  1.3052 -0.8363 -0.7004
13259SOL     OW43564   9.638  10.346   6.846  0.6142  0.1019  0.0153
13259SOL    HW143565   9.557  10.299   6.864 -0.2857  2.1288  1.6744
13259SOL    HW243566   9.706  10.295   6.889 -0.1147 -0.4765  0.5055
13260SOL     OW43567   7.828   4.816   1.881  0.2197 -0.3630 -0.0660
13260SOL    HW143568   7.849   4.903   1.917 -0.2726 -0.6615  1.0031
13260SOL    HW243569   7.907   4.765   1.896  0.4240 -0.1654 -0.4687
13261SOL     OW43570   1.378   6.765   4.589  0.1704  0.0404 -0.0575
13261SOL    HW143571   1.380   6.860   4.601 -0.6312  0.1609 -0.7517
13261SOL    HW243572   1.425   6.730   4.664  0.1953  0.9758  0.3740
13262SOL     OW43573   0.374   6.538   8.580  0.3328 -0.4108 -0.1832
13262SOL    HW143574   0.295   6.589   8.596  0.2673  0.0611 -1.8514
13262SOL    HW243575   0.441   6.578   8.636  0.0871  1.0196 -0.8751
13263SOL     OW43576   0.807   1.958   8.131  0.2272 -0.2477  0.3708
13263SOL    HW143577   0.752   1.979   8.055  0.4107  3.0838  0.9831
13263SOL    HW243578   0.761   1.998   8.205  1.2861 -1.2426  1.6065
13264SOL     OW43579   1.223   5.152   8.126 -0.5108  0.1240 -0.2567
13264SOL    HW143580   1.285   5.222   8.108 -1.6828  0.9075 -1.4065
13264SOL    HW243581   1.163   5.152   8.052 -1.2525 -1.3240  0.2891
13265SOL     OW43582   8.274   7.241   9.517 -0.4804 -0.0073  0.2683
13265SOL    HW143583   8.311   7.276   9.598  1.5944  0.9163 -1.0058
13265SOL    HW243584   8.183   7.270   9.518 -0.5376 -0.1294  2.3068
13266SOL     OW43585   5.018   8.395   0.331  0.2538  0.2673 -0.2512
13266SOL    HW143586   5.062   8.480   0.337 -1.5763  1.2744 -0.4525
13266SOL    HW243587   5.063   8.350   0.260  1.3347  1.0127 -0.0585
13267SOL     OW43588   6.914   1.386   1.203  0.5543  0.1107  0.5484
13267SOL    HW143589   6.876   1.469   1.175  1.7755  0.8392  0.9827
13267SOL    HW243590   6.968   1.408   1.279 -0.2426 -1.3258  1.6073
13268SOL     OW43591   0.410   6.905   9.154 -0.9249 -0.2286  0.6050
13268SOL    HW143592   0.318   6.877   9.165 -1.2334 -0.0696 -1.2342
13268SOL    HW243593   0.449   6.836   9.100  0.5069 -1.0827  2.6065
13269SOL     OW43594   2.804   2.091   5.872 -0.3236  0.6888  0.7029
13269SOL    HW143595   2.881   2.042   5.899 -0.2639  1.5322  2.1794
13269SOL    HW243596   2.735   2.025   5.865  0.2127  0.1209  0.6493
13270SOL     OW43597   8.251   3.081   8.018 -0.1839  0.5262 -0.0027
13270SOL    HW143598   8.270   3.057   7.927  3.7877  1.6053  0.3193
13270SOL    HW243599   8.311   3.027   8.070 -0.4201  1.8375  1.7306
13271SOL     OW43600   0.048   0.685   3.014 -0.0924  0.1062 -0.1307
13271SOL    HW143601   0.119   0.662   2.955  0.4174  0.3101  0.3972
13271SOL    HW243602   0.027   0.776   2.992  0.0847  0.1762 -0.0133
13272SOL     OW43603   5.609  10.062  10.082  0.1758 -0.1580  0.1742
13272SOL    HW143604   5.623  10.002  10.008 -2.6538 -0.2228 -0.4249
13272SOL    HW243605   5.612  10.006  10.159 -1.7825 -1.0728 -0.3314
13273SOL     OW43606   0.222   9.292   1.647  0.6369  0.0934 -1.2318
13273SOL    HW143607   0.150   9.229   1.650  0.2343  0.5394 -1.2982
13273SOL    HW243608   0.300   9.241   1.669  0.2949 -0.3893 -1.1192
13274SOL     OW43609   3.086   2.893   6.045 -0.0834 -0.2430 -0.6150
13274SOL    HW143610   3.168   2.935   6.069  0.2387 -0.8104 -0.6949
13274SOL    HW243611   3.019   2.939   6.095  0.4719 -0.8762  0.7624
13275SOL     OW43612   7.181   1.496   0.707 -0.6246 -0.1046  0.5786
13275SOL    HW143613   7.098   1.482   0.662 -1.1707 -1.8286  2.0135
13275SOL    HW243614   7.237   1.423   0.679 -1.0726 -1.3898  2.7836
13276SOL     OW43615   2.740   7.864   7.879  0.2070  0.0643 -0.1580
13276SOL    HW143616   2.773   7.954   7.873  0.7488 -0.2086 -1.7589
13276SOL    HW243617   2.798   7.813   7.823 -0.6664 -1.1191 -0.0291
13277SOL     OW43618   8.318   3.106   1.719 -0.0098  0.8567  0.1618
13277SOL    HW143619   8.365   3.138   1.796 -1.0964 -1.1621  1.7619
13277SOL    HW243620   8.316   3.011   1.730  1.6836  0.2077 -3.4957
13278SOL     OW43621   5.638   0.969   0.362  0.4705  0.0490 -0.1830
13278SOL    HW143622   5.730   0.949   0.381  0.4902 -0.1010 -0.4313
13278SOL    HW243623   5.631   1.064   0.372 -0.2844 -0.2338  3.9782
13279SOL     OW43624   9.516   0.545   3.656  0.0325  0.2039 -0.4008
13279SOL    HW143625   9.551   0.565   3.743  1.2584  1.5866 -1.1716
13279SOL    HW243626   9.474   0.460   3.667 -0.8747  0.8643  1.8202
13280SOL     OW43627   4.027   5.436   8.425 -0.0696  0.5504  0.4178
13280SOL    HW143628   3.982   5.419   8.507 -0.0828 -0.0966  0.2768
13280SOL    HW243629   3.999   5.366   8.367 -0.6664  1.4201 -0.3882
13281SOL     OW43630   7.579   8.005   8.899 -0.1962 -0.0296 -0.0014
13281SOL    HW143631   7.673   7.994   8.891  0.0921  0.9957  1.5235
13281SOL    HW243632   7.554   7.949   8.972 -0.0079  2.7912  2.4231
13282SOL     OW43633   6.609   1.618   8.371  0.7904  0.5842 -0.1810
13282SOL    HW143634   6.668   1.665   8.431  0.1939  0.8766  0.1955
13282SOL    HW243635   6.532   1.674   8.366 -0.0400 -0.4546  0.4592
13283SOL     OW43636   3.630   4.548   0.564  0.2041  0.4732  0.5280
13283SOL    HW143637   3.611   4.539   0.470  0.9178 -0.4937  0.4569
13283SOL    HW243638   3.551   4.587   0.601 -1.2972 -1.8128 -0.0267
13284SOL     OW43639   5.763   4.380   7.757 -0.5391  0.4138 -0.2796
13284SOL    HW143640   5.705   4.331   7.816 -1.8281 -0.9341 -2.5298
13284SOL    HW243641   5.847   4.335   7.763 -0.6185  0.3562  0.5685
13285SOL     OW43642   9.811   0.641   0.423  0.7469  0.0923 -0.2964
13285SOL    HW143643   9.893   0.608   0.460  0.0763 -0.2843  0.9375
13285SOL    HW243644   9.746   0.574   0.446 -0.5320  1.8945  1.6745
13286SOL     OW43645   7.361   4.885   7.938  0.0184 -0.4362  0.0386
13286SOL    HW143646   7.348   4.796   7.969 -2.0212  0.2924  1.4841
13286SOL    HW243647   7.274   4.916   7.915  0.6681  1.2169 -0.3967
13287SOL     OW43648   0.216   8.502   8.360  0.3132 -0.6171  0.0786
13287SOL    HW143649   0.185   8.429   8.306  2.1653 -0.5027 -1.2639
13287SOL    HW243650   0.218   8.467   8.449  1.6553 -2.4279 -0.6029
13288SOL     OW43651   6.407   2.454   9.214  0.6312  0.4540 -0.4186
13288SOL    HW143652   6.331   2.462   9.271  1.6866 -0.7479  1.2673
13288SOL    HW243653   6.471   2.404   9.266  2.6157  1.5063 -1.6983
13289SOL     OW43654   6.867   6.159   5.821  0.2249  0.8145  1.2515
13289SOL    HW143655   6.952   6.190   5.790  2.0761 -1.2068  3.8378
13289SOL    HW243656   6.878   6.064   5.829 -2.6883  0.3384  0.6703
13290SOL     OW43657   5.809   6.073   3.914 -0.2955 -0.4510  0.5233
13290SOL    HW143658   5.721   6.070   3.877 -0.6896 -0.8262  1.4549
13290SOL    HW243659   5.855   5.998   3.876 -0.2440 -0.0334 -0.2619
13291SOL     OW43660   1.022   6.858   4.008  0.0896  0.3499 -0.0178
13291SOL    HW143661   0.966   6.853   3.930  0.8122 -0.4121 -0.4950
13291SOL    HW243662   1.065   6.773   4.012  0.2633  0.4802  1.0733
13292SOL     OW43663   1.125   0.693   3.504 -0.2391  0.1574 -0.8370
13292SOL    HW143664   1.175   0.653   3.432 -0.9848  1.2666 -2.0211
13292SOL    HW243665   1.076   0.620   3.542  0.7023 -0.5809 -0.9873
13293SOL     OW43666   5.872   0.983   1.900 -0.6344 -0.3731  0.3370
13293SOL    HW143667   5.909   1.017   1.819  1.0175  2.7473  2.2073
13293SOL    HW243668   5.849   0.892   1.880  1.1499 -0.2220 -3.1139
13294SOL     OW43669   2.436   1.189   9.957 -0.3417 -0.1695 -0.3135
13294SOL    HW143670   2.509   1.127   9.955 -0.1012  0.1158 -2.4349
13294SOL    HW243671   2.408   1.196   9.866 -1.8086  1.1648  0.1965
13295SOL     OW43672   4.034   5.935   0.382  0.1386  0.2215 -0.0375
13295SOL    HW143673   3.958   5.882   0.404 -0.6921  0.3373 -2.4206
13295SOL    HW243674   4.003   6.026   0.387  0.6612  0.3769  0.7625
13296SOL     OW43675   1.427   0.092   5.706  0.1161 -0.3984  0.3103
13296SOL    HW143676   1.465   0.005   5.714 -0.5823 -0.9960 -2.2010
13296SOL    HW243677   1.386   0.108   5.791 -0.0006 -2.6269  0.7230
13297SOL     OW43678   8.279   7.492   8.543  0.3650  0.0409 -0.0360
13297SOL    HW143679   8.291   7.407   8.585 -0.6231  0.0201  0.2372
13297SOL    HW243680   8.184   7.503   8.539  0.4616  0.6564 -1.0409
13298SOL     OW43681   1.408   5.211   0.796 -0.0793 -0.1767 -0.3990
13298SOL    HW143682   1.395   5.187   0.705 -0.4119  1.0729 -0.7042
13298SOL    HW243683   1.322   5.202   0.837  0.0798 -0.7840 -0.1920
13299SOL     OW43684   6.361   6.534   7.919  0.3542  0.3005  0.4923
13299SOL    HW143685   6.310   6.453   7.916 -1.1290  1.1423  1.5327
13299SOL    HW243686   6.445   6.508   7.957  0.3438 -0.9358 -0.2759
13300SOL     OW43687   5.624   4.258   9.098 -0.2089 -0.0238 -0.5285
13300SOL    HW143688   5.652   4.349   9.108  1.1015 -0.5392  0.8151
13300SOL    HW243689   5.570   4.241   9.175  0.0228 -0.5488 -0.4783
13301SOL     OW43690   4.962   9.221   4.810 -0.7647  0.1880 -0.0858
13301SOL    HW143691   4.996   9.310   4.800 -1.1600  0.5364  1.4139
13301SOL    HW243692   5.039   9.168   4.829 -0.5716  0.2685 -0.6332
13302SOL     OW43693   4.891   3.012   0.229  0.1688 -0.4006  0.1042
13302SOL    HW143694   4.806   3.044   0.200 -0.7773 -3.3687 -0.7086
13302SOL    HW243695   4.953   3.050   0.167 -0.6859  0.7594 -0.0723
13303SOL     OW43696   2.788   8.341   2.627  0.3348 -0.1079  0.3630
13303SOL    HW143697   2.744   8.275   2.573 -2.0247  1.5057  0.1580
13303SOL    HW243698   2.875   8.348   2.588 -0.4822 -0.7212 -1.7596
13304SOL     OW43699   3.051   2.582   0.957 -0.5318 -0.4724 -0.3577
13304SOL    HW143700   3.061   2.504   0.902  0.2682  0.0982 -1.0488
13304SOL    HW243701   2.975   2.627   0.919  0.3734  0.2206 -1.3970
13305SOL     OW43702   9.361   0.161   7.353 -0.0820 -0.0723 -1.0110
13305SOL    HW143703   9.302   0.122   7.288  0.2280 -0.1026 -1.2781
13305SOL    HW243704   9.413   0.223   7.303  0.0655  0.0058 -0.7621
13306SOL     OW43705   4.002   7.110   1.396  1.0630 -0.0963 -0.0848
13306SOL    HW143706   4.076   7.112   1.336  1.0003  1.0891 -0.1507
13306SOL    HW243707   4.020   7.180   1.458  0.0826  0.0926 -0.0020
13307SOL     OW43708   0.360   3.286   8.668 -0.0998  0.2705 -0.3201
13307SOL    HW143709   0.269   3.266   8.690  0.3818 -1.2520  0.4230
13307SOL    HW243710   0.412   3.230   8.726  1.2975  0.1242 -1.6394
13308SOL     OW43711   4.733   3.558   7.875  0.6546 -0.2343 -0.2483
13308SOL    HW143712   4.653   3.549   7.927 -0.7007  0.5912 -2.0368
13308SOL    HW243713   4.804   3.546   7.937 -0.7915  2.5437  2.2168
13309SOL     OW43714   8.851   1.327   5.811 -0.0905  0.1215 -0.1323
13309SOL    HW143715   8.826   1.259   5.873 -1.4640 -0.7690 -1.5830
13309SOL    HW243716   8.874   1.280   5.731  0.3774  1.2952 -0.7238
13310SOL     OW43717   7.991  10.306   4.656  0.1726  0.4610 -0.2169
13310SOL    HW143718   7.978  10.379   4.717  0.2352 -0.3058  0.7411
13310SOL    HW243719   7.956  10.337   4.573 -1.6268  0.8834  0.6506
13311SOL     OW43720   7.504   6.271   8.170 -0.1652 -0.7304 -0.2371
13311SOL    HW143721   7.456   6.353   8.161  0.5200 -0.4168 -1.1759
13311SOL    HW243722   7.435   6.204   8.178 -0.7233 -0.0655  0.7532
13312SOL     OW43723   4.248   5.486   2.847 -0.5039 -0.2785  0.5666
13312SOL    HW143724   4.295   5.404   2.834 -0.2175 -0.1185  0.5676
13312SOL    HW243725   4.224   5.515   2.759  2.5955  1.4809  0.1693
13313SOL     OW43726   3.095   6.488   0.541 -0.0463 -0.5145 -0.1194
13313SOL    HW143727   3.169   6.548   0.551 -1.1270  0.6862  1.0806
13313SOL    HW243728   3.025   6.542   0.504 -0.9424 -1.0892  0.6763
13314SOL     OW43729  10.015   7.542   1.749 -0.0294  0.4314 -0.3341
13314SOL    HW143730   9.955   7.616   1.742 -0.2152  0.3880  0.6006
13314SOL    HW243731  10.098   7.581   1.774 -0.5525  0.2299  2.0097
13315SOL     OW43732   4.752   3.565   7.607  0.1330 -0.3174 -0.3780
13315SOL    HW143733   4.754   3.556   7.702  0.2771 -1.5580 -0.4790
13315SOL    HW243734   4.798   3.647   7.589 -1.5528  0.9322  0.7189
13316SOL     OW43735   6.485   6.224   6.316 -0.1829 -0.1802 -0.2064
13316SOL    HW143736   6.482   6.256   6.406  0.2683  0.2394 -0.3315
13316SOL    HW243737   6.428   6.147   6.315  0.7700 -0.9370  0.7387
13317SOL     OW43738   5.116   4.581   8.949 -0.2578 -0.0966 -0.1311
13317SOL    HW143739   5.144   4.510   8.891  1.0786  0.7189 -0.5236
13317SOL    HW243740   5.195   4.605   8.997 -1.3246 -0.7411  2.0707
13318SOL     OW43741   5.978   2.260   6.227 -0.1887 -0.1866  0.0776
13318SOL    HW143742   5.979   2.270   6.322 -0.9171 -0.3379  0.1056
13318SOL    HW243743   5.885   2.255   6.204 -0.0839  1.2072 -0.7917
13319SOL     OW43744   0.307   6.397   7.251  0.5342  0.4227  0.1630
13319SOL    HW143745   0.369   6.428   7.317 -1.1484 -0.2116  2.1640
13319SOL    HW243746   0.272   6.476   7.211  1.2368  0.8371  0.3637
13320SOL     OW43747   6.683   3.455   1.863 -0.0830 -0.0689 -0.1429
13320SOL    HW143748   6.655   3.406   1.785 -1.4319  0.9484 -0.3498
13320SOL    HW243749   6.746   3.519   1.830  0.1192 -0.3058 -0.2191
13321SOL     OW43750   3.933   5.499   0.543  0.1074  0.3196  0.6807
13321SOL    HW143751   3.846   5.506   0.582  0.3069  0.9661  1.0133
13321SOL    HW243752   3.918   5.509   0.449 -0.2530 -0.2533  0.6693
13322SOL     OW43753   8.878   3.761   0.740  0.1932 -0.2188  0.0254
13322SOL    HW143754   8.841   3.825   0.801 -0.7441  0.2065 -0.9388
13322SOL    HW243755   8.868   3.802   0.654  0.6330 -1.1866 -0.5038
13323SOL     OW43756   6.379   9.209   2.297 -0.6201  0.1449 -0.4484
13323SOL    HW143757   6.463   9.173   2.267  1.1219  2.7796  0.7948
13323SOL    HW243758   6.367   9.287   2.243 -0.6696  1.4357  1.3380
13324SOL     OW43759   3.558   1.202   8.603 -0.3211 -0.0110 -0.0957
13324SOL    HW143760   3.608   1.235   8.528 -0.3667 -0.7647 -0.4598
13324SOL    HW243761   3.498   1.138   8.566  0.5733 -1.3866  0.7538
13325SOL     OW43762   8.727   8.709   7.029 -0.2651  0.0987  0.4364
13325SOL    HW143763   8.694   8.751   6.950 -0.8053  0.7728  1.0114
13325SOL    HW243764   8.744   8.781   7.089 -0.1803 -0.4322  1.0552
13326SOL     OW43765   2.065   7.997   2.403 -0.4437 -0.6022  0.0731
13326SOL    HW143766   2.161   7.998   2.406 -0.3852  0.5791 -1.1429
13326SOL    HW243767   2.039   7.967   2.491  1.0297 -0.2896  0.6520
13327SOL     OW43768   8.798   2.922   4.271 -0.0224 -0.8015 -0.3546
13327SOL    HW143769   8.795   2.828   4.286  3.5312 -0.8160  1.3777
13327SOL    HW243770   8.825   2.930   4.179  1.9979 -1.6680  0.0967
13328SOL     OW43771   2.566   1.245   0.258 -0.0400 -0.2138  0.3235
13328SOL    HW143772   2.603   1.325   0.295 -0.9569  0.6417 -0.5656
13328SOL    HW243773   2.627   1.176   0.284  0.6614  0.7412  1.2645
13329SOL     OW43774  10.135   1.578   9.187 -0.0233 -0.5447  0.2319
13329SOL    HW143775  10.172   1.655   9.143 -0.5174 -0.6239 -0.3293
13329SOL    HW243776  10.167   1.503   9.135  0.1360 -0.6970  0.5466
13330SOL     OW43777   2.064   3.448   7.285  0.0928 -0.4913 -0.5366
13330SOL    HW143778   2.108   3.525   7.250 -2.0856  0.2929 -1.7815
13330SOL    HW243779   1.971   3.467   7.272 -0.6031 -2.2872  1.4012
13331SOL     OW43780   4.371   3.517   6.210  0.3385  0.5597  0.4196
13331SOL    HW143781   4.335   3.587   6.155 -1.6883 -2.5653 -2.7189
13331SOL    HW243782   4.308   3.507   6.281 -0.3226  0.7960 -0.1199
13332SOL     OW43783   8.285   6.356   3.584 -0.1575 -0.0614  0.2822
13332SOL    HW143784   8.370   6.313   3.572 -0.6032 -0.6243 -1.0074
13332SOL    HW243785   8.305   6.432   3.639  1.0787 -0.5080  0.4901
13333SOL     OW43786   6.415   8.547   1.843 -0.4904  0.1811 -0.0231
13333SOL    HW143787   6.460   8.631   1.849  0.9518 -0.4924 -0.7576
13333SOL    HW243788   6.340   8.564   1.787 -0.1846  0.9777 -0.2028
13334SOL     OW43789   9.742   1.889   4.125  0.0697 -0.7284 -0.5000
13334SOL    HW143790   9.837   1.896   4.121  0.1990  0.5236  2.0916
13334SOL    HW243791   9.725   1.836   4.203 -1.3665 -0.7873 -0.8231
13335SOL     OW43792   2.634   7.505   5.481 -0.3551  0.2562  0.5810
13335SOL    HW143793   2.658   7.582   5.430  1.2800 -0.7796 -0.2941
13335SOL    HW243794   2.587   7.449   5.420  0.3631 -0.3698  0.5847
13336SOL     OW43795   9.717   4.763   0.145  0.3424  0.3888  0.6660
13336SOL    HW143796   9.637   4.795   0.103 -1.6532 -0.4301  3.5406
13336SOL    HW243797   9.743   4.835   0.204  1.1316  0.2357  0.5134
13337SOL     OW43798   6.477   9.210   2.803  0.4197 -0.0226 -0.1926
13337SOL    HW143799   6.545   9.269   2.836  0.6383 -0.9653  1.1232
13337SOL    HW243800   6.452   9.247   2.718  2.4059  0.4838 -0.6120
13338SOL     OW43801   2.859   4.277   0.091  0.3174  0.2615  0.3466
13338SOL    HW143802   2.869   4.287   0.186 -2.0570 -1.5099  0.8923
13338SOL    HW243803   2.947   4.258   0.059  0.7554 -2.4481  2.7400
13339SOL     OW43804   5.421   8.255   2.020  0.7912 -0.4118 -0.0533
13339SOL    HW143805   5.444   8.162   2.008  0.6012 -0.6607  1.2727
13339SOL    HW243806   5.407   8.263   2.114 -2.4516  0.2013 -0.4597
13340SOL     OW43807   2.262   0.116   6.121  0.1853 -0.2345  0.2837
13340SOL    HW143808   2.251   0.092   6.213 -0.6588  0.6597  0.4285
13340SOL    HW243809   2.346   0.078   6.097  0.5190 -0.3112  1.4872
13341SOL     OW43810   0.410   5.709   0.155 -0.4548 -0.2162  0.2396
13341SOL    HW143811   0.388   5.788   0.105  0.5786  0.2913  0.5728
13341SOL    HW243812   0.380   5.637   0.099 -0.3674  0.3754 -0.5871
13342SOL     OW43813  10.245   8.000   0.203 -0.0528  0.4277 -0.0999
13342SOL    HW143814  10.334   8.029   0.182  0.4023 -0.2020  0.8954
13342SOL    HW243815  10.236   7.916   0.158 -0.3061  0.6923 -0.5501
13343SOL     OW43816   5.585   6.838   2.849  0.2152 -0.2763 -0.1780
13343SOL    HW143817   5.677   6.863   2.849  0.0819  0.6509  2.6225
13343SOL    HW243818   5.539   6.916   2.818  0.3116 -0.3870 -0.6025
13344SOL     OW43819   2.188   4.716   2.729 -0.5072  0.1756  0.2880
13344SOL    HW143820   2.205   4.777   2.658  0.1988  0.2229  0.4912
13344SOL    HW243821   2.125   4.761   2.786 -0.4352  0.4683  0.1351
13345SOL     OW43822  10.327   7.847   7.451 -0.3478 -0.0123  0.1469
13345SOL    HW143823  10.366   7.765   7.483 -0.3840 -0.4169 -0.8095
13345SOL    HW243824  10.237   7.822   7.426 -0.0125  0.0407 -1.1971
13346SOL     OW43825   9.138   2.880   6.051  0.2613 -0.1357  0.9256
13346SOL    HW143826   9.070   2.813   6.053 -1.0167  1.1015  0.9912
13346SOL    HW243827   9.131   2.925   6.135 -0.1465  1.2056  0.2224
13347SOL     OW43828   8.623   3.870   5.507  0.5850 -0.7177 -0.1268
13347SOL    HW143829   8.707   3.906   5.480  0.7216 -2.1822 -1.8773
13347SOL    HW243830   8.642   3.780   5.533 -0.0274 -0.2095  2.3332
13348SOL     OW43831   0.147   9.941   7.096 -0.0845 -0.5790  0.6981
13348SOL    HW143832   0.164  10.002   7.168 -2.6705 -0.0384  0.9375
13348SOL    HW243833   0.135   9.856   7.138 -1.3532 -0.3081  0.9186
13349SOL     OW43834   6.747   5.082   4.893  0.1843 -0.0603  0.3689
13349SOL    HW143835   6.662   5.061   4.855  0.2151  0.1853  0.1664
13349SOL    HW243836   6.810   5.031   4.841  0.3704  1.3270 -0.8147
13350SOL     OW43837   6.131   3.673   7.884  0.3703 -0.7127  0.3486
13350SOL    HW143838   6.138   3.645   7.793  0.6263  1.3957 -0.3545
13350SOL    HW243839   6.219   3.663   7.919  0.2317 -1.6949  0.4216
13351SOL     OW43840   7.368   8.193   1.005  0.0901  0.5605  0.3697
13351SOL    HW143841   7.451   8.229   1.035 -0.2933  2.1789 -0.4149
13351SOL    HW243842   7.390   8.144   0.926 -0.0166  3.3552 -1.5086
13352SOL     OW43843   5.360   2.081   3.897  0.0336 -0.0403 -0.3498
13352SOL    HW143844   5.416   2.005   3.909  0.3110  0.0862 -0.8691
13352SOL    HW243845   5.352   2.119   3.985 -1.8622 -1.8843  0.3674
13353SOL     OW43846  10.268   2.396  10.179  0.4541  0.0744 -0.4619
13353SOL    HW143847  10.278   2.483  10.140 -0.7157  0.5667  0.2751
13353SOL    HW243848  10.331   2.395  10.251  0.8858  0.0874 -0.8376
13354SOL     OW43849   5.048   2.300   9.051  0.1222 -0.3462  0.4634
13354SOL    HW143850   5.058   2.214   9.010  0.2778  0.7210 -1.9060
13354SOL    HW243851   5.119   2.353   9.014 -0.4330  1.0172  1.2715
13355SOL     OW43852   2.534   5.111   6.436 -0.0811  0.0310 -0.6122
13355SOL    HW143853   2.522   5.017   6.422 -0.1792 -0.1081  0.3116
13355SOL    HW243854   2.622   5.129   6.403  0.8011 -0.8287  1.0972
13356SOL     OW43855   5.260   3.609  10.210  0.2295  0.2187  0.2314
13356SOL    HW143856   5.256   3.538  10.145  2.7916 -0.6631  0.9018
13356SOL    HW243857   5.176   3.605  10.255 -0.0639 -1.7962 -0.3654
13357SOL     OW43858   2.018   2.971   7.563 -0.1546 -0.0092 -0.1055
13357SOL    HW143859   1.933   2.949   7.524  0.4880  0.7374 -2.0502
13357SOL    HW243860   2.013   3.065   7.577  0.7026  0.2246 -1.2357
13358SOL     OW43861   0.026   5.329   8.844  0.3582  0.2477 -0.4778
13358SOL    HW143862  -0.036   5.402   8.837 -0.8654 -0.8728 -1.6956
13358SOL    HW243863   0.032   5.294   8.755 -0.0368 -1.9069  0.2963
13359SOL     OW43864   9.066   6.486   8.916 -0.0151  0.6659  0.0486
13359SOL    HW143865   8.991   6.525   8.960  0.0064  1.3045 -0.4797
13359SOL    HW243866   9.029   6.422   8.856  0.0272 -1.8396  2.5090
13360SOL     OW43867   7.124  10.148   1.773 -0.0373 -0.5095  0.6725
13360SOL    HW143868   7.096  10.058   1.792  1.3861 -0.4628  3.3806
13360SOL    HW243869   7.130  10.190   1.858  1.8016  1.4327 -0.3246
13361SOL     OW43870   6.598  10.183   9.185  0.4765 -0.1071  0.2571
13361SOL    HW143871   6.677  10.165   9.134  0.8487  2.9221 -0.4024
13361SOL    HW243872   6.622  10.257   9.241 -1.3436 -0.3824  1.4877
13362SOL     OW43873   1.595   6.271   6.443  0.4811 -0.2900  0.7094
13362SOL    HW143874   1.540   6.296   6.368  1.6717  0.3805  0.0179
13362SOL    HW243875   1.578   6.338   6.509  1.4847  0.7482 -0.0416
13363SOL     OW43876   0.741   2.359   3.492  0.1247 -0.1374 -0.0643
13363SOL    HW143877   0.707   2.338   3.404  0.4145  2.8341 -1.0030
13363SOL    HW243878   0.825   2.313   3.497  0.7150  0.6435 -1.9204
13364SOL     OW43879   3.460   6.610   4.499  0.0871 -0.0770 -0.2523
13364SOL    HW143880   3.410   6.549   4.553  0.5074  1.1846  1.6880
13364SOL    HW243881   3.395   6.671   4.464 -0.1771 -0.8474 -1.1380
13365SOL     OW43882   4.015   1.247   0.198 -0.1886 -0.6283 -0.1713
13365SOL    HW143883   4.038   1.161   0.164 -2.5700 -1.5705  0.4775
13365SOL    HW243884   3.926   1.238   0.230  0.2216  1.5295  1.8356
13366SOL     OW43885   6.773  10.065   5.718 -0.2557 -0.1023  0.0645
13366SOL    HW143886   6.727  10.110   5.789 -0.0289 -0.4669  0.4438
13366SOL    HW243887   6.863  10.099   5.723 -0.4856  0.6862 -0.7380
13367SOL     OW43888   1.814   0.327   6.418  0.7819 -0.0586 -0.4135
13367SOL    HW143889   1.794   0.381   6.341 -0.8423 -0.1649 -0.0979
13367SOL    HW243890   1.892   0.278   6.393  1.4966  1.4116 -1.2236
13368SOL     OW43891   1.433   6.586   3.239  0.4820  0.3072  0.5507
13368SOL    HW143892   1.515   6.571   3.286  0.7799  0.2058  0.0109
13368SOL    HW243893   1.449   6.665   3.187  0.3997  0.0333  0.1004
13369SOL     OW43894   7.513   9.935   8.939 -0.0573 -0.2581 -0.6639
13369SOL    HW143895   7.549   9.996   8.875 -0.3585  0.3025 -0.2984
13369SOL    HW243896   7.573   9.939   9.013 -2.0848  2.5364  0.9966
13370SOL     OW43897   9.456   1.800   3.039  0.7426 -0.1084 -0.3183
13370SOL    HW143898   9.420   1.735   2.979 -0.8305 -0.2836  0.7548
13370SOL    HW243899   9.414   1.882   3.012  0.9095  0.0230 -0.1741
13371SOL     OW43900   7.000   8.242   1.752 -0.3821 -0.3228 -0.0106
13371SOL    HW143901   7.073   8.238   1.690 -0.9054  0.0111 -0.6730
13371SOL    HW243902   6.927   8.200   1.706 -0.8344  0.1102  0.2967
13372SOL     OW43903   9.044   3.675   9.105 -0.1518  0.0468 -0.0654
13372SOL    HW143904   9.094   3.615   9.160  0.3903 -0.3692 -0.9950
13372SOL    HW243905   9.034   3.630   9.022 -0.0786  1.0678 -0.6537
13373SOL     OW43906   8.658   3.982   9.679  0.0443  0.5499 -0.1143
13373SOL    HW143907   8.703   3.924   9.741 -0.4017  2.0770  1.7487
13373SOL    HW243908   8.724   4.048   9.656 -0.0276  0.4356 -0.6505
13374SOL     OW43909   0.453   9.709   1.795 -0.0798  0.7295 -0.5958
13374SOL    HW143910   0.499   9.670   1.720 -1.7936 -2.0325 -0.3524
13374SOL    HW243911   0.372   9.744   1.757 -0.7809 -0.3437 -0.1177
13375SOL     OW43912   4.575   2.462   9.178  0.3374 -0.5559 -0.6974
13375SOL    HW143913   4.669   2.446   9.186  0.2815 -1.5292 -1.8280
13375SOL    HW243914   4.547   2.482   9.268  1.7069  0.3264 -0.4421
13376SOL     OW43915  10.007   4.033   2.151 -0.9628 -0.5210 -0.0087
13376SOL    HW143916   9.993   4.040   2.056  0.2353  2.0934 -0.0778
13376SOL    HW243917   9.920   4.046   2.189 -1.3082 -0.6647 -0.7473
13377SOL     OW43918   8.102   3.795   0.872  0.1818 -0.0030 -0.5642
13377SOL    HW143919   8.062   3.850   0.804  1.3533  0.9816 -0.5056
13377SOL    HW243920   8.145   3.725   0.824  0.6773  0.4734 -0.8348
13378SOL     OW43921   7.267   6.176   9.871  0.5587  0.0764  0.0603
13378SOL    HW143922   7.352   6.196   9.911 -0.4581 -0.0156  2.4082
13378SOL    HW243923   7.224   6.119   9.934 -0.3962 -1.7480 -2.1349
13379SOL     OW43924   3.540   9.346   0.644 -0.6240 -0.2842 -0.1715
13379SOL    HW143925   3.539   9.313   0.734  0.0196 -0.6290 -0.2875
13379SOL    HW243926   3.515   9.269   0.591  0.9783 -0.6379 -0.4539
13380SOL     OW43927   2.974   3.400   7.803  0.3332 -0.8457  0.4707
13380SOL    HW143928   3.031   3.325   7.786 -1.7462 -3.4422  3.9304
13380SOL    HW243929   2.961   3.401   7.897 -1.4067  2.7171  0.3828
13381SOL     OW43930   1.457   7.261   7.397  0.7498  0.5528 -0.4307
13381SOL    HW143931   1.493   7.333   7.344 -1.2724  2.1789  0.2642
13381SOL    HW243932   1.534   7.209   7.421  2.1841  1.9189 -1.7598
13382SOL     OW43933   5.232   5.305   2.900  0.1894 -0.5210  0.2125
13382SOL    HW143934   5.250   5.332   2.990 -1.0904 -0.7521  0.5631
13382SOL    HW243935   5.169   5.370   2.869  0.3614 -0.6451 -0.4061
13383SOL     OW43936   9.298   6.824   5.322  0.2280 -0.4078 -0.1512
13383SOL    HW143937   9.269   6.914   5.339  2.0227  0.1376  0.2353
13383SOL    HW243938   9.344   6.829   5.238 -1.5865 -1.4494 -1.2517
13384SOL     OW43939   1.380   6.908   1.244  0.3748  0.3722 -0.1331
13384SOL    HW143940   1.306   6.949   1.198  0.3332 -0.5296 -0.9096
13384SOL    HW243941   1.340   6.846   1.304  0.4280  1.6022  1.2205
13385SOL     OW43942   7.280   2.258   9.903  0.1240  0.0022  0.4626
13385SOL    HW143943   7.343   2.186   9.903  0.8245  0.5752  1.5644
13385SOL    HW243944   7.202   2.222   9.945  0.1871 -0.3288  0.2995
13386SOL     OW43945   0.510   4.101   7.998 -0.1020 -0.0097  0.4839
13386SOL    HW143946   0.500   4.009   7.974  1.3206 -0.3515  1.0739
13386SOL    HW243947   0.461   4.111   8.080 -2.5674  0.4660 -0.9750
13387SOL     OW43948  10.139   5.128   6.351 -0.1605  0.1083  0.0804
13387SOL    HW143949  10.150   5.043   6.392 -0.7798 -0.1526 -0.2811
13387SOL    HW243950  10.202   5.129   6.279  0.7192  0.4522  0.8436
13388SOL     OW43951   5.334   1.323   1.296  0.2183 -0.6512  0.3725
13388SOL    HW143952   5.375   1.247   1.337 -0.1760 -0.5848  0.9006
13388SOL    HW243953   5.268   1.287   1.237  0.3764 -0.7328  0.2465
13389SOL     OW43954   2.702   2.877   4.761 -0.3267  0.0444 -0.0942
13389SOL    HW143955   2.626   2.889   4.704 -2.4804 -0.3177  2.5271
13389SOL    HW243956   2.757   2.814   4.715 -2.1970 -0.6032 -1.5697
13390SOL     OW43957   4.111   3.421   3.333  0.1602 -0.1512  0.3040
13390SOL    HW143958   4.073   3.475   3.263 -0.0316 -2.4110 -1.4270
13390SOL    HW243959   4.041   3.360   3.357  1.3261 -1.6330  0.0295
13391SOL     OW43960   7.630   2.295   0.877 -1.0971 -0.2508 -0.2329
13391SOL    HW143961   7.696   2.284   0.945 -0.3646  2.4348 -0.3860
13391SOL    HW243962   7.549   2.312   0.925 -0.6634  1.2400  0.0181
13392SOL     OW43963   1.929   3.820   4.261  0.5130  0.6184 -0.1949
13392SOL    HW143964   2.025   3.811   4.266  0.4727  0.7002  1.4186
13392SOL    HW243965   1.900   3.740   4.217  1.2028 -0.4982  1.2718
13393SOL     OW43966   2.006   1.189   4.256 -0.5549  0.0216  0.0583
13393SOL    HW143967   1.911   1.183   4.248 -0.6434  2.0124 -0.9716
13393SOL    HW243968   2.021   1.275   4.296  0.7719 -1.2034  2.3862
13394SOL     OW43969   0.910   3.808   0.597 -0.0262  0.5810 -0.1006
13394SOL    HW143970   0.881   3.887   0.550 -1.8224  0.2860  0.4430
13394SOL    HW243971   0.906   3.833   0.689  0.3256  0.1444  0.0339
13395SOL     OW43972  10.321   8.410   1.134 -0.0363  0.4972  0.1458
13395SOL    HW143973  10.339   8.385   1.224  1.5430  0.7941 -0.0581
13395SOL    HW243974  10.349   8.501   1.127  0.0625  0.4164 -0.6923
13396SOL     OW43975   3.073   2.717   3.477 -0.3282 -0.5993  1.0707
13396SOL    HW143976   3.006   2.740   3.413  0.6788 -0.4678  0.0291
13396SOL    HW243977   3.025   2.701   3.558 -1.5194  0.4081  0.5875
13397SOL     OW43978   1.134  10.160   4.072  0.4181  0.0405  0.0845
13397SOL    HW143979   1.051  10.152   4.025 -0.2270  2.5461  0.6519
13397SOL    HW243980   1.151  10.071   4.104 -2.4306 -0.4520  0.5714
13398SOL     OW43981   0.978   7.459   2.188  0.7271 -0.4607  0.3024
13398SOL    HW143982   0.949   7.469   2.279  0.3725 -2.4296  0.4472
13398SOL    HW243983   1.073   7.452   2.193  0.8383  0.8221  0.3513
13399SOL     OW43984   8.302   2.967   0.698 -0.0451  0.0584 -0.3590
13399SOL    HW143985   8.243   3.029   0.741  0.2434  1.4748 -1.8798
13399SOL    HW243986   8.249   2.889   0.682 -1.2661  0.9805 -0.9016
13400SOL     OW43987   3.656   3.483   1.089  0.4385  0.4379 -0.1539
13400SOL    HW143988   3.729   3.423   1.102  0.3227  0.2562 -0.3439
13400SOL    HW243989   3.621   3.498   1.176 -1.3780 -2.0546 -0.3744
13401SOL     OW43990   5.955   8.755   9.891 -0.3371 -0.0099  0.1275
13401SOL    HW143991   5.895   8.727   9.960  0.6732 -0.5574  0.8184
13401SOL    HW243992   5.932   8.846   9.874 -1.8198 -0.4103 -0.1439
13402SOL     OW43993   1.755   9.505   7.291 -1.1296  0.2795 -0.3239
13402SOL    HW143994   1.807   9.427   7.309 -1.1341 -0.0901 -1.7515
13402SOL    HW243995   1.778   9.528   7.201 -1.0803  1.9749  0.0989
13403SOL     OW43996   0.032   9.807   9.204  0.0212 -0.3796  0.1916
13403SOL    HW143997   0.008   9.899   9.200  2.4894  0.2782 -1.1684
13403SOL    HW243998   0.029   9.777   9.113  1.1012 -1.0863  0.3662
13404SOL     OW43999   3.990   4.090   9.948 -0.1969 -0.0967  0.9418
13404SOL    HW144000   3.940   4.020   9.905 -0.6793  0.9265 -0.2225
13404SOL    HW244001   3.928   4.128  10.012  0.4785 -1.5313  2.5300
13405SOL     OW44002   4.569   7.917   0.568 -0.0244 -0.2035  0.0942
13405SOL    HW144003   4.523   7.977   0.509  1.4574 -0.5420 -1.4892
13405SOL    HW244004   4.659   7.915   0.535  0.1381 -2.7865  0.4956
13406SOL     OW44005   9.589   5.059   6.929  0.9476 -0.2377  0.2616
13406SOL    HW144006   9.655   5.051   6.860  0.3380  2.4976 -0.8097
13406SOL    HW244007   9.531   4.984   6.915  1.6794 -0.5631 -1.2925
13407SOL     OW44008   0.858   4.022   7.944 -0.2807  0.5623 -0.1125
13407SOL    HW144009   0.897   4.023   7.857 -0.5670  1.9277 -0.2520
13407SOL    HW244010   0.925   4.059   8.001 -0.3542  0.3361  0.1225
13408SOL     OW44011  10.359   7.276   3.899 -0.4908 -0.4042 -0.2875
13408SOL    HW144012  10.298   7.279   3.973 -0.6795 -0.3672 -0.4431
13408SOL    HW244013  10.416   7.201   3.918 -0.1712 -0.0512  0.1788
13409SOL     OW44014   9.385   8.900   4.962 -0.1559  0.5711 -0.5169
13409SOL    HW144015   9.467   8.930   4.922  0.6073 -2.1510 -1.2300
13409SOL    HW244016   9.317   8.935   4.905  0.7847 -0.8350 -2.6367
13410SOL     OW44017   3.388   3.739   2.685  0.5524 -0.5576 -0.5358
13410SOL    HW144018   3.425   3.809   2.631 -0.6138  0.6050  0.1212
13410SOL    HW244019   3.404   3.659   2.634  0.5584  0.3520 -2.0336
13411SOL     OW44020   7.618   1.340   7.229 -0.0361 -0.2767 -0.2031
13411SOL    HW144021   7.533   1.366   7.263  0.2521 -1.4175  1.4758
13411SOL    HW244022   7.645   1.266   7.283  1.5194 -0.6826 -1.4409
13412SOL     OW44023   8.738   2.321   9.901  0.1777 -0.3465  0.0062
13412SOL    HW144024   8.800   2.347   9.970 -1.0364 -0.0585  1.0409
13412SOL    HW244025   8.671   2.270   9.947 -1.3229  0.8718 -0.7123
13413SOL     OW44026   3.889   1.861   8.030 -0.2137 -0.5899 -0.1646
13413SOL    HW144027   3.890   1.769   8.055 -0.4773 -0.5248  0.1026
13413SOL    HW244028   3.800   1.876   7.997 -0.5089 -0.1849  0.7798
13414SOL     OW44029  10.233   1.100   4.312 -0.2512 -0.2036 -0.1448
13414SOL    HW144030  10.305   1.041   4.293 -1.1451 -1.2290 -0.4717
13414SOL    HW244031  10.201   1.127   4.226 -1.4579 -1.3033 -0.0805
13415SOL     OW44032   0.167   5.705   2.439 -0.0207 -0.4443 -0.2560
13415SOL    HW144033   0.245   5.662   2.404  0.0254 -0.7778  0.2411
13415SOL    HW244034   0.165   5.679   2.532  0.1594  0.8329  0.1301
13416SOL     OW44035   4.776   7.597   0.881  0.6749 -0.2221  0.3175
13416SOL    HW144036   4.813   7.606   0.793  0.2161 -1.3333 -0.0151
13416SOL    HW244037   4.851   7.597   0.940  0.8965  3.0276  0.2290
13417SOL     OW44038  10.304   3.680   7.571  0.1623  0.0169  0.1462
13417SOL    HW144039  10.341   3.768   7.577  0.1100 -0.0356  1.5082
13417SOL    HW244040  10.304   3.660   7.477 -0.9693  1.9435 -0.3119
13418SOL     OW44041  10.092   3.390   3.327 -0.0087  0.2328 -0.2463
13418SOL    HW144042  10.141   3.377   3.246  0.0775  2.5692 -0.6278
13418SOL    HW244043  10.009   3.344   3.313 -0.2782  1.1660 -1.9440
13419SOL     OW44044   1.349   9.751   7.072 -0.2023 -0.2939 -0.5251
13419SOL    HW144045   1.318   9.714   7.155  0.3415  0.6589  0.1312
13419SOL    HW244046   1.445   9.752   7.081 -0.1494 -0.0510 -1.1053
13420SOL     OW44047   6.916   1.491   5.196  0.3217  0.0142  0.5843
13420SOL    HW144048   6.864   1.508   5.118  0.7876  1.6274  0.5918
13420SOL    HW244049   6.885   1.406   5.228  0.8242 -1.2163 -1.9000
13421SOL     OW44050   6.818   4.770   3.415  0.2762 -0.6244  0.0197
13421SOL    HW144051   6.743   4.711   3.410 -0.8223  0.7146  0.3657
13421SOL    HW244052   6.781   4.857   3.420  1.8574  0.0768  0.3007
13422SOL     OW44053  10.318   5.118   0.155  0.2220  0.0699 -0.0830
13422SOL    HW144054  10.335   5.088   0.245  0.6868  0.5004 -0.0208
13422SOL    HW244055  10.225   5.099   0.141  0.2931 -0.5837  0.2602
13423SOL     OW44056   2.733   9.817   3.556 -0.0066 -0.3220 -0.3361
13423SOL    HW144057   2.665   9.766   3.512 -1.7935 -0.6879  2.6188
13423SOL    HW244058   2.803   9.754   3.573 -0.7044 -0.9792  0.1919
13424SOL     OW44059   1.677   0.927   5.534  0.0691  0.4340  0.1787
13424SOL    HW144060   1.651   0.924   5.626 -0.2238  1.3974  0.1452
13424SOL    HW244061   1.763   0.969   5.534  0.6013 -0.6344  0.0991
13425SOL     OW44062   8.458   4.295   0.811  0.0818 -0.0460 -0.1025
13425SOL    HW144063   8.522   4.366   0.801 -0.1133  0.5009  2.0830
13425SOL    HW244064   8.414   4.314   0.893 -0.2936 -2.4732  0.3275
13426SOL     OW44065   2.919   7.062   8.314 -0.2788 -0.0081  0.1617
13426SOL    HW144066   2.973   7.118   8.258  1.3112 -2.4084 -0.8631
13426SOL    HW244067   2.848   7.119   8.343 -0.1974  1.8682 -2.8737
13427SOL     OW44068   0.044   8.641   6.258  0.7064 -0.2785 -0.4125
13427SOL    HW144069  -0.017   8.618   6.188 -1.2072  0.2839  0.9825
13427SOL    HW244070   0.051   8.562   6.311 -1.6769  0.6327  1.4010
13428SOL     OW44071   8.902   2.367   3.224 -0.2679  0.1040 -0.4330
13428SOL    HW144072   8.849   2.444   3.242 -0.0264  0.3570 -0.7832
13428SOL    HW244073   8.896   2.356   3.129  0.5385  0.3074 -0.5136
13429SOL     OW44074   6.712   7.325   9.769  0.1181 -0.0916 -0.0087
13429SOL    HW144075   6.722   7.420   9.770  0.5600 -0.1258 -0.4347
13429SOL    HW244076   6.747   7.296   9.853  0.5455  0.0765 -0.1257
13430SOL     OW44077   9.425   9.196   3.065  0.3256  0.4296 -0.1522
13430SOL    HW144078   9.354   9.242   3.110  0.5510 -1.2284  2.1007
13430SOL    HW244079   9.387   9.112   3.040  0.8956  0.3990 -0.9190
13431SOL     OW44080   6.824   8.756   0.639 -0.3716  0.3961 -0.7329
13431SOL    HW144081   6.745   8.806   0.621 -0.1607  0.1287 -2.5582
13431SOL    HW244082   6.792   8.676   0.681 -0.7933  1.4932  1.1616
13432SOL     OW44083   4.310   4.224   5.505  0.1014 -0.1182 -0.0033
13432SOL    HW144084   4.265   4.173   5.437  1.0097 -0.8696 -0.0529
13432SOL    HW244085   4.276   4.189   5.587  0.6722 -0.7782 -0.0387
13433SOL     OW44086   4.050   1.502   5.159  0.5651  0.5798 -0.0972
13433SOL    HW144087   3.996   1.477   5.084 -0.8765  0.9352  0.7931
13433SOL    HW244088   4.037   1.433   5.223  2.8013 -0.3972 -0.6013
13434SOL     OW44089   8.729   4.351   6.973 -0.4237 -0.0506 -0.0806
13434SOL    HW144090   8.634   4.348   6.986 -0.3024 -0.5926  0.7333
13434SOL    HW244091   8.765   4.296   7.042  0.5493  0.9521  0.2574
13435SOL     OW44092   8.970   8.768   4.706 -0.2377 -0.0844  0.4931
13435SOL    HW144093   9.013   8.705   4.764  0.5412  0.1293  0.1715
13435SOL    HW244094   9.015   8.757   4.622 -0.3812  0.6031  0.3209
13436SOL     OW44095   5.715   5.554   9.597 -0.1075  0.4618 -0.6831
13436SOL    HW144096   5.716   5.631   9.540  1.2951  1.1997  0.2866
13436SOL    HW244097   5.658   5.579   9.670  1.3826  1.1217  0.2947
13437SOL     OW44098   0.030   1.070   6.317  0.3441  0.2252  0.5123
13437SOL    HW144099  -0.038   1.124   6.356 -0.4005 -1.2899  1.4213
13437SOL    HW244100  -0.015   0.989   6.291  1.6382 -0.4879  0.3645
13438SOL     OW44101   1.257   0.284   0.899  0.1858 -0.1610  0.0406
13438SOL    HW144102   1.333   0.240   0.861  0.7139 -0.2427  1.1377
13438SOL    HW244103   1.182   0.232   0.870  0.6564 -0.8321 -0.0060
13439SOL     OW44104   3.532   1.130   1.453  0.3414 -0.4071  0.3079
13439SOL    HW144105   3.528   1.131   1.357 -0.5540  1.9847  0.2979
13439SOL    HW244106   3.442   1.114   1.480  0.0435  1.5789  0.6651
13440SOL     OW44107   5.335   3.772   1.023  0.0117 -0.2986 -0.2133
13440SOL    HW144108   5.429   3.790   1.028 -0.0164  1.0443 -2.7460
13440SOL    HW244109   5.328   3.699   0.961 -0.5867 -1.1492  0.8250
13441SOL     OW44110   5.843   3.840   1.917  0.3547 -0.5254  0.1020
13441SOL    HW144111   5.779   3.782   1.957  0.5653  0.1294  1.4637
13441SOL    HW244112   5.866   3.902   1.987  0.9528  0.5034 -0.9654
13442SOL     OW44113   3.608   9.807  10.231  0.2991 -0.0817 -0.2561
13442SOL    HW144114   3.681   9.867  10.216 -1.2258  1.6450 -1.0708
13442SOL    HW244115   3.551   9.819  10.155 -0.6530 -1.6847  0.1631
13443SOL     OW44116   0.376   9.041   2.809  0.5859  0.6254 -0.0962
13443SOL    HW144117   0.285   9.031   2.838  1.0057  1.4373  1.6685
13443SOL    HW244118   0.388   8.973   2.744 -0.5927 -1.1269  1.4212
13444SOL     OW44119   5.934   7.915   3.085 -0.2222  0.5013  0.3746
13444SOL    HW144120   6.016   7.868   3.102 -0.1616  0.2901 -0.4282
13444SOL    HW244121   5.866   7.848   3.094 -0.0950  0.1015 -1.2626
13445SOL     OW44122   6.538  10.302   9.443  0.1392 -0.5714  0.0636
13445SOL    HW144123   6.602  10.282   9.512  0.6126 -0.0274 -0.2131
13445SOL    HW244124   6.474  10.358   9.486  2.1874  2.6150 -0.6745
13446SOL     OW44125   7.517   0.428   2.175  0.1675 -0.3293 -0.4902
13446SOL    HW144126   7.581   0.493   2.203  0.2939 -0.7810  0.2788
13446SOL    HW244127   7.507   0.444   2.081 -0.2917  1.2303 -0.2055
13447SOL     OW44128   5.222   0.146   9.821  0.0037 -0.7810  0.0069
13447SOL    HW144129   5.187   0.189   9.898  2.7505 -0.1900  1.0577
13447SOL    HW244130   5.196   0.054   9.830 -1.2134 -0.3884  0.6533
13448SOL     OW44131   8.426   2.560   9.872 -0.1251 -0.3538 -0.3871
13448SOL    HW144132   8.411   2.470   9.846 -0.0149 -0.0655 -1.5238
13448SOL    HW244133   8.474   2.554   9.955 -1.8456 -1.2990  0.5838
13449SOL     OW44134   9.798   1.681   6.479  0.4659  0.0715 -0.0560
13449SOL    HW144135   9.882   1.636   6.474  1.3388  1.6879 -0.7469
13449SOL    HW244136   9.792   1.728   6.396 -1.6456 -0.8668 -0.4875
13450SOL     OW44137   1.849  10.330   5.093  0.6086 -0.0681 -0.0173
13450SOL    HW144138   1.813  10.295   5.174 -0.1052  1.5745  0.4256
13450SOL    HW244139   1.834  10.261   5.028 -0.5065 -0.6748  0.8462
13451SOL     OW44140   2.543   3.833   2.844  0.0573  0.8692  0.1503
13451SOL    HW144141   2.583   3.801   2.763 -1.8666  0.5604 -0.7446
13451SOL    HW244142   2.574   3.923   2.852 -0.9313  1.4558 -1.8435
13452SOL     OW44143   4.142   3.856   9.119  0.3326  0.2338  0.2823
13452SOL    HW144144   4.151   3.942   9.160 -0.7504 -0.2506  1.5830
13452SOL    HW244145   4.051   3.832   9.134  0.3606 -0.7017 -0.9762
13453SOL     OW44146   4.434   0.872   0.631 -0.1487 -0.3099 -0.2541
13453SOL    HW144147   4.412   0.849   0.540 -1.5027 -0.2775  0.0547
13453SOL    HW244148   4.400   0.960   0.642 -3.9981 -1.8156  1.5488
13454SOL     OW44149   4.643   0.876   2.130  0.3864 -0.1272 -0.0809
13454SOL    HW144150   4.716   0.815   2.128  1.5017  1.0639  1.1915
13454SOL    HW244151   4.642   0.908   2.221  0.2393  2.1174 -0.8011
13455SOL     OW44152   8.499   9.325   3.930 -0.0869 -0.4377 -0.5409
13455SOL    HW144153   8.494   9.286   3.843 -2.1071 -0.6051 -0.4064
13455SOL    HW244154   8.477   9.417   3.916 -1.4618 -0.6749 -0.1256
13456SOL     OW44155   7.144   2.554   0.598 -0.2867  0.5770 -0.1498
13456SOL    HW144156   7.050   2.541   0.587 -0.2197  0.2691 -0.3813
13456SOL    HW244157   7.157   2.560   0.693 -0.5835  0.9833 -0.1322
13457SOL     OW44158   8.341   9.821   5.723  0.2646  0.3964 -0.1755
13457SOL    HW144159   8.335   9.808   5.818 -0.0198  1.3929 -0.0572
13457SOL    HW244160   8.435   9.816   5.705  0.3627  0.7286  0.2341
13458SOL     OW44161   8.679   8.097   3.432 -0.3124  0.3591 -1.2491
13458SOL    HW144162   8.631   8.116   3.352 -1.6101  1.6268 -0.2230
13458SOL    HW244163   8.701   8.183   3.468 -1.3933 -0.1280  0.6873
13459SOL     OW44164   2.080   4.201   9.289  0.0125  0.2310 -0.0175
13459SOL    HW144165   2.038   4.271   9.339 -0.6916 -1.9297  2.7010
13459SOL    HW244166   2.015   4.177   9.223 -1.4262 -0.3826  1.5491
13460SOL     OW44167   0.270   1.287   1.074 -0.4938 -0.5020 -0.1514
13460SOL    HW144168   0.239   1.370   1.111  0.7999 -0.5621  1.2021
13460SOL    HW244169   0.339   1.313   1.012 -1.0141 -0.5091 -0.7349
13461SOL     OW44170   9.132   0.833   1.471 -0.4267  0.0873  0.0739
13461SOL    HW144171   9.049   0.810   1.430 -0.5834 -1.4184  1.1332
13461SOL    HW244172   9.199   0.810   1.407 -0.6513 -2.4193  0.6224
13462SOL     OW44173   7.297   7.224   2.425 -0.1252  1.2004  0.1895
13462SOL    HW144174   7.371   7.222   2.486  1.3989 -0.9189 -1.5506
13462SOL    HW244175   7.227   7.178   2.471  0.6608  0.5180  0.7434
13463SOL     OW44176   3.219   9.537   3.405  0.2498 -0.0415 -0.0184
13463SOL    HW144177   3.202   9.514   3.496 -0.9485  0.0753 -0.2050
13463SOL    HW244178   3.216   9.454   3.358  0.8532 -0.0999  0.0357
13464SOL     OW44179   5.337   5.125   2.133 -0.0323 -0.3636  0.0579
13464SOL    HW144180   5.375   5.137   2.220  1.7059  3.7836 -1.0192
13464SOL    HW244181   5.411   5.099   2.078 -0.4017  0.0982 -0.6857
13465SOL     OW44182   5.923   0.909   0.326  0.2559 -0.3215  0.1080
13465SOL    HW144183   5.862   0.872   0.263  0.1693  0.8363 -0.5065
13465SOL    HW244184   6.008   0.874   0.300  0.2065  0.0694 -0.5881
13466SOL     OW44185   1.529   3.118   5.773 -0.1952  0.5700  0.6952
13466SOL    HW144186   1.525   3.211   5.794  1.6868  0.4007  2.0768
13466SOL    HW244187   1.453   3.081   5.817 -1.8440  1.6070 -1.1332
13467SOL     OW44188   0.552   6.560   4.358 -0.0622  0.1271  0.4128
13467SOL    HW144189   0.472   6.508   4.351  0.4960 -1.0383  2.1450
13467SOL    HW244190   0.528   6.646   4.323 -1.7573 -0.4950 -0.0421
13468SOL     OW44191   6.081   7.984   2.603  0.3193 -0.3448  0.0796
13468SOL    HW144192   6.046   7.973   2.691  1.6933 -1.4677  0.5205
13468SOL    HW244193   6.004   7.979   2.546 -0.6015  0.4852  1.1899
13469SOL     OW44194   5.014   4.828   7.893 -0.0321 -0.3371 -0.6747
13469SOL    HW144195   5.004   4.749   7.945 -0.2085  1.5206  2.3516
13469SOL    HW244196   4.924   4.859   7.879  0.0955  0.7670  0.6902
13470SOL     OW44197   4.154   7.734   4.893  0.4804 -0.6197  0.7497
13470SOL    HW144198   4.172   7.678   4.818  0.5494 -1.0578  1.0829
13470SOL    HW244199   4.106   7.677   4.954  0.6883 -0.3642  1.1601
13471SOL     OW44200   8.283   5.783   0.374  0.1301 -0.1106 -0.0375
13471SOL    HW144201   8.351   5.829   0.326  1.8123 -1.5533  0.8311
13471SOL    HW244202   8.203   5.799   0.324  1.0823  1.6170 -1.1134
13472SOL     OW44203  10.244   8.715   0.836 -0.4322  0.4017  0.3631
13472SOL    HW144204  10.163   8.686   0.880  0.4706  0.7002  2.3193
13472SOL    HW244205  10.214   8.777   0.770 -1.9012 -0.3517  0.2718
13473SOL     OW44206   8.296   6.739   2.545 -0.6207 -0.4916  0.1716
13473SOL    HW144207   8.316   6.817   2.597 -0.6964 -1.4162  1.6219
13473SOL    HW244208   8.304   6.769   2.454  0.5658  0.8938  0.6858
13474SOL     OW44209   0.519   9.073   9.762  0.1977  0.0549 -0.1647
13474SOL    HW144210   0.507   9.028   9.846  2.1523 -1.9318 -0.8458
13474SOL    HW244211   0.459   9.147   9.766  0.0390 -0.0983  2.8787
13475SOL     OW44212   7.809   3.653   8.282  0.2968 -0.4555 -0.3529
13475SOL    HW144213   7.870   3.699   8.340 -0.4548  0.1983 -0.0656
13475SOL    HW244214   7.735   3.712   8.272  0.3265 -0.6221 -1.8681
13476SOL     OW44215   8.089   6.981   8.523 -0.2840 -0.0557  0.5652
13476SOL    HW144216   8.145   6.945   8.455  2.2202  1.9519  1.4092
13476SOL    HW244217   8.072   7.071   8.495  0.5430  0.7129  2.3469
13477SOL     OW44218   0.514   5.092   1.985  0.8747  0.9181  0.0728
13477SOL    HW144219   0.459   5.088   2.064 -0.9725 -1.8566 -1.1945
13477SOL    HW244220   0.550   5.003   1.977  0.9407  1.1102 -2.2541
13478SOL     OW44221   0.779   6.660   6.135  0.2035  0.2948 -0.6681
13478SOL    HW144222   0.752   6.745   6.100  0.0819  0.4056 -0.3066
13478SOL    HW244223   0.803   6.677   6.226 -0.3716 -0.1553 -0.4237
13479SOL     OW44224   0.885   7.904   4.294  0.1511  0.0444  1.1779
13479SOL    HW144225   0.926   7.825   4.258 -1.1349 -0.2035  0.2216
13479SOL    HW244226   0.880   7.965   4.221 -1.6850 -0.1392  1.1144
13480SOL     OW44227   9.787   2.279   9.303 -0.0484  0.2283 -0.1268
13480SOL    HW144228   9.806   2.197   9.258  1.3117  0.9747 -0.9873
13480SOL    HW244229   9.712   2.259   9.359 -0.5511 -1.2478 -1.2735
13481SOL     OW44230   0.802   2.845   9.299 -0.3426  0.0548  1.0964
13481SOL    HW144231   0.889   2.884   9.299 -0.2688 -0.0722 -0.0995
13481SOL    HW244232   0.791   2.812   9.388  1.0268 -0.3366  1.1494
13482SOL     OW44233   0.664   7.014   1.628 -0.1678  0.1569  0.3834
13482SOL    HW144234   0.626   7.077   1.568  0.0651  1.3998  1.5006
13482SOL    HW244235   0.727   7.064   1.680  0.4193 -1.1036  0.9455
13483SOL     OW44236   3.049   0.076   8.210  0.6989 -0.9073 -0.1149
13483SOL    HW144237   3.002   0.055   8.130  0.6688 -0.7744 -0.1341
13483SOL    HW244238   2.987   0.057   8.280  0.1416  0.4635 -0.1896
13484SOL     OW44239   4.163   7.184   3.382  0.5125  0.7787  0.3351
13484SOL    HW144240   4.250   7.211   3.352 -0.1106  1.2982 -1.1118
13484SOL    HW244241   4.122   7.266   3.411 -0.4591  1.0517 -1.6298
13485SOL     OW44242   3.044   3.815   2.085  0.1563  0.3242 -0.7558
13485SOL    HW144243   3.007   3.727   2.092  0.1141  0.3969 -0.0073
13485SOL    HW244244   3.082   3.818   1.997  1.9656 -1.1526 -0.0753
13486SOL     OW44245  10.324   6.340   7.596 -0.4453 -0.2421 -0.2973
13486SOL    HW144246  10.399   6.288   7.568  0.0549  0.6484 -0.6588
13486SOL    HW244247  10.299   6.390   7.518 -0.0156  1.1060  0.3855
13487SOL     OW44248   3.144   3.423   6.531  0.4161  0.3822 -0.1985
13487SOL    HW144249   3.209   3.386   6.590 -0.3816 -2.8579 -1.1618
13487SOL    HW244250   3.060   3.406   6.573 -0.0309  0.2030 -1.1357
13488SOL     OW44251   4.561   9.522  10.051  0.1131 -0.0441  0.0352
13488SOL    HW144252   4.602   9.509  10.137  1.2486  1.6568 -0.1904
13488SOL    HW244253   4.480   9.570  10.070 -0.4671 -1.1001  0.2716
13489SOL     OW44254   9.754   3.046   8.241 -0.1006 -0.1978  0.4959
13489SOL    HW144255   9.675   3.085   8.279 -0.0164 -0.4474  0.9368
13489SOL    HW244256   9.722   2.983   8.177 -0.2410  0.4581 -0.0982
13490SOL     OW44257   5.561   8.158   0.590 -0.3216 -0.4253  0.1217
13490SOL    HW144258   5.566   8.064   0.572 -0.4744 -0.9312  2.4191
13490SOL    HW244259   5.484   8.188   0.542  0.4061 -1.1772 -1.6167
13491SOL     OW44260   5.406   5.891   9.540 -0.1717 -0.3563 -0.0192
13491SOL    HW144261   5.390   5.956   9.609  1.1552  0.5640 -0.5204
13491SOL    HW244262   5.409   5.943   9.459  0.4247 -1.1119 -0.4907
13492SOL     OW44263   0.394   0.452   1.853  0.3337 -0.0103 -0.1789
13492SOL    HW144264   0.339   0.392   1.803  1.2184 -1.0511  0.0531
13492SOL    HW244265   0.436   0.506   1.786  1.9391 -1.7635 -0.6864
13493SOL     OW44266   3.930   7.471   5.278 -0.0446  0.2831  0.2358
13493SOL    HW144267   3.873   7.531   5.327 -1.0906  1.6450 -2.4451
13493SOL    HW244268   3.871   7.406   5.241  0.4315  0.3218 -0.6248
13494SOL     OW44269   8.838   4.264   5.429 -0.0918 -0.2065 -0.0384
13494SOL    HW144270   8.818   4.358   5.435 -0.9900 -0.2936 -1.2234
13494SOL    HW244271   8.806   4.228   5.512 -1.9074  0.2014 -0.5119
13495SOL     OW44272   7.844   9.668   5.642 -0.3525  0.3376 -0.3222
13495SOL    HW144273   7.843   9.607   5.715  1.2879  1.7373  0.9666
13495SOL    HW244274   7.936   9.693   5.633 -0.6427  0.9284 -2.2727
13496SOL     OW44275   4.671   0.120   3.708 -0.1541  0.2655 -0.0145
13496SOL    HW144276   4.590   0.076   3.684 -0.1691 -0.1191  0.7156
13496SOL    HW244277   4.694   0.084   3.794 -0.0219  1.4798  0.4870
13497SOL     OW44278   4.686   3.502   4.317 -0.3142 -0.1541 -0.3152
13497SOL    HW144279   4.682   3.532   4.226  0.9678 -0.8747 -0.6298
13497SOL    HW244280   4.626   3.427   4.320  1.3724 -1.6211 -1.2082
13498SOL     OW44281   7.113   5.324   9.729  0.0149 -0.1174  0.1628
13498SOL    HW144282   7.080   5.412   9.708 -0.5976 -0.2507  0.5456
13498SOL    HW244283   7.130   5.326   9.823 -1.5528 -0.8924  0.4914
13499SOL     OW44284   1.073   4.966   2.806  0.7656  0.1753 -1.2276
13499SOL    HW144285   1.076   4.877   2.771 -3.1957 -0.7233  0.1447
13499SOL    HW244286   1.164   4.987   2.827  1.7448 -4.2010 -0.1260
13500SOL     OW44287   3.483   2.284   0.337  0.1447  0.2389 -0.3534
13500SOL    HW144288   3.566   2.271   0.292  0.8843  1.9551  0.4020
13500SOL    HW244289   3.496   2.243   0.423  0.0520  0.1182 -0.3973
13501SOL     OW44290   5.067   1.499   9.220  0.0275 -0.4285  0.5258
13501SOL    HW144291   4.976   1.471   9.211  0.0870 -0.5908  0.4350
13501SOL    HW244292   5.071   1.583   9.173  0.4605 -1.5039 -1.4378
13502SOL     OW44293   5.205   3.134   7.783 -0.3502 -0.0317  0.2654
13502SOL    HW144294   5.184   3.201   7.718 -0.6394  0.0371  0.4274
13502SOL    HW244295   5.122   3.087   7.796  0.0735 -1.0801 -0.6024
13503SOL     OW44296   7.181   8.328   2.035 -0.3290 -0.1801  0.5476
13503SOL    HW144297   7.213   8.283   1.957  0.4316  0.0432  0.7198
13503SOL    HW244298   7.087   8.336   2.021 -0.1875 -0.0451 -0.3931
13504SOL     OW44299  10.012   2.938   7.382 -0.2420  0.1359  0.1803
13504SOL    HW144300  10.060   2.972   7.457 -0.8225  0.1553  0.5529
13504SOL    HW244301   9.964   2.862   7.416  1.6029 -1.5504 -0.8034
13505SOL     OW44302   2.950   7.715   3.902  0.5934 -0.5134  0.6436
13505SOL    HW144303   3.005   7.706   3.824  0.4653  0.8480  0.3605
13505SOL    HW244304   3.011   7.736   3.973  0.6140 -0.7783  0.7042
13506SOL     OW44305   4.791   3.095   4.952 -0.3274 -0.4911  0.3369
13506SOL    HW144306   4.859   3.030   4.964  0.5967  0.6267  1.3869
13506SOL    HW244307   4.811   3.135   4.867  1.0699  0.6441  1.1689
13507SOL     OW44308   7.008   2.481   2.612  0.4387  0.4393 -0.6084
13507SOL    HW144309   7.032   2.430   2.688 -0.3706  0.2827 -0.4483
13507SOL    HW244310   7.077   2.464   2.548 -1.1134 -3.0261 -1.5825
13508SOL     OW44311   0.835  10.104   1.081 -0.6407 -0.1879  0.8256
13508SOL    HW144312   0.905  10.058   1.036  0.5875  1.7232  0.6380
13508SOL    HW244313   0.756  10.053   1.062  0.3572 -1.2492 -0.7276
13509SOL     OW44314   1.277   8.889   1.652 -0.0588  0.1320  0.1060
13509SOL    HW144315   1.185   8.890   1.624  0.3133  1.4162 -1.2211
13509SOL    HW244316   1.277   8.933   1.737 -0.5803  0.8870 -0.2732
13510SOL     OW44317   2.615  10.082   1.557  0.1585  0.3338 -0.1263
13510SOL    HW144318   2.629  10.084   1.462  0.5098  0.6933 -0.0659
13510SOL    HW244319   2.521  10.065   1.566  0.1563  0.1018 -0.5360
13511SOL     OW44320   0.771   3.101   3.344 -0.1797  0.0904 -0.0796
13511SOL    HW144321   0.786   3.006   3.344 -0.9378 -0.1828 -3.6708
13511SOL    HW244322   0.854   3.138   3.313 -0.2697  0.5055  0.1650
13512SOL     OW44323   7.625   8.412   8.918  0.1465  0.8618  0.5538
13512SOL    HW144324   7.581   8.441   8.998 -0.9347  0.3137  0.1691
13512SOL    HW244325   7.578   8.333   8.892  1.8464 -0.2081  0.5572
13513SOL     OW44326  10.083   5.919   7.541  0.3845 -0.5011 -0.4426
13513SOL    HW144327  10.036   5.980   7.484  1.2768  1.8852  1.2188
13513SOL    HW244328  10.167   5.961   7.557 -0.0913 -0.6682  3.2067
13514SOL     OW44329   5.778   6.104   6.629  0.3305 -0.4759 -0.3241
13514SOL    HW144330   5.732   6.067   6.553 -2.4799  1.7916  0.0799
13514SOL    HW244331   5.855   6.147   6.592 -1.1461  0.8699 -2.0380
13515SOL     OW44332   4.026   5.737   3.667 -0.4191  0.1109  0.2091
13515SOL    HW144333   4.101   5.794   3.686  0.4033 -0.8257 -0.1875
13515SOL    HW244334   3.972   5.741   3.747  0.5636 -0.0212  0.8891
13516SOL     OW44335   7.263   1.051   3.950 -0.4872 -0.0086 -0.1983
13516SOL    HW144336   7.303   0.985   3.893  1.1637  0.9166 -0.1764
13516SOL    HW244337   7.169   1.043   3.934 -0.4445 -2.9350  0.4362
13517SOL     OW44338   0.451   4.276   6.999  0.3138 -0.4400  0.2199
13517SOL    HW144339   0.498   4.195   6.979 -1.5988 -1.6982  0.5499
13517SOL    HW244340   0.489   4.305   7.083  1.5009 -0.5686 -0.2479
13518SOL     OW44341   2.700   8.845   7.344  0.7147 -0.5604 -0.4972
13518SOL    HW144342   2.608   8.868   7.331  0.6223 -0.6563 -0.0392
13518SOL    HW244343   2.731   8.905   7.413  0.4883 -1.7216  0.6610
13519SOL     OW44344   2.272   2.888  10.245 -0.3924 -0.0290  0.1278
13519SOL    HW144345   2.216   2.811  10.236 -1.9307  0.6363  2.8583
13519SOL    HW244346   2.356   2.853  10.277  0.7831 -0.9746 -3.4983
13520SOL     OW44347   5.394   8.815   5.751 -0.0522 -0.1069 -0.2249
13520SOL    HW144348   5.439   8.792   5.832  0.7200 -0.1979 -0.6679
13520SOL    HW244349   5.326   8.876   5.778 -0.5626 -1.0219  0.6431
13521SOL     OW44350   7.891   5.341   5.803  0.4225 -0.1308  0.0052
13521SOL    HW144351   7.829   5.322   5.733 -0.6882 -0.7824  1.1156
13521SOL    HW244352   7.904   5.436   5.800 -0.8598  0.0545 -0.0828
13522SOL     OW44353   3.928   7.845   3.248  0.0251 -0.3129  0.1573
13522SOL    HW144354   3.845   7.806   3.222 -0.6400  0.0934  1.5973
13522SOL    HW244355   3.994   7.782   3.221 -0.9420 -1.9149  1.3795
13523SOL     OW44356   2.674   5.541   3.712 -0.0756  0.3986  0.0352
13523SOL    HW144357   2.612   5.584   3.770 -0.0052 -0.0684  0.4676
13523SOL    HW244358   2.629   5.534   3.628 -1.7678 -2.4513  1.0270
13524SOL     OW44359   8.434   8.853   5.240  0.1756  0.0930 -0.5558
13524SOL    HW144360   8.474   8.819   5.160  1.8599  1.0196 -0.1497
13524SOL    HW244361   8.380   8.780   5.272  1.4082 -1.1636 -1.2322
13525SOL     OW44362   0.277   3.462   3.495  0.2781  0.8552 -0.3269
13525SOL    HW144363   0.361   3.436   3.458 -0.0902 -0.0579 -0.5504
13525SOL    HW244364   0.229   3.502   3.423  0.9852  2.5933  0.1032
13526SOL     OW44365   8.890   7.963   7.916 -0.4681 -0.5724  0.3283
13526SOL    HW144366   8.963   8.021   7.892 -0.3367 -0.1089  1.7564
13526SOL    HW244367   8.931   7.878   7.933 -0.5858 -0.9587 -1.1878
13527SOL     OW44368   1.817   4.621   5.706  0.1413 -0.7959  0.8174
13527SOL    HW144369   1.905   4.592   5.685  0.8748  1.8964 -0.3693
13527SOL    HW244370   1.809   4.706   5.662 -2.5808 -0.3357  1.9781
13528SOL     OW44371   1.016   0.347   6.284 -0.0598  0.1793  0.6136
13528SOL    HW144372   0.930   0.351   6.326 -0.6095 -1.5988 -0.2340
13528SOL    HW244373   1.057   0.268   6.321  1.7844  1.6702  1.9680
13529SOL     OW44374  10.322   3.447   1.262 -0.1602 -0.6309  0.0489
13529SOL    HW144375  10.417   3.449   1.272 -0.0511 -1.3162 -0.7674
13529SOL    HW244376  10.293   3.531   1.298  0.6616 -0.7861  1.1241
13530SOL     OW44377   9.767   6.406   8.132  0.3942 -0.3844  0.0111
13530SOL    HW144378   9.737   6.491   8.100  0.7454  0.5447  2.0181
13530SOL    HW244379   9.841   6.384   8.075  0.5660  0.8689 -0.2824
13531SOL     OW44380   7.912   7.278   3.664  0.4563 -0.4265  0.1468
13531SOL    HW144381   7.922   7.284   3.569 -0.8608 -0.5583 -0.0174
13531SOL    HW244382   7.840   7.215   3.677  2.1994 -2.2977  1.3119
13532SOL     OW44383   5.262   0.490   4.643 -0.3026  0.1289 -0.2793
13532SOL    HW144384   5.203   0.542   4.588  1.5922  0.0667 -2.5460
13532SOL    HW244385   5.305   0.555   4.699 -0.3128  0.5768 -0.7779
13533SOL     OW44386   7.436   7.794   3.359  0.0271  0.3274 -0.1300
13533SOL    HW144387   7.512   7.812   3.415 -0.2075 -0.5750  0.5024
13533SOL    HW244388   7.463   7.722   3.303  0.1276  0.9754 -0.9303
13534SOL     OW44389   5.154   2.401   8.276 -0.3921 -0.3243 -0.5802
13534SOL    HW144390   5.088   2.399   8.207  0.5511 -0.8950 -1.4865
13534SOL    HW244391   5.211   2.475   8.253  0.4478 -1.0610 -0.9320
13535SOL     OW44392   1.506   8.813   6.539  0.1952 -0.0083 -0.2624
13535SOL    HW144393   1.455   8.847   6.612  2.2474  1.3481  0.6294
13535SOL    HW244394   1.463   8.847   6.461 -1.5009 -0.7375  0.2987
13536SOL     OW44395   0.206   5.818   9.560 -0.0505  0.5848  0.1286
13536SOL    HW144396   0.242   5.839   9.646 -0.4850  0.0876  0.4373
13536SOL    HW244397   0.129   5.874   9.552  0.4986  1.2950 -0.3292
13537SOL     OW44398   2.199   6.323   5.882 -0.0855 -0.2463  0.2594
13537SOL    HW144399   2.114   6.280   5.889 -0.5133  0.5874  0.2199
13537SOL    HW244400   2.231   6.300   5.795 -1.7553  2.0859 -1.0925
13538SOL     OW44401   3.020   6.917   4.904 -0.1705 -0.2025  0.3782
13538SOL    HW144402   3.052   6.860   4.835 -1.0638  1.2791 -1.3441
13538SOL    HW244403   3.099   6.951   4.946  0.4297 -0.1624 -0.7607
13539SOL     OW44404   9.192   9.275   6.862  0.1472 -0.2380  0.4875
13539SOL    HW144405   9.155   9.281   6.774 -1.3853  1.5562  1.1813
13539SOL    HW244406   9.256   9.347   6.866  0.2173 -0.3155  0.8330
13540SOL     OW44407   1.561   1.253   6.960 -0.1338 -0.0830 -0.4229
13540SOL    HW144408   1.541   1.161   6.947 -1.8918 -0.2226  2.3451
13540SOL    HW244409   1.479   1.298   6.938 -0.6699  0.3308  2.1648
13541SOL     OW44410   6.810   1.971   0.551  0.0311 -0.2159 -0.4193
13541SOL    HW144411   6.788   1.938   0.464 -0.0547 -0.6173 -0.2475
13541SOL    HW244412   6.775   2.060   0.553 -1.1415 -0.6636 -0.3324
13542SOL     OW44413   8.629   8.225   9.341 -0.5347 -0.4523  0.3835
13542SOL    HW144414   8.689   8.252   9.271  0.0542 -1.4097  0.5050
13542SOL    HW244415   8.659   8.275   9.418 -0.0009 -0.7919  0.4003
13543SOL     OW44416   5.909   7.718   8.613  0.1125 -0.0430 -0.0261
13543SOL    HW144417   5.858   7.752   8.539  1.3554  3.0301  0.3525
13543SOL    HW244418   5.906   7.623   8.603 -2.5602  0.1423 -2.0633
13544SOL     OW44419   4.470   7.466   7.320 -0.0002 -0.2908  0.4148
13544SOL    HW144420   4.481   7.490   7.412 -0.9859  0.0534  0.4547
13544SOL    HW244421   4.412   7.533   7.284  1.1854  0.1691 -0.7317
13545SOL     OW44422   0.484   4.749   2.810  0.7864  0.3794 -0.2715
13545SOL    HW144423   0.557   4.806   2.834  0.4846  0.5111  0.3436
13545SOL    HW244424   0.451   4.715   2.893  0.6717 -0.3396 -0.5991
13546SOL     OW44425   9.172   0.660   0.169 -0.1375 -0.2083  0.9777
13546SOL    HW144426   9.115   0.596   0.126 -0.2704  1.1736 -1.0333
13546SOL    HW244427   9.260   0.625   0.156 -0.2680 -0.4270  0.6589
13547SOL     OW44428   3.511   3.726   6.135 -1.1666 -0.1233  0.1949
13547SOL    HW144429   3.490   3.814   6.105 -0.3264  0.4136  1.1156
13547SOL    HW244430   3.498   3.670   6.058  1.3441  1.2387 -1.3368
13548SOL     OW44431   6.759   8.427   0.272 -0.2536  0.0062 -0.4465
13548SOL    HW144432   6.822   8.485   0.230 -2.7464  2.5287 -1.0084
13548SOL    HW244433   6.805   8.344   0.282  3.2586  1.7928 -0.3533
13549SOL     OW44434   1.740   0.557  10.213 -0.2346 -0.1837  0.2495
13549SOL    HW144435   1.661   0.579  10.164 -1.1373 -1.4059  1.0936
13549SOL    HW244436   1.776   0.480  10.168  0.2002  0.0564  0.1755
13550SOL     OW44437   9.489   5.090   7.486 -0.3109  0.2532  0.2373
13550SOL    HW144438   9.529   5.004   7.473 -1.4390 -0.1546 -0.7369
13550SOL    HW244439   9.400   5.081   7.451  0.2205  2.4268 -2.0529
13551SOL     OW44440   8.649   8.551  10.007 -0.0394 -0.2106 -0.8456
13551SOL    HW144441   8.577   8.514   9.956 -0.6692 -0.6699  0.3510
13551SOL    HW244442   8.662   8.490  10.079  0.3600  0.7699 -0.0507
13552SOL     OW44443   8.628   7.320   3.166 -0.0087 -0.7079  0.1242
13552SOL    HW144444   8.673   7.345   3.246  2.7146 -1.5000 -1.0415
13552SOL    HW244445   8.587   7.236   3.187  1.0248 -1.1134  0.6016
13553SOL     OW44446   9.768   3.358   9.716 -0.1482  0.2519  0.0540
13553SOL    HW144447   9.812   3.354   9.801 -1.7573 -1.2836  0.8798
13553SOL    HW244448   9.828   3.314   9.656  0.1855 -0.3427  0.8081
13554SOL     OW44449   9.448   5.255   5.664 -0.7411 -0.0736 -0.1258
13554SOL    HW144450   9.462   5.333   5.718  1.5171 -0.4244 -0.1369
13554SOL    HW244451   9.457   5.286   5.574  0.4200 -0.3768 -0.1217
13555SOL     OW44452   0.121   2.425   4.868 -0.0900 -0.0884  0.0028
13555SOL    HW144453   0.068   2.386   4.799 -0.6438  1.3182 -0.3999
13555SOL    HW244454   0.071   2.501   4.896  1.0516  0.4570  0.6161
13556SOL     OW44455   7.474   5.111   0.974 -0.3042  0.3206 -0.4304
13556SOL    HW144456   7.408   5.155   0.921 -0.1708 -1.8130 -2.5071
13556SOL    HW244457   7.551   5.167   0.968 -0.6950  0.7704 -1.3853
13557SOL     OW44458   4.790   4.796   9.342 -0.3002 -0.3026  0.3049
13557SOL    HW144459   4.718   4.756   9.293 -1.2304 -1.2460  2.3259
13557SOL    HW244460   4.759   4.800   9.432  0.9751  2.2446  0.7279
13558SOL     OW44461   9.906   8.105   8.416 -1.1882 -0.4382  0.0290
13558SOL    HW144462   9.876   8.112   8.326 -1.6562  0.5568  0.2521
13558SOL    HW244463  10.002   8.105   8.409 -1.1675  1.6434 -0.3742
13559SOL     OW44464   5.325   3.512   1.848 -0.0972  0.5069 -0.2717
13559SOL    HW144465   5.355   3.581   1.788  0.1844  1.2457  0.6827
13559SOL    HW244466   5.245   3.549   1.888 -0.7374 -0.3093 -0.7685
13560SOL     OW44467   4.428   6.791   1.529 -0.4554 -0.0486  0.1168
13560SOL    HW144468   4.438   6.834   1.614 -0.8655 -0.0937  0.1921
13560SOL    HW244469   4.468   6.705   1.540  0.0985  0.1947  0.0561
13561SOL     OW44470   2.037   5.057   9.781 -0.5944 -0.2482  0.0080
13561SOL    HW144471   2.060   5.104   9.700 -2.1483 -0.0006 -0.3241
13561SOL    HW244472   2.045   4.965   9.758  2.6637 -0.2426  0.7189
13562SOL     OW44473   8.765   8.897   7.215  0.4404  0.0602 -0.0675
13562SOL    HW144474   8.716   8.977   7.234  1.1812  0.4786  0.1486
13562SOL    HW244475   8.857   8.923   7.226  0.8935  0.0148 -2.9406
13563SOL     OW44476   9.816   2.304   6.698 -0.2137 -0.1007  0.7887
13563SOL    HW144477   9.820   2.214   6.665 -1.5369  0.1198 -0.0295
13563SOL    HW244478   9.807   2.294   6.793  1.0184 -0.7916  0.8554
13564SOL     OW44479  10.176  10.296   6.383  0.2482  0.2937 -0.1017
13564SOL    HW144480  10.164  10.382   6.344  0.8038  0.1616 -0.5641
13564SOL    HW244481  10.244  10.308   6.449  0.6548  0.1146 -0.4842
13565SOL     OW44482   1.625   5.268   3.241  0.4804 -0.3811 -0.7609
13565SOL    HW144483   1.642   5.362   3.251 -0.5152 -0.3537  1.3534
13565SOL    HW244484   1.659   5.246   3.154  2.3097  1.5583 -0.6158
13566SOL     OW44485   0.186   7.303   8.395 -0.4344  0.2107 -0.9424
13566SOL    HW144486   0.259   7.265   8.444 -1.1060  1.2156  0.9596
13566SOL    HW244487   0.168   7.240   8.326  0.4330 -1.4352  0.2556
13567SOL     OW44488   6.117   7.706   5.091  0.4891 -0.0750 -0.3845
13567SOL    HW144489   6.103   7.663   5.175 -0.0616  0.2452 -0.3094
13567SOL    HW244490   6.075   7.791   5.099  0.2777 -0.1051 -1.0389
13568SOL     OW44491   7.874   4.375   1.801 -0.1404  0.5688  0.5224
13568SOL    HW144492   7.965   4.405   1.796 -0.4777  1.6820  0.8185
13568SOL    HW244493   7.840   4.385   1.712 -0.1818  0.8590  0.5693
13569SOL     OW44494   2.210   2.068   2.317 -0.2809  0.1578  0.3477
13569SOL    HW144495   2.139   2.131   2.304 -0.6276 -0.0886  1.0633
13569SOL    HW244496   2.274   2.091   2.249 -0.3592  1.3510  0.6500
13570SOL     OW44497   5.877   1.367   1.697 -0.8550  0.0040 -0.3582
13570SOL    HW144498   5.950   1.309   1.681 -2.9355 -2.6089 -1.1177
13570SOL    HW244499   5.826   1.324   1.766 -0.6591  2.8067  1.7298
13571SOL     OW44500   7.836   0.604   8.817  0.2402  0.3542  0.4123
13571SOL    HW144501   7.897   0.674   8.793 -0.6586  1.2308  0.5991
13571SOL    HW244502   7.750   0.637   8.790  0.0189 -1.6201 -1.4986
13572SOL     OW44503   4.731   7.986   2.691 -0.1364  0.4819  0.1391
13572SOL    HW144504   4.745   7.901   2.733 -0.4247  0.6839  0.6471
13572SOL    HW244505   4.788   8.046   2.739  1.1537  0.3210 -1.1250
13573SOL     OW44506   8.358   3.657   1.075  0.2532 -0.7894  0.0714
13573SOL    HW144507   8.450   3.654   1.046  0.3181  1.7445 -0.2244
13573SOL    HW244508   8.312   3.701   1.004 -0.3859  1.6808  1.8574
13574SOL     OW44509   4.860   7.908   3.790 -0.3549 -0.4696 -0.3930
13574SOL    HW144510   4.911   7.902   3.710 -1.3093 -1.7310 -0.9409
13574SOL    HW244511   4.902   7.845   3.849  0.3480  0.4582  0.1291
13575SOL     OW44512   9.026   5.810   6.649 -0.1901  0.4636  0.0655
13575SOL    HW144513   8.974   5.890   6.643 -0.5786  0.2378  0.3479
13575SOL    HW244514   8.977   5.754   6.710  0.1243  0.0486 -0.0558
13576SOL     OW44515   3.295   7.178   3.833 -0.5006 -0.5130  0.7018
13576SOL    HW144516   3.312   7.110   3.768  0.9395 -0.8870  1.4251
13576SOL    HW244517   3.276   7.256   3.782  0.2904 -0.8660 -0.1623
13577SOL     OW44518   8.267   1.191   8.914  0.2670 -0.3194  0.5628
13577SOL    HW144519   8.308   1.247   8.979 -2.3098  0.9941  1.1763
13577SOL    HW244520   8.204   1.138   8.964 -0.9965 -0.0561 -0.6748
13578SOL     OW44521   8.386   4.044   6.306  0.5140 -0.2762 -0.3587
13578SOL    HW144522   8.396   4.090   6.389  1.6188  0.0197 -0.6302
13578SOL    HW244523   8.349   3.959   6.330  1.1470 -0.3302  0.4790
13579SOL     OW44524   9.140   3.609   5.261  0.0130  0.4326  0.1091
13579SOL    HW144525   9.219   3.557   5.243 -1.0421 -0.8312 -1.0783
13579SOL    HW244526   9.105   3.631   5.174 -1.4028  0.2374  0.6022
13580SOL     OW44527   9.381   3.600   4.862 -0.0828 -0.4074  0.1575
13580SOL    HW144528   9.353   3.642   4.781 -1.0527 -0.6595  0.3449
13580SOL    HW244529   9.409   3.512   4.835 -1.1210 -0.7547  0.1867
13581SOL     OW44530   4.914   6.497   4.037  0.4051 -0.3746 -0.4339
13581SOL    HW144531   4.912   6.402   4.023 -0.7263 -0.8333  2.1730
13581SOL    HW244532   4.830   6.516   4.079  0.3911  1.9079 -1.3775
13582SOL     OW44533   5.283   4.086   8.000 -0.0507  0.1788 -0.0135
13582SOL    HW144534   5.306   3.994   7.989  0.6477  0.2409  0.8372
13582SOL    HW244535   5.188   4.088   7.991  0.0772 -0.3579 -1.7491
13583SOL     OW44536   0.635   5.901   0.979 -0.1609  0.0629  0.3624
13583SOL    HW144537   0.593   5.815   0.982  0.6722 -0.3803 -0.1489
13583SOL    HW244538   0.583   5.951   0.915  0.4272 -0.6857 -0.7390
13584SOL     OW44539   9.279   5.258   5.111 -0.0429  0.4746 -0.0113
13584SOL    HW144540   9.281   5.211   5.195 -0.1281  0.0403 -0.2484
13584SOL    HW244541   9.186   5.267   5.090 -0.0282  0.8578  0.0921
13585SOL     OW44542   3.511   5.968   0.362  0.0667 -0.3608  0.0741
13585SOL    HW144543   3.567   5.901   0.322 -1.6361 -2.7529  1.4605
13585SOL    HW244544   3.437   5.975   0.303  0.5737  0.8903 -0.4351
13586SOL     OW44545   2.369   3.650   0.915 -0.3535  0.2847 -0.3145
13586SOL    HW144546   2.299   3.592   0.886  0.4462  0.0502 -1.9327
13586SOL    HW244547   2.421   3.665   0.835  0.8888  1.1861  0.6333
13587SOL     OW44548   7.616   3.010   8.023 -1.0354  0.1135  0.1142
13587SOL    HW144549   7.551   3.078   8.039 -1.1713 -0.2270  1.0540
13587SOL    HW244550   7.700   3.056   8.029 -1.1702  0.5727 -1.2021
13588SOL     OW44551   8.961   2.629   4.140  0.0422  0.0746  0.3953
13588SOL    HW144552   8.886   2.576   4.168 -0.4715  0.3683 -0.3752
13588SOL    HW244553   9.014   2.569   4.087 -0.7763  0.4284 -0.8622
13589SOL     OW44554   0.677   6.452   6.631  0.1972  0.8076 -0.0084
13589SOL    HW144555   0.659   6.430   6.722 -0.3370 -2.1705 -0.7396
13589SOL    HW244556   0.595   6.490   6.599 -0.1075  0.4661  0.3551
13590SOL     OW44557  10.106   3.106   0.569  0.0626  0.1765  0.2848
13590SOL    HW144558  10.141   3.094   0.657 -0.4562 -1.6398  0.2802
13590SOL    HW244559  10.012   3.118   0.582 -0.0102 -0.0477 -0.0158
13591SOL     OW44560   9.487   6.803   4.650  0.5001 -0.2769  0.6247
13591SOL    HW144561   9.580   6.822   4.657  0.0853  1.9059  0.6491
13591SOL    HW244562   9.470   6.799   4.556  0.2677  1.3564  0.5741
13592SOL     OW44563   9.363   3.791   5.859  0.4627  0.0890  0.0982
13592SOL    HW144564   9.447   3.750   5.875  0.7855  0.9164  0.5968
13592SOL    HW244565   9.379   3.854   5.789  0.2759  0.2933  0.2364
13593SOL     OW44566   6.272   3.847   4.203 -0.0117  0.8917  0.0587
13593SOL    HW144567   6.262   3.863   4.296  0.1988 -0.0847  0.2558
13593SOL    HW244568   6.367   3.837   4.191 -0.1660 -0.7132  0.0439
13594SOL     OW44569   8.087   9.759   5.705 -0.0467 -0.4187 -0.0621
13594SOL    HW144570   8.118   9.704   5.776 -1.1144 -1.5894 -0.4715
13594SOL    HW244571   8.159   9.821   5.689  1.1090 -1.5833  0.5114
13595SOL     OW44572   4.664   2.989   3.834  0.1164 -0.1829 -0.8313
13595SOL    HW144573   4.583   2.955   3.872  0.1122  0.3770 -0.3255
13595SOL    HW244574   4.733   2.933   3.869  0.2272  0.9098  0.8218
13596SOL     OW44575   5.416   0.173   5.179  0.3548 -0.1690 -0.0524
13596SOL    HW144576   5.323   0.167   5.202  0.4542  1.2610  0.8816
13596SOL    HW244577   5.461   0.162   5.263  1.1614 -2.5869 -0.7197
13597SOL     OW44578   7.294   0.813   4.550 -0.0819  0.0376  0.1142
13597SOL    HW144579   7.328   0.876   4.615  0.7603 -0.3192  0.0339
13597SOL    HW244580   7.210   0.850   4.523  0.8809  1.7425 -0.7470
13598SOL     OW44581   9.301  10.178   6.656  0.5828 -0.2655 -0.2636
13598SOL    HW144582   9.287  10.272   6.643  0.1135 -0.5330 -1.9699
13598SOL    HW244583   9.230  10.151   6.714 -0.9057 -0.0030 -1.8629
13599SOL     OW44584   6.936   3.904   6.296  0.0878  0.3579  0.1482
13599SOL    HW144585   6.991   3.862   6.230 -1.4145 -1.1690 -0.2063
13599SOL    HW244586   6.852   3.919   6.252  0.0182  2.1332  0.8310
13600SOL     OW44587   3.203   3.919   2.894  0.4012 -0.1026  0.4980
13600SOL    HW144588   3.124   3.911   2.839  1.0799 -0.0943 -0.4947
13600SOL    HW244589   3.185   3.862   2.968 -0.9917  0.7252  0.8376
13601SOL     OW44590   1.876   3.759  10.014  0.5532  0.1647 -0.4450
13601SOL    HW144591   1.914   3.753  10.102 -0.7046  0.2750  0.1262
13601SOL    HW244592   1.914   3.839   9.978 -0.5292  1.3001  0.8218
13602SOL     OW44593  10.011   2.349   7.792 -0.0259  0.0522  0.3878
13602SOL    HW144594   9.941   2.288   7.814 -0.5232  0.6863  0.5874
13602SOL    HW244595  10.031   2.394   7.874  0.2306  0.2679  0.2091
13603SOL     OW44596   8.588   6.731   6.261 -0.1424 -0.6479 -0.4707
13603SOL    HW144597   8.629   6.645   6.253  1.1574 -0.0277 -0.5925
13603SOL    HW244598   8.510   6.714   6.316 -0.0782 -1.9399 -0.7297
13604SOL     OW44599   0.202   9.500  10.162  0.4722  0.0688 -0.1684
13604SOL    HW144600   0.297   9.507  10.152  0.5803 -1.7036 -0.7124
13604SOL    HW244601   0.189   9.487  10.256  0.9708 -1.7032 -0.3048
13605SOL     OW44602   4.361   3.253   2.903  0.4480  0.0851 -0.6186
13605SOL    HW144603   4.438   3.232   2.956 -1.3810  0.0323  2.2573
13605SOL    HW244604   4.304   3.176   2.912 -0.3597  0.5164 -1.8329
13606SOL     OW44605   5.937   5.279   1.487 -0.1925 -0.1491 -0.1260
13606SOL    HW144606   5.909   5.312   1.402 -0.0101  2.7133  0.8191
13606SOL    HW244607   6.033   5.286   1.484 -0.1059 -1.2699 -0.1290
13607SOL     OW44608   4.854   5.721   3.677 -0.6736 -0.4209  0.3655
13607SOL    HW144609   4.790   5.665   3.632 -0.5485  0.2851 -0.7323
13607SOL    HW244610   4.918   5.743   3.610 -0.1060  0.1257  1.0690
13608SOL     OW44611   0.896   9.811   5.905  0.0701 -0.2962  0.6871
13608SOL    HW144612   0.894   9.766   5.821  0.7067  0.7741  0.0721
13608SOL    HW244613   0.868   9.745   5.969  1.9429 -1.8874 -0.0264
13609SOL     OW44614   3.903   5.847   4.350  0.4432  0.6049 -0.4880
13609SOL    HW144615   3.891   5.940   4.370 -1.6536 -0.0079  1.5277
13609SOL    HW244616   3.867   5.801   4.425 -1.6543 -1.9065 -2.8006
13610SOL     OW44617   6.315   5.596   1.864  0.2316 -0.0166 -0.1878
13610SOL    HW144618   6.391   5.598   1.807 -1.8539 -1.5458 -3.3189
13610SOL    HW244619   6.252   5.654   1.822 -0.3458  1.4458  2.4651
13611SOL     OW44620   3.501   9.577   1.763  0.6010  0.6812 -0.6788
13611SOL    HW144621   3.514   9.568   1.668  0.7442  0.4195 -0.6360
13611SOL    HW244622   3.472   9.491   1.792  3.7705 -0.3151  0.0226
13612SOL     OW44623   8.389  10.264   7.211  0.2374 -1.1308 -0.0831
13612SOL    HW144624   8.361  10.353   7.235  1.0471 -0.3913 -1.7251
13612SOL    HW244625   8.477  10.257   7.247 -0.1058 -1.5728  0.6981
13613SOL     OW44626   1.897   5.936   3.052 -0.0822 -0.0385  0.1687
13613SOL    HW144627   1.983   5.937   3.009 -0.0024 -1.7383  0.2348
13613SOL    HW244628   1.886   5.845   3.081 -1.3653  0.4456  1.2666
13614SOL     OW44629   2.763   5.264   1.300 -0.0739 -0.0614  0.9717
13614SOL    HW144630   2.778   5.358   1.290  1.2169 -0.4964 -2.1199
13614SOL    HW244631   2.678   5.259   1.345 -0.8603  2.5975  0.0375
13615SOL     OW44632   7.106   4.461   0.633 -1.1081  0.2155  0.5283
13615SOL    HW144633   7.092   4.503   0.548 -0.8795 -1.4359 -0.3515
13615SOL    HW244634   7.201   4.450   0.639 -1.2811 -2.0645 -0.2305
13616SOL     OW44635  10.151   3.036   1.932 -0.3095 -0.2313 -0.0891
13616SOL    HW144636  10.246   3.025   1.929 -0.3227 -0.4355  0.1824
13616SOL    HW244637  10.138   3.130   1.930 -0.0417 -0.1487  1.1869
13617SOL     OW44638   1.323   2.814   0.931  0.2269  0.4287  0.6191
13617SOL    HW144639   1.303   2.829   0.838  0.3724  0.0901  0.5291
13617SOL    HW244640   1.257   2.751   0.960  0.7775 -0.2366  0.4764
13618SOL     OW44641   5.369   3.020   2.543 -0.1479 -0.1970 -0.2345
13618SOL    HW144642   5.328   2.968   2.612  0.4861 -2.5190 -1.4829
13618SOL    HW244643   5.312   3.008   2.467  0.0403  0.9317 -0.5702
13619SOL     OW44644   6.284   1.408   6.600 -0.1173  0.2080  0.2523
13619SOL    HW144645   6.235   1.481   6.637 -0.5980 -0.1808  0.3929
13619SOL    HW244646   6.236   1.330   6.629  0.3589 -0.1588  0.0603
13620SOL     OW44647   8.714   1.325   6.879  0.4048 -1.2760  0.1336
13620SOL    HW144648   8.686   1.246   6.924  1.1478 -1.0073  1.1202
13620SOL    HW244649   8.634   1.375   6.865  0.2412 -0.8809  2.1822
13621SOL     OW44650   6.449   0.038   0.448  0.0351 -0.8920  0.3006
13621SOL    HW144651   6.399   0.053   0.529 -1.0181 -3.0672  0.1217
13621SOL    HW244652   6.427  -0.052   0.423  2.4783 -1.2160 -0.9383
13622SOL     OW44653   2.076   5.662   8.486  0.0627  0.0137  0.2106
13622SOL    HW144654   2.045   5.610   8.412 -1.0909 -1.1450  1.4462
13622SOL    HW244655   2.171   5.663   8.476  0.1090 -2.0274 -0.1061
13623SOL     OW44656   1.906   7.743   2.981 -0.3196  0.4462  0.0752
13623SOL    HW144657   1.988   7.724   3.025 -1.5648 -1.6089  1.6759
13623SOL    HW244658   1.898   7.839   2.985  1.5350  0.6040  0.6638
13624SOL     OW44659  10.251   5.469   5.798  0.3330  0.0980  0.1850
13624SOL    HW144660  10.297   5.505   5.722  0.0903 -0.1545 -0.0896
13624SOL    HW244661  10.159   5.469   5.771  0.2589 -0.0966  0.4365
13625SOL     OW44662   1.719   5.980   9.681 -0.4718 -0.4810 -0.3010
13625SOL    HW144663   1.662   6.052   9.655 -0.1312 -0.7596 -1.9436
13625SOL    HW244664   1.663   5.903   9.684 -0.4406 -0.5196 -0.6448
13626SOL     OW44665   1.287   1.567   1.963 -0.7320 -0.7200 -0.3020
13626SOL    HW144666   1.212   1.586   2.019 -0.5466 -0.2246 -0.2134
13626SOL    HW244667   1.251   1.567   1.874 -0.7066  0.2778 -0.3228
13627SOL     OW44668   0.948   7.911   0.979 -0.4723 -0.7689  0.8312
13627SOL    HW144669   0.879   7.889   1.042  1.1562  1.2725  3.5854
13627SOL    HW244670   0.913   7.986   0.931 -0.6788 -0.5559  1.3044
13628SOL     OW44671   7.313   3.173   6.699  0.6460 -0.0656  0.0382
13628SOL    HW144672   7.341   3.239   6.636  1.3910  0.0783  0.5082
13628SOL    HW244673   7.340   3.209   6.784 -1.7723  0.5272  0.6412
13629SOL     OW44674   0.584   6.058   8.939  0.3658 -0.1686  0.1467
13629SOL    HW144675   0.656   6.116   8.965  0.0216 -0.3582  1.6559
13629SOL    HW244676   0.617   6.011   8.862  2.3874 -1.1720  1.5316
13630SOL     OW44677   6.222   4.281   0.536 -0.6819  0.1747 -0.3821
13630SOL    HW144678   6.238   4.199   0.581  1.4713 -0.2310 -1.7541
13630SOL    HW244679   6.259   4.348   0.594  3.6844 -0.4787 -2.0003
13631SOL     OW44680   8.698   4.472   7.692 -0.2244 -0.2526 -0.1962
13631SOL    HW144681   8.764   4.456   7.624  0.9464 -1.4501  1.1580
13631SOL    HW244682   8.651   4.549   7.661  1.4415  0.3175 -1.5013
13632SOL     OW44683   7.832   1.756   7.717 -0.6906 -0.5746 -0.3521
13632SOL    HW144684   7.741   1.726   7.721 -0.5691 -1.2313 -1.8689
13632SOL    HW244685   7.870   1.730   7.801 -2.3196  1.2024  1.0122
13633SOL     OW44686   8.116   7.351  10.336 -0.2245  0.3894  0.2095
13633SOL    HW144687   8.175   7.342  10.260  0.0428  1.5137  0.2668
13633SOL    HW244688   8.164   7.408  10.396  0.2510 -1.7105  1.9350
13634SOL     OW44689   8.628   7.812   6.747  0.2891  0.4786 -0.0415
13634SOL    HW144690   8.723   7.803   6.748  0.0834 -3.5927  0.7304
13634SOL    HW244691   8.609   7.850   6.661  2.5332 -1.8504 -1.7370
13635SOL     OW44692   6.514   0.671   0.365  0.3156 -0.1298  0.4393
13635SOL    HW144693   6.518   0.710   0.278 -1.3737 -0.1133  0.3469
13635SOL    HW244694   6.522   0.577   0.350 -0.8495 -0.1968  0.1683
13636SOL     OW44695   8.924   8.755   9.924 -0.3391  0.6067  0.1325
13636SOL    HW144696   8.987   8.776   9.993 -0.3623 -0.8161  0.6159
13636SOL    HW244697   8.954   8.671   9.889 -1.1640  0.6060 -0.6023
13637SOL     OW44698   1.182   5.588   3.476  0.0844  0.3775 -0.6344
13637SOL    HW144699   1.155   5.583   3.385 -1.3462 -3.2048 -0.1659
13637SOL    HW244700   1.277   5.579   3.474 -0.1225 -2.4643 -1.7652
13638SOL     OW44701   8.362   6.715   2.846 -0.3767 -0.0433  0.7254
13638SOL    HW144702   8.335   6.663   2.770 -1.0950 -0.6263  1.3739
13638SOL    HW244703   8.380   6.802   2.810  0.3832 -0.5977 -0.2987
13639SOL     OW44704   6.908   3.431   7.331 -0.5294  0.0841  0.2071
13639SOL    HW144705   6.997   3.404   7.308 -0.1641  0.7301  0.8317
13639SOL    HW244706   6.869   3.353   7.369 -1.3769 -1.2374 -3.0830
13640SOL     OW44707   5.668   1.344   9.510  0.3253 -0.6168 -0.3186
13640SOL    HW144708   5.722   1.322   9.585  0.3972  0.6029  0.0070
13640SOL    HW244709   5.618   1.264   9.492  0.4415 -0.9826  0.8988
13641SOL     OW44710   2.904   0.544   6.384 -0.0571 -0.3821  0.7110
13641SOL    HW144711   2.858   0.604   6.443 -0.7909  0.3252 -0.5345
13641SOL    HW244712   2.986   0.524   6.429  0.1328  1.4308  1.2586
13642SOL     OW44713   6.887   9.046   1.947 -0.1439  0.6737  0.4016
13642SOL    HW144714   6.856   9.102   1.876  0.9565 -0.1611 -0.7649
13642SOL    HW244715   6.928   9.107   2.009  2.4383  1.1205 -1.5745
13643SOL     OW44716   4.356   4.986   8.569  0.1569 -0.1366  0.3705
13643SOL    HW144717   4.334   4.968   8.660 -3.5280 -0.9746 -0.5054
13643SOL    HW244718   4.390   4.903   8.536  1.4144  0.1443  0.9067
13644SOL     OW44719   1.805   2.289  10.252  0.0279 -0.1578 -0.2608
13644SOL    HW144720   1.791   2.361  10.314 -0.2356  0.3141 -0.8653
13644SOL    HW244721   1.780   2.325  10.167 -1.3883 -1.3541 -0.3989
13645SOL     OW44722   9.658   5.545   2.671 -1.0749  0.5282  0.2005
13645SOL    HW144723   9.676   5.577   2.760  0.4579 -1.2449  0.6025
13645SOL    HW244724   9.738   5.563   2.623 -1.2784 -0.0394 -0.3594
13646SOL     OW44725   3.824  10.246  10.024 -0.2381 -0.0466  0.1325
13646SOL    HW144726   3.755  10.295   9.982 -0.6734 -0.6299  0.1535
13646SOL    HW244727   3.904  10.296  10.007 -0.6579  0.6055  0.0797
13647SOL     OW44728  10.279   7.575   2.163  0.2420 -0.3401  0.1201
13647SOL    HW144729  10.255   7.621   2.243  0.8468 -0.5316  0.4181
13647SOL    HW244730  10.196   7.555   2.121 -0.0340  1.0186 -0.0192
13648SOL     OW44731   1.689   7.539   2.725 -0.0170  0.2098  0.2739
13648SOL    HW144732   1.709   7.532   2.819 -0.5716  0.5716  0.4202
13648SOL    HW244733   1.759   7.594   2.690  1.3326 -1.5336  0.0928
13649SOL     OW44734   9.705   5.730   3.533 -0.0893 -0.5067 -0.0775
13649SOL    HW144735   9.708   5.639   3.505  0.6789 -0.0774 -1.5068
13649SOL    HW244736   9.612   5.754   3.529 -0.0382 -0.4789 -2.3878
13650SOL     OW44737   3.511   0.051   9.060 -0.0032  0.3293 -0.3296
13650SOL    HW144738   3.537   0.000   9.137 -0.0296  0.1403 -0.4436
13650SOL    HW244739   3.444   0.112   9.092 -1.8873 -1.4260 -0.6564
13651SOL     OW44740   1.881   3.923   1.055 -0.1232 -0.1762 -0.1229
13651SOL    HW144741   1.934   3.969   1.120  0.3814 -2.2690  1.0399
13651SOL    HW244742   1.944   3.900   0.986 -0.0478 -0.4118  0.0218
13652SOL     OW44743   9.400   1.370   2.883 -0.8841 -0.0119  0.5193
13652SOL    HW144744   9.324   1.350   2.938 -0.4981 -0.3947  0.9111
13652SOL    HW244745   9.440   1.285   2.866 -2.0285 -0.1572 -1.8799
13653SOL     OW44746   8.985   0.285   2.437 -0.4322 -0.0344 -0.0074
13653SOL    HW144747   8.976   0.316   2.528  0.2192 -0.7974  0.3305
13653SOL    HW244748   8.894   0.275   2.407 -0.6763 -0.8019  0.9334
13654SOL     OW44749   0.271   6.645   0.427  0.2021  0.4563 -0.3385
13654SOL    HW144750   0.354   6.640   0.476 -1.1749 -0.2697  2.0831
13654SOL    HW244751   0.280   6.580   0.358  1.5311  0.1212  0.1152
13655SOL     OW44752   5.506   9.590   9.378 -0.2749 -0.1433  0.2488
13655SOL    HW144753   5.471   9.508   9.413  1.2038 -0.4218  1.1843
13655SOL    HW244754   5.477   9.657   9.439 -0.0942 -0.2229  0.4247
13656SOL     OW44755   8.872   7.215   8.359 -0.1295 -0.2055 -0.2843
13656SOL    HW144756   8.918   7.299   8.367 -1.4589  0.4861  0.5677
13656SOL    HW244757   8.893   7.169   8.440 -0.9383  0.1353  0.1328
13657SOL     OW44758   1.106   4.145   6.408 -0.2048  0.1704 -0.4090
13657SOL    HW144759   1.195   4.122   6.382 -0.1630  2.0634 -2.1227
13657SOL    HW244760   1.071   4.064   6.445  1.5419 -1.1855 -1.5412
13658SOL     OW44761   8.019   1.896   7.228  0.3452  0.5569 -0.3848
13658SOL    HW144762   8.001   1.839   7.153  2.3647 -1.2541  0.3810
13658SOL    HW244763   8.099   1.943   7.204  0.1382  1.1193  0.0171
13659SOL     OW44764   5.003   3.977   2.272  0.1196 -0.0956  0.2814
13659SOL    HW144765   4.996   4.029   2.191 -0.3542  0.2133  0.5150
13659SOL    HW244766   5.091   3.995   2.304  0.1006  0.2565  0.1475
13660SOL     OW44767   3.902   5.689  10.358 -0.0668  0.6290  0.0102
13660SOL    HW144768   3.907   5.780  10.387 -0.0687  1.0940 -1.4099
13660SOL    HW244769   3.979   5.676  10.303 -0.1334 -0.1942  0.0881
13661SOL     OW44770   0.643   4.410   0.130 -0.0342  0.0534  0.5651
13661SOL    HW144771   0.601   4.484   0.088  0.7419  1.5198  2.2400
13661SOL    HW244772   0.574   4.368   0.181 -0.9411 -1.6365 -1.8507
13662SOL     OW44773   1.646   2.717  10.223  0.8466 -0.2506  0.1193
13662SOL    HW144774   1.643   2.636  10.274 -0.5650  0.5569  1.4046
13662SOL    HW244775   1.555   2.747  10.220  1.2005  0.7896 -1.1827
13663SOL     OW44776   8.479   5.269   4.077 -0.4876  0.1511 -0.0035
13663SOL    HW144777   8.533   5.222   4.142  0.0710 -0.5090 -0.9119
13663SOL    HW244778   8.404   5.211   4.062 -0.1876 -0.0975 -0.5610
13664SOL     OW44779   6.026   9.760   1.171  0.5639 -0.6219  0.2299
13664SOL    HW144780   6.093   9.728   1.231 -0.3787 -1.6404  0.7693
13664SOL    HW244781   5.970   9.684   1.154  0.8252 -0.4012 -1.9923
13665SOL     OW44782   3.034   0.278   3.433  0.1589 -0.5475  0.4131
13665SOL    HW144783   3.112   0.312   3.477 -0.2706 -0.0701  0.8227
13665SOL    HW244784   3.040   0.183   3.446  1.4495 -0.6732 -0.8852
13666SOL     OW44785   1.902   9.036   2.272 -0.1096 -0.1102  0.1821
13666SOL    HW144786   1.838   8.995   2.330  1.5401 -2.3323  0.5857
13666SOL    HW244787   1.944   9.103   2.327 -0.4689 -0.2691  0.6574
13667SOL     OW44788   0.593   8.947   6.744 -0.0733  0.0630 -0.2577
13667SOL    HW144789   0.562   8.857   6.758 -0.6769  0.3323  0.1739
13667SOL    HW244790   0.685   8.945   6.773 -0.2021 -0.3215  0.1444
13668SOL     OW44791   3.511   4.555   3.612  0.2984 -0.0624 -0.5751
13668SOL    HW144792   3.521   4.530   3.704  1.3012  0.0700 -0.6398
13668SOL    HW244793   3.585   4.514   3.568 -0.9708 -1.3791 -1.6051
13669SOL     OW44794   6.666   9.499   8.139 -0.1656  0.1857  0.0134
13669SOL    HW144795   6.638   9.590   8.145 -1.4200 -0.0743 -1.4696
13669SOL    HW244796   6.733   9.499   8.070  1.1313  0.2313  1.2108
13670SOL     OW44797   3.275   0.292   6.377  0.5387 -0.2555 -0.3710
13670SOL    HW144798   3.297   0.371   6.426  2.5102 -0.8704 -0.1518
13670SOL    HW244799   3.359   0.263   6.340  0.1350 -2.8697  0.5335
13671SOL     OW44800   5.435   4.835   2.595 -0.2671  0.1585  0.1624
13671SOL    HW144801   5.423   4.780   2.673  2.0314 -1.4847 -0.5548
13671SOL    HW244802   5.515   4.803   2.555 -0.7449  1.7586 -2.2692
13672SOL     OW44803   7.557   5.195   3.224 -0.2575  0.4046 -0.3595
13672SOL    HW144804   7.519   5.180   3.138  0.8328  0.4478 -0.8698
13672SOL    HW244805   7.623   5.126   3.234 -1.5333 -0.6693  1.1887
13673SOL     OW44806   5.592  10.255   0.889  0.3754 -0.4853 -0.5283
13673SOL    HW144807   5.614  10.235   0.798  1.3016 -0.7274 -0.2525
13673SOL    HW244808   5.561  10.172   0.925 -2.0112  0.0294 -1.1638
13674SOL     OW44809   6.637   6.492   7.609  0.1414 -0.5834 -0.0891
13674SOL    HW144810   6.699   6.560   7.634  0.0779 -1.7272  3.7502
13674SOL    HW244811   6.552   6.527   7.636 -1.0002  0.4495 -4.1873
13675SOL     OW44812   8.949   0.729   5.971 -0.0481  0.0858  0.6522
13675SOL    HW144813   8.960   0.682   5.888  0.5560 -1.0250  1.3352
13675SOL    HW244814   8.854   0.731   5.984 -0.0888 -1.1063  0.6798
13676SOL     OW44815   2.617   3.297   9.464  0.4850 -0.3457  0.0729
13676SOL    HW144816   2.606   3.204   9.449  0.7436 -0.1877 -1.2379
13676SOL    HW244817   2.688   3.323   9.405  0.2832  0.7129  0.2660
13677SOL     OW44818   4.976   4.045   4.829 -0.4255 -0.1604  0.1464
13677SOL    HW144819   4.994   4.051   4.735  0.2010  0.4254  0.3009
13677SOL    HW244820   4.897   4.098   4.842  0.3679  1.0384  0.1879
13678SOL     OW44821   4.403   8.036   0.394  0.4069 -0.4959 -0.5449
13678SOL    HW144822   4.486   8.044   0.348  0.3872 -0.1553 -0.5242
13678SOL    HW244823   4.395   8.117   0.444 -0.8082  0.3004 -1.9652
13679SOL     OW44824   6.310   3.728   8.970 -0.2397 -0.0921  0.2453
13679SOL    HW144825   6.389   3.701   8.924  0.0696 -0.9945  1.2464
13679SOL    HW244826   6.280   3.648   9.015 -1.8546  0.1745 -0.2984
13680SOL     OW44827   9.641   8.786   3.930  0.6034 -0.5698  0.6678
13680SOL    HW144828   9.703   8.806   3.859 -0.8636  1.5783 -0.1054
13680SOL    HW244829   9.630   8.869   3.976 -0.4903 -1.3082  1.7913
13681SOL     OW44830   7.144   3.395   7.227  0.0757 -0.4675 -0.2622
13681SOL    HW144831   7.229   3.413   7.267  0.7098 -0.1336 -1.6718
13681SOL    HW244832   7.163   3.393   7.133 -1.2492 -1.6926 -0.5275
13682SOL     OW44833   1.198   5.967   4.181 -0.3752  0.5347  0.0004
13682SOL    HW144834   1.122   5.958   4.239  0.7399  0.5126  1.5230
13682SOL    HW244835   1.189   6.055   4.144 -1.2142  0.4712  0.0184
13683SOL     OW44836   7.235   7.272   3.126  0.6148  0.0671 -0.2458
13683SOL    HW144837   7.205   7.240   3.040  2.6413 -0.2717 -0.8774
13683SOL    HW244838   7.205   7.205   3.187 -2.6210  1.2713 -0.3030
13684SOL     OW44839   5.108   1.200   7.980  0.5641 -0.1832  0.5043
13684SOL    HW144840   5.129   1.171   7.892  2.6453 -0.7641  1.1347
13684SOL    HW244841   5.101   1.119   8.031 -3.0978 -0.0412  0.4832
13685SOL     OW44842   8.435   2.233   6.382 -0.2353  0.1835 -0.5558
13685SOL    HW144843   8.493   2.277   6.319  0.6605 -0.8073 -0.4615
13685SOL    HW244844   8.359   2.290   6.389  0.1268  0.8387 -1.7333
13686SOL     OW44845   0.417   1.356   7.925  0.1376  0.1254 -0.1662
13686SOL    HW144846   0.463   1.275   7.947  0.0157  0.3042  0.8030
13686SOL    HW244847   0.425   1.410   8.004 -2.0605  0.0195  0.1808
13687SOL     OW44848   1.744   8.786   1.312  0.9463 -0.3339  0.2124
13687SOL    HW144849   1.711   8.709   1.266  0.2662  0.1406 -0.1059
13687SOL    HW244850   1.668   8.842   1.323  1.4755  0.3937  0.2530
13688SOL     OW44851   8.000   4.595   5.916 -0.0625  0.5254  0.2608
13688SOL    HW144852   7.914   4.581   5.956  0.4837 -0.2907  1.2305
13688SOL    HW244853   8.060   4.550   5.975  0.6635 -2.0997 -2.2822
13689SOL     OW44854   2.896   7.245   9.818 -0.3499 -0.2507  0.1581
13689SOL    HW144855   2.935   7.212   9.900  1.5078 -1.4599 -1.1267
13689SOL    HW244856   2.853   7.169   9.779 -0.5963  0.1344 -0.3307
13690SOL     OW44857   3.972   4.019   3.716 -0.0213 -0.5266 -0.3984
13690SOL    HW144858   4.052   4.035   3.665  0.6754 -2.2144  0.1043
13690SOL    HW244859   4.004   3.995   3.803 -1.1807  1.6311  0.6904
13691SOL     OW44860   5.197   5.670   2.211 -0.0936 -0.3072 -0.4402
13691SOL    HW144861   5.157   5.671   2.123 -2.0079  0.1778  0.3889
13691SOL    HW244862   5.162   5.591   2.252  2.3420 -1.6211 -0.7314
13692SOL     OW44863   6.966   3.935   2.587 -0.0164  0.2965 -0.2046
13692SOL    HW144864   6.894   3.885   2.550  0.9662 -0.2464 -1.4476
13692SOL    HW244865   6.951   3.933   2.681 -0.8813 -0.9518 -0.3500
13693SOL     OW44866   3.528   2.165   6.769 -0.5779  0.2500  0.2909
13693SOL    HW144867   3.460   2.112   6.811 -2.3095 -0.2981 -2.8797
13693SOL    HW244868   3.606   2.110   6.769 -1.6624 -1.3485 -0.7136
13694SOL     OW44869  10.264   8.294   3.855  0.1458  0.0674  0.2362
13694SOL    HW144870  10.266   8.209   3.810  1.7915  0.5541 -0.6890
13694SOL    HW244871  10.267   8.271   3.948  0.6286 -0.8962  0.0033
13695SOL     OW44872   7.573   6.433   7.201 -0.3138  0.0700  0.0635
13695SOL    HW144873   7.612   6.347   7.215  2.0941  1.0400 -0.2073
13695SOL    HW244874   7.647   6.492   7.189 -1.8973  2.0486 -0.7106
13696SOL     OW44875   9.037   4.170   2.752  0.1984  0.1819 -0.1479
13696SOL    HW144876   9.037   4.108   2.824  1.1515  1.1081  0.6775
13696SOL    HW244877   8.954   4.154   2.707 -0.2952 -0.5931  0.9902
13697SOL     OW44878   0.402   1.732   6.507 -0.5030  0.1962 -0.1097
13697SOL    HW144879   0.374   1.789   6.436 -0.8980 -1.3997 -1.2870
13697SOL    HW244880   0.492   1.709   6.485 -0.7014 -0.4889 -0.2335
13698SOL     OW44881   5.258   6.740   7.657 -0.1077 -0.0858 -0.2893
13698SOL    HW144882   5.324   6.747   7.587 -0.2724  1.4189 -0.3304
13698SOL    HW244883   5.179   6.713   7.611 -0.2444  1.0062 -0.7377
13699SOL     OW44884   2.002   3.098   8.630 -0.1978  0.1009 -0.2539
13699SOL    HW144885   2.091   3.113   8.596 -0.2144 -0.2614 -0.4518
13699SOL    HW244886   1.966   3.187   8.640 -0.3615  0.2106 -1.6234
13700SOL     OW44887   6.934   7.786   1.291 -0.3722 -0.1626  0.0137
13700SOL    HW144888   6.936   7.714   1.355  0.8393 -0.4301 -0.3003
13700SOL    HW244889   6.884   7.855   1.335  1.7716  0.2786  1.9824
13701SOL     OW44890   2.265   5.666   2.049 -0.1479  0.7162  0.2701
13701SOL    HW144891   2.306   5.748   2.077 -1.8703  1.2285  1.5187
13701SOL    HW244892   2.180   5.693   2.015 -0.1917 -0.4450 -0.5927
13702SOL     OW44893   3.352  10.269   0.879  0.1040  0.2619  0.3321
13702SOL    HW144894   3.321  10.307   0.961 -1.0757 -1.0271  0.5202
13702SOL    HW244895   3.409  10.197   0.905 -1.6116 -1.2613  0.1248
13703SOL     OW44896  10.005   1.549   0.471 -0.0960 -0.1296 -0.1782
13703SOL    HW144897  10.060   1.529   0.395  0.9609 -0.4479  0.6553
13703SOL    HW244898   9.930   1.490   0.462  0.6780 -1.1282 -0.2723
13704SOL     OW44899   6.209   1.724   7.869  0.4960  0.0854  0.2284
13704SOL    HW144900   6.215   1.660   7.939  1.4762 -0.0139  0.0621
13704SOL    HW244901   6.126   1.769   7.885 -0.1759 -1.1838  0.3676
13705SOL     OW44902   6.559   7.658   4.997 -0.0093  0.1841  0.1846
13705SOL    HW144903   6.523   7.653   4.909 -1.2901 -0.9707  0.7304
13705SOL    HW244904   6.487   7.691   5.051  0.2316 -0.6175  1.0353
13706SOL     OW44905   6.061   6.276   6.705 -0.1204 -0.6675  0.0004
13706SOL    HW144906   6.141   6.241   6.743  0.8952  1.6185  0.1740
13706SOL    HW244907   6.060   6.244   6.615  2.4627  1.2865 -0.8529
13707SOL     OW44908   2.312   8.384   6.337 -0.4451  0.5117  0.3559
13707SOL    HW144909   2.259   8.358   6.262 -1.8226  0.1373  1.4166
13707SOL    HW244910   2.393   8.417   6.299 -0.5155 -1.0160 -1.2392
13708SOL     OW44911   7.021   5.990   8.886 -0.0702 -0.2090  0.3729
13708SOL    HW144912   7.089   6.039   8.839  0.5564 -0.5391  0.9189
13708SOL    HW244913   7.007   5.912   8.833 -1.5210  0.8247 -0.8347
13709SOL     OW44914   3.505   7.636   9.279  0.0265 -0.0436 -0.4212
13709SOL    HW144915   3.455   7.557   9.257 -0.7551  0.8471 -1.9739
13709SOL    HW244916   3.446   7.688   9.332  0.2942 -0.1909  0.0234
13710SOL     OW44917   7.677   8.640   0.270  0.3756  0.7909  0.3537
13710SOL    HW144918   7.616   8.653   0.342 -1.5519  2.2336 -1.4373
13710SOL    HW244919   7.635   8.681   0.195  3.7044  2.1650 -0.9508
13711SOL     OW44920   6.189   3.905   7.693  0.0515 -0.4292  0.3699
13711SOL    HW144921   6.171   3.934   7.603 -0.7736 -1.3672  0.2050
13711SOL    HW244922   6.165   3.812   7.692  1.2067 -0.7434  1.2477
13712SOL     OW44923   5.236   0.827   8.175  0.0282 -0.0503  0.0264
13712SOL    HW144924   5.165   0.836   8.111 -1.3145  0.4348  1.5217
13712SOL    HW244925   5.242   0.913   8.217 -0.2730 -0.8023  1.6890
13713SOL     OW44926   6.309   9.762   2.385  0.7477  0.1365 -0.2769
13713SOL    HW144927   6.233   9.794   2.337  1.6354  1.2106 -1.0362
13713SOL    HW244928   6.281   9.679   2.424 -0.8351  0.5836 -0.4195
13714SOL     OW44929   8.444   8.309   0.729 -0.0563  0.3234  0.0449
13714SOL    HW144930   8.351   8.321   0.710 -0.7645 -0.7707  2.5058
13714SOL    HW244931   8.467   8.228   0.683 -0.8121 -0.3763  0.8631
13715SOL     OW44932   8.978   8.703   9.650  0.2853 -0.6829 -0.2967
13715SOL    HW144933   8.925   8.779   9.626 -1.1295 -0.9771  1.6261
13715SOL    HW244934   9.052   8.741   9.698 -0.5412 -0.4589  0.8732
13716SOL     OW44935   5.840   4.661   2.161 -0.4222 -0.0373  0.0865
13716SOL    HW144936   5.895   4.689   2.088  0.2903  0.0764  0.6562
13716SOL    HW244937   5.858   4.568   2.171 -1.0357 -0.2071 -0.3095
13717SOL     OW44938   0.699   0.830   8.695  0.7441 -0.5632 -0.3400
13717SOL    HW144939   0.741   0.818   8.609 -0.3274  0.1624 -0.9767
13717SOL    HW244940   0.770   0.814   8.757  1.0784 -3.2862 -1.2628
13718SOL     OW44941   5.929   1.711   2.050  0.1299  0.2368  0.0242
13718SOL    HW144942   5.896   1.680   1.965 -1.3368  1.7697 -0.0167
13718SOL    HW244943   5.929   1.806   2.043  0.7828  0.3736  1.4655
13719SOL     OW44944   3.778   5.378   5.583 -0.4378 -0.1590 -0.4504
13719SOL    HW144945   3.772   5.404   5.491  1.5985  0.1057 -0.5695
13719SOL    HW244946   3.817   5.291   5.581 -0.0363 -0.0046  0.1426
13720SOL     OW44947   4.381   3.290   7.491  0.1959 -0.0194  0.0365
13720SOL    HW144948   4.445   3.356   7.463  2.4742 -1.8416  0.6324
13720SOL    HW244949   4.349   3.322   7.576  2.2116 -0.2079  0.9147
13721SOL     OW44950   9.113   4.923  10.147 -0.1427  0.5001  0.2799
13721SOL    HW144951   9.154   4.892  10.228 -0.6157  0.9356  0.6920
13721SOL    HW244952   9.177   4.905  10.079  0.4925  0.6614  0.8341
13722SOL     OW44953   7.695   8.799   0.898  0.2266  0.2291 -0.0143
13722SOL    HW144954   7.656   8.818   0.813  2.8864  0.1180 -1.3610
13722SOL    HW244955   7.668   8.710   0.918  1.1574 -0.4943 -1.7521
13723SOL     OW44956   5.345   0.708   0.449 -0.1317  0.3807  0.8227
13723SOL    HW144957   5.336   0.629   0.395 -1.6000  0.8474  0.3225
13723SOL    HW244958   5.349   0.780   0.387 -0.0760  0.7939  1.2942
13724SOL     OW44959   9.529   7.962   6.685 -0.0482  0.1311  0.7799
13724SOL    HW144960   9.448   8.012   6.687  0.0720  0.3567  0.1411
13724SOL    HW244961   9.502   7.871   6.701 -0.1751  0.4817  2.8140
13725SOL     OW44962   4.795   2.100   2.939 -0.4787  0.2055  0.1974
13725SOL    HW144963   4.744   2.080   3.018 -0.3084  0.7264  0.4476
13725SOL    HW244964   4.886   2.083   2.965 -0.5914 -1.7604 -0.5774
13726SOL     OW44965   6.159   7.191   1.503 -0.0923  0.7271  0.3155
13726SOL    HW144966   6.171   7.097   1.490 -0.0433  0.8623 -0.7239
13726SOL    HW244967   6.248   7.226   1.509 -0.0669  0.8957 -0.8604
13727SOL     OW44968   4.901   1.207   1.264 -0.6913  0.6253 -0.5177
13727SOL    HW144969   4.988   1.170   1.280 -1.2060 -0.4437 -0.1500
13727SOL    HW244970   4.918   1.301   1.252  0.3285  0.7400  1.3498
13728SOL     OW44971   8.835   3.148   3.858  0.1242  0.4545 -0.0647
13728SOL    HW144972   8.926   3.121   3.853  0.1595  0.6682 -0.6480
13728SOL    HW244973   8.828   3.195   3.941  0.9943  2.0540 -0.8324
13729SOL     OW44974   7.275   9.372   4.744  0.4188 -0.6041 -0.1846
13729SOL    HW144975   7.275   9.411   4.832  1.0508 -1.0603  0.0294
13729SOL    HW244976   7.304   9.443   4.686  0.3627 -0.4060  0.0282
13730SOL     OW44977   8.378   4.317   2.743  0.6796  0.1343  0.4675
13730SOL    HW144978   8.431   4.374   2.799 -0.9020  1.1320  0.9997
13730SOL    HW244979   8.365   4.237   2.795  1.1039  0.1438  0.5918
13731SOL     OW44980   8.096   1.989   5.697  0.1142  0.3086 -0.5198
13731SOL    HW144981   8.183   1.967   5.665  0.2387  0.8160 -0.5262
13731SOL    HW244982   8.038   1.968   5.624 -0.1590 -2.9564  0.4766
13732SOL     OW44983   5.707   2.185   2.110  0.0267  0.1163 -0.2077
13732SOL    HW144984   5.750   2.101   2.096 -0.9687 -0.3363 -0.7294
13732SOL    HW244985   5.737   2.215   2.196 -1.0997 -1.7360  0.8897
13733SOL     OW44986   1.125   2.038   0.744  0.1516 -0.4000 -0.0462
13733SOL    HW144987   1.105   2.012   0.654 -3.5596  1.7665 -0.0360
13733SOL    HW244988   1.071   1.982   0.799  0.7571 -0.2689  0.7029
13734SOL     OW44989   0.196   4.102   3.118  0.4652  0.1496  0.7739
13734SOL    HW144990   0.209   4.051   3.039 -1.1196  0.0705  0.5330
13734SOL    HW244991   0.107   4.136   3.111  0.8877  1.5638  1.7178
13735SOL     OW44992   1.979   2.554   1.681 -0.6334  0.3592 -0.4594
13735SOL    HW144993   1.918   2.624   1.706 -0.4047  0.7265 -0.9361
13735SOL    HW244994   1.927   2.474   1.691 -1.5708  0.7371 -1.9478
13736SOL     OW44995   3.536   4.024   4.342 -0.0732 -0.1817  0.9825
13736SOL    HW144996   3.454   3.981   4.314 -1.9151  3.0825  0.8926
13736SOL    HW244997   3.519   4.053   4.431  0.7153  1.1144  0.7350
13737SOL     OW44998   6.022   9.770   4.335  0.3426  0.3667 -0.0342
13737SOL    HW144999   6.009   9.864   4.353 -0.5099 -0.1333  2.5361
13737SOL    HW245000   6.114   9.754   4.354  0.3932  0.6219 -0.0645
13738SOL     OW45001   6.063   6.899   6.031  0.6179  1.0412 -0.0204
13738SOL    HW145002   6.147   6.891   6.077  0.8079  1.1091 -0.3462
13738SOL    HW245003   6.081   6.865   5.943 -0.0283 -0.1499  0.2859
13739SOL     OW45004   5.129   8.309   4.614  0.1323 -0.3283  0.0369
13739SOL    HW145005   5.117   8.215   4.622 -1.4366 -0.1172  0.3364
13739SOL    HW245006   5.083   8.333   4.533  2.1338 -0.0570 -1.1062
13740SOL     OW45007   3.798   6.005   5.773  0.3299 -0.2378 -0.1571
13740SOL    HW145008   3.814   6.099   5.776  0.5069 -0.2575 -0.3824
13740SOL    HW245009   3.872   5.967   5.820  0.3199 -0.2700 -0.1674
13741SOL     OW45010   5.626   3.297   8.742  0.1674 -0.1999 -0.3354
13741SOL    HW145011   5.647   3.206   8.721  1.4176 -0.2635  1.0283
13741SOL    HW245012   5.658   3.309   8.832 -0.1785  1.5271 -0.4094
13742SOL     OW45013  10.116   9.141   5.675  0.7623  0.0636  0.1752
13742SOL    HW145014  10.090   9.225   5.637 -0.9134 -0.5834 -0.1942
13742SOL    HW245015  10.165   9.097   5.606 -0.3997 -0.2067 -0.5104
13743SOL     OW45016   7.821   6.793   8.071 -0.1840 -0.0540 -0.3670
13743SOL    HW145017   7.821   6.741   7.990  3.5171 -0.2775 -0.4310
13743SOL    HW245018   7.763   6.867   8.052 -3.5129 -2.6513 -1.2426
13744SOL     OW45019   7.412   2.110   6.413  0.6848  0.3124 -0.1326
13744SOL    HW145020   7.329   2.129   6.457 -0.1534 -2.3253 -0.3758
13744SOL    HW245021   7.387   2.092   6.322  1.4047 -1.0096 -0.0985
13745SOL     OW45022   0.724   6.559   2.935  0.0607 -0.0728 -0.2443
13745SOL    HW145023   0.740   6.591   3.024 -0.2767 -1.0000  0.1608
13745SOL    HW245024   0.654   6.495   2.945 -0.7254  0.5779 -1.3307
13746SOL     OW45025   3.344   7.821   9.451  0.1984 -0.7116 -0.4869
13746SOL    HW145026   3.322   7.768   9.528  0.9721 -0.8738 -0.3740
13746SOL    HW245027   3.366   7.907   9.488 -0.2761 -0.5339 -0.6064
13747SOL     OW45028   6.332   7.523   2.763  0.0398  0.2306 -0.1850
13747SOL    HW145029   6.334   7.583   2.838 -1.1848  0.2178 -0.1224
13747SOL    HW245030   6.333   7.580   2.686  0.4526  0.2694 -0.1551
13748SOL     OW45031   4.645   2.280   6.358 -0.0071  0.2245 -0.1004
13748SOL    HW145032   4.580   2.320   6.416 -1.8739 -1.4641 -0.9275
13748SOL    HW245033   4.615   2.190   6.347  1.0036  0.1315 -2.6774
13749SOL     OW45034   9.821   4.291   2.854 -0.1939 -0.2567 -0.5398
13749SOL    HW145035   9.732   4.293   2.888  0.6980 -1.6924  2.1532
13749SOL    HW245036   9.836   4.200   2.829  1.4455 -0.8302  2.0910
13750SOL     OW45037   7.914   2.751   7.863  0.0212 -0.5561  0.2611
13750SOL    HW145038   7.997   2.750   7.815  0.4100 -1.8786  0.9032
13750SOL    HW245039   7.931   2.807   7.939 -0.1516  0.3881 -0.3869
13751SOL     OW45040   7.976   7.521   7.285  0.3945 -0.2296 -0.6647
13751SOL    HW145041   7.953   7.479   7.368  2.9682  0.9800  0.7589
13751SOL    HW245042   8.034   7.458   7.242  2.2017  0.7089  0.3058
13752SOL     OW45043   2.511   9.467   1.858 -0.3314 -0.5597  0.4442
13752SOL    HW145044   2.505   9.398   1.792 -1.0730  0.1719 -0.2749
13752SOL    HW245045   2.528   9.421   1.940 -1.7559 -1.6806  0.1402
13753SOL     OW45046   4.521   3.539   2.598 -0.1536  0.7741  0.1934
13753SOL    HW145047   4.590   3.604   2.608  1.4653 -0.3620 -2.5731
13753SOL    HW245048   4.486   3.527   2.687  0.8589  3.8179  1.1367
13754SOL     OW45049   7.413   1.720   3.668 -0.1197  0.2348 -0.5076
13754SOL    HW145050   7.492   1.673   3.695 -0.6601 -0.8976 -0.8219
13754SOL    HW245051   7.378   1.668   3.596 -3.2113 -1.5425  2.0116
13755SOL     OW45052   9.412   2.195   2.396 -0.0456 -0.1552 -0.4491
13755SOL    HW145053   9.432   2.244   2.476 -0.5692  0.1389 -0.4937
13755SOL    HW245054   9.486   2.213   2.338 -1.4837  2.9579 -1.5513
13756SOL     OW45055   1.049   2.723   4.556  0.7432  0.2643 -0.3747
13756SOL    HW145056   1.078   2.648   4.608  1.1229  0.3729 -0.4276
13756SOL    HW245057   0.962   2.698   4.524  0.6113  0.0952  0.1027
13757SOL     OW45058   7.933   5.490   3.480 -0.4979 -0.1106  0.2007
13757SOL    HW145059   7.929   5.428   3.553 -0.5732  0.3660  0.6029
13757SOL    HW245060   8.020   5.528   3.487 -0.1165 -0.8123 -0.5830
13758SOL     OW45061   1.047   2.573   3.767  0.0674 -0.1862 -0.0157
13758SOL    HW145062   0.953   2.561   3.749 -0.2199 -0.1553  1.3271
13758SOL    HW245063   1.050   2.647   3.828  1.0450  0.2997 -0.6210
13759SOL     OW45064   7.470   7.388   2.098  0.4178 -0.2817  0.0713
13759SOL    HW145065   7.458   7.309   2.150  0.3153 -0.5945 -0.4210
13759SOL    HW245066   7.424   7.370   2.016 -2.5405  1.5231  1.1488
13760SOL     OW45067   5.219   2.456   3.274 -0.0296 -0.0936  0.1202
13760SOL    HW145068   5.194   2.411   3.194  0.2725 -1.0591  0.5551
13760SOL    HW245069   5.269   2.391   3.324  1.0699  0.9505  0.4300
13761SOL     OW45070   6.160   7.223   9.034  0.1457  0.3515 -0.1472
13761SOL    HW145071   6.119   7.141   9.063 -1.2641  1.3797  0.9086
13761SOL    HW245072   6.102   7.256   8.965  1.2658 -0.0177 -1.3089
13762SOL     OW45073   9.166   0.462   2.345 -0.0157  0.0134 -0.7117
13762SOL    HW145074   9.096   0.412   2.388  0.0190  1.0488  0.6298
13762SOL    HW245075   9.243   0.447   2.401  1.0603 -1.6153 -2.5028
13763SOL     OW45076   0.112   1.565   5.981 -0.1810  0.3182  0.2232
13763SOL    HW145077   0.198   1.537   5.949 -1.5474 -1.6409 -2.0332
13763SOL    HW245078   0.087   1.637   5.924 -1.5550 -1.5621 -1.6935
13764SOL     OW45079   5.798   3.521   8.405  0.3199  0.2994 -0.3779
13764SOL    HW145080   5.865   3.589   8.417  1.4027 -0.8650  0.5337
13764SOL    HW245081   5.756   3.543   8.322  3.3087 -0.0537 -2.1712
13765SOL     OW45082  10.239   8.084   1.767 -0.2774 -0.2050 -0.0896
13765SOL    HW145083  10.194   8.169   1.760 -0.6696 -0.4909 -1.4809
13765SOL    HW245084  10.192   8.027   1.705  1.2368 -0.8581 -0.6971
13766SOL     OW45085   2.536   6.769   9.196  0.5117  0.0543 -0.1910
13766SOL    HW145086   2.477   6.794   9.125  1.1609  0.4787 -0.5866
13766SOL    HW245087   2.573   6.685   9.170 -0.3424 -0.4957  0.3263
13767SOL     OW45088   1.260   8.595   2.939  0.4161  0.0716 -0.1673
13767SOL    HW145089   1.168   8.620   2.947  0.0581 -0.6763 -1.5990
13767SOL    HW245090   1.258   8.501   2.921  1.4500  0.1069 -0.5415
13768SOL     OW45091   2.097   4.185   4.800  0.1286 -0.1539 -0.0208
13768SOL    HW145092   2.074   4.194   4.892 -1.2312 -2.3958 -0.0458
13768SOL    HW245093   2.034   4.120   4.766 -0.4361  1.7194 -2.9204
13769SOL     OW45094   3.202   7.635   9.580  0.0452  0.1762  0.5517
13769SOL    HW145095   3.153   7.574   9.525 -0.9973 -2.1208  3.7145
13769SOL    HW245096   3.138   7.702   9.604 -0.1477 -0.0744  0.7411
13770SOL     OW45097   6.958   3.197   4.226 -0.7528 -0.1464 -0.6023
13770SOL    HW145098   6.980   3.191   4.133 -0.3660  0.3309 -0.5454
13770SOL    HW245099   7.022   3.259   4.262 -0.3664 -0.9782  0.1623
13771SOL     OW45100   5.681   1.207   7.727 -0.4558  0.0566  0.7683
13771SOL    HW145101   5.757   1.222   7.784 -0.8128 -1.2233  1.6187
13771SOL    HW245102   5.649   1.121   7.753 -0.7569 -0.4693 -1.2602
13772SOL     OW45103   4.132   9.464   9.001  0.2815  0.2778 -0.1527
13772SOL    HW145104   4.077   9.477   8.924 -1.0011 -0.5962  0.5794
13772SOL    HW245105   4.132   9.549   9.045 -1.2746  0.0667  0.3159
13773SOL     OW45106   7.440   4.145   0.692 -0.4818  0.5052  0.2355
13773SOL    HW145107   7.398   4.070   0.734 -0.5922 -0.1707 -1.0248
13773SOL    HW245108   7.473   4.110   0.609 -0.9462  1.9652 -0.5978
13774SOL     OW45109   7.410   1.776   8.088  0.5303  0.7356  0.1271
13774SOL    HW145110   7.433   1.839   8.157 -0.1276  0.8472  0.2514
13774SOL    HW245111   7.462   1.698   8.108  1.9685  1.5022 -0.4899
13775SOL     OW45112   1.110   3.777   8.705 -0.6379  0.3851 -0.2629
13775SOL    HW145113   1.102   3.747   8.795 -3.8002  0.3477 -0.4496
13775SOL    HW245114   1.038   3.838   8.693 -0.2091  0.5293 -2.7332
13776SOL     OW45115   3.837   2.391   6.232 -0.1010 -0.1884  0.1809
13776SOL    HW145116   3.795   2.396   6.318 -1.0541 -1.2040 -0.2098
13776SOL    HW245117   3.843   2.298   6.213  0.0809  0.0207 -0.8652
13777SOL     OW45118   7.291   3.954   3.923 -0.0167  0.1912 -0.0901
13777SOL    HW145119   7.225   3.895   3.959 -0.2397 -0.6900 -1.8418
13777SOL    HW245120   7.332   3.994   4.000 -1.7743 -0.1210  1.0666
13778SOL     OW45121   2.739   0.835  10.143 -0.3418 -0.4838 -0.1817
13778SOL    HW145122   2.650   0.839  10.179 -0.0834 -2.3326  0.7718
13778SOL    HW245123   2.762   0.742  10.146  2.3878  0.1247  1.4972
13779SOL     OW45124   4.750   3.047   3.586 -0.2452 -0.4171  0.0620
13779SOL    HW145125   4.716   3.036   3.675 -0.2457  2.8253  0.6094
13779SOL    HW245126   4.838   3.082   3.598 -1.0181  2.2130 -1.0275
13780SOL     OW45127   4.060   6.965   2.987  0.6033 -0.1916 -0.4044
13780SOL    HW145128   3.975   6.979   3.029  0.9689  2.3826 -0.3292
13780SOL    HW245129   4.123   7.004   3.048  1.4778  0.7950 -1.8798
13781SOL     OW45130   7.571   9.900   7.209 -0.3994 -0.5285 -0.0329
13781SOL    HW145131   7.564   9.911   7.114  1.3938  0.7937 -0.0722
13781SOL    HW245132   7.640   9.835   7.221  0.4539  0.4004  0.3275
13782SOL     OW45133   7.191   6.713   0.819  0.0309 -0.9242 -0.1499
13782SOL    HW145134   7.283   6.693   0.800 -0.2063 -0.3100 -2.1984
13782SOL    HW245135   7.144   6.632   0.800  0.1823 -1.4614  1.5897
13783SOL     OW45136   1.596   4.336   6.911  0.1424 -0.1985  0.3972
13783SOL    HW145137   1.571   4.369   6.997 -0.5779  0.5637 -0.0860
13783SOL    HW245138   1.574   4.243   6.914 -1.3450  0.1300  0.5305
13784SOL     OW45139   9.641   5.824   2.532 -0.4253  0.5282  0.7256
13784SOL    HW145140   9.590   5.897   2.567  0.2615  0.6209  1.5594
13784SOL    HW245141   9.732   5.848   2.547 -0.1708 -0.2484  0.4856
13785SOL     OW45142   8.276   7.164   1.844 -0.0786 -0.3852 -0.2462
13785SOL    HW145143   8.291   7.145   1.937 -0.7987  0.9353  0.1617
13785SOL    HW245144   8.213   7.236   1.844  0.2503 -0.0645 -1.7601
13786SOL     OW45145   0.204   1.209   4.323 -0.6366 -0.2039 -0.1718
13786SOL    HW145146   0.149   1.197   4.401 -1.0350  1.8423 -0.0608
13786SOL    HW245147   0.254   1.128   4.316 -0.0718 -0.2144  2.6523
13787SOL     OW45148   5.719   1.113   4.438 -0.1543 -0.3220  0.4203
13787SOL    HW145149   5.758   1.196   4.409 -0.6694 -0.2676 -0.1443
13787SOL    HW245150   5.791   1.065   4.478  0.5800 -0.3382 -0.8537
13788SOL     OW45151   0.979   0.868   1.639  0.1374  0.5060 -0.1098
13788SOL    HW145152   0.917   0.871   1.711 -1.7799  0.0256 -1.6720
13788SOL    HW245153   1.032   0.790   1.657 -0.9768 -0.1781  0.2717
13789SOL     OW45154   1.253   4.412   3.135  0.0996  0.5174 -0.3612
13789SOL    HW145155   1.202   4.336   3.162 -2.9473  2.5970  0.3113
13789SOL    HW245156   1.327   4.414   3.196 -0.5867 -1.0731  0.5963
13790SOL     OW45157   6.931   3.753   6.551 -0.2421 -0.1810 -0.1370
13790SOL    HW145158   6.954   3.785   6.464 -0.0369  0.8772  0.2815
13790SOL    HW245159   6.871   3.819   6.585  0.8432  0.2247  1.0857
13791SOL     OW45160   8.157   4.387   6.787  0.2312  0.2445  0.3791
13791SOL    HW145161   8.152   4.379   6.882  1.1384  2.8658  0.7210
13791SOL    HW245162   8.236   4.338   6.763 -0.4578 -1.1511  0.8054
13792SOL     OW45163   5.387   4.980   0.884 -0.2840  0.4713  0.4762
13792SOL    HW145164   5.480   4.958   0.872 -0.6585 -1.7012  1.2400
13792SOL    HW245165   5.387   5.042   0.957  0.5428  0.3122  0.6270
13793SOL     OW45166   1.122  10.275   8.694 -0.5835  0.4426 -0.6838
13793SOL    HW145167   1.040  10.271   8.645 -0.8853  0.1606 -0.1586
13793SOL    HW245168   1.174  10.341   8.648 -1.2920  0.9762 -0.7295
13794SOL     OW45169   8.398   2.474   5.730 -0.5186  1.0151 -0.2056
13794SOL    HW145170   8.482   2.505   5.766  0.3193 -0.2871 -0.9670
13794SOL    HW245171   8.381   2.532   5.656 -0.3976  1.4222  0.0814
13795SOL     OW45172   6.186   8.830  10.098  0.3115  0.0040  0.1145
13795SOL    HW145173   6.106   8.813  10.048  1.1403 -0.7959 -0.9903
13795SOL    HW245174   6.235   8.892  10.044  1.4246 -1.2216 -0.3478
13796SOL     OW45175   8.613  10.124   4.137 -0.1213  0.2471 -0.2981
13796SOL    HW145176   8.687  10.129   4.197 -0.2787  0.0139 -0.0821
13796SOL    HW245177   8.536  10.116   4.195 -0.2130 -0.7588 -0.5387
13797SOL     OW45178   9.460   5.294  10.105  0.1476  0.3129  0.2043
13797SOL    HW145179   9.435   5.312  10.196  1.0284 -0.6301  0.6534
13797SOL    HW245180   9.414   5.214  10.083  0.7459 -0.0239  0.1691
13798SOL     OW45181   9.857   2.451   2.396  0.2434  0.6142 -0.8018
13798SOL    HW145182   9.880   2.479   2.484  0.6756  0.0677 -0.7311
13798SOL    HW245183   9.924   2.492   2.340 -0.6259  1.7952 -1.0080
13799SOL     OW45184   3.013   1.907   9.234  0.4296  0.1616  0.0135
13799SOL    HW145185   2.938   1.945   9.188  0.9078 -0.7218 -1.5745
13799SOL    HW245186   3.081   1.973   9.228  0.8428 -0.3689 -1.5880
13800SOL     OW45187   4.769   0.977   8.696  0.3763 -0.2416 -0.0109
13800SOL    HW145188   4.688   0.963   8.648 -0.0978 -2.6513  1.3480
13800SOL    HW245189   4.837   0.935   8.643  0.4557  0.2054 -0.2703
13801SOL     OW45190   1.330   4.468   9.226 -0.4509 -1.1702  0.0187
13801SOL    HW145191   1.355   4.379   9.250 -0.0725 -1.5081 -1.5376
13801SOL    HW245192   1.241   4.459   9.190  0.3162 -1.2742 -1.9755
13802SOL     OW45193   8.694   1.401   0.369 -0.2074 -0.2452  0.0858
13802SOL    HW145194   8.706   1.318   0.323  0.1248 -0.5698  0.7390
13802SOL    HW245195   8.635   1.380   0.441  0.5145 -0.1088  0.7336
13803SOL     OW45196   5.174   7.540   0.812  0.5118  0.4290 -0.6801
13803SOL    HW145197   5.150   7.560   0.902  1.7012 -1.1155  0.0216
13803SOL    HW245198   5.111   7.474   0.784  0.3020  0.7208 -0.9064
13804SOL     OW45199   6.148   3.427   5.739  0.2674 -0.2378 -0.5336
13804SOL    HW145200   6.142   3.336   5.769 -1.2340 -0.0111 -0.0972
13804SOL    HW245201   6.214   3.424   5.670 -0.3466 -1.8313 -1.1098
13805SOL     OW45202  10.237   2.627   5.758  0.6153 -0.2761 -0.8518
13805SOL    HW145203  10.168   2.570   5.722 -0.1206  0.0791 -0.0506
13805SOL    HW245204  10.309   2.567   5.776 -1.2200 -1.6703  2.9371
13806SOL     OW45205   6.110   4.510   1.451 -0.0190 -0.1040 -0.0281
13806SOL    HW145206   6.045   4.521   1.520  0.5418 -0.6930  0.5981
13806SOL    HW245207   6.132   4.600   1.424  0.7332  0.1852  1.4676
13807SOL     OW45208   6.824   2.958   8.972  0.3683  0.1006 -0.3130
13807SOL    HW145209   6.798   2.874   9.011  0.7572  1.0010  2.1043
13807SOL    HW245210   6.920   2.956   8.974  0.3839  0.4069 -0.7393
13808SOL     OW45211   6.216   5.200   0.175  0.0592 -0.6246 -0.5377
13808SOL    HW145212   6.253   5.281   0.208 -0.1992 -0.3354 -0.9575
13808SOL    HW245213   6.242   5.134   0.239 -2.2478  0.2632  1.4628
13809SOL     OW45214   2.556   0.926   9.073 -0.1211 -0.0836  0.2723
13809SOL    HW145215   2.628   0.945   9.133 -0.3118 -0.8318  0.7517
13809SOL    HW245216   2.598   0.917   8.988  0.1985  0.6380  0.3420
13810SOL     OW45217   2.423   4.794   7.947  0.2874  0.1316  0.5227
13810SOL    HW145218   2.468   4.872   7.916 -0.1942  0.4848  0.6941
13810SOL    HW245219   2.493   4.737   7.980  0.5333  1.0918  1.7309
13811SOL     OW45220   5.708   1.565   4.831 -0.1784  0.5011  0.3079
13811SOL    HW145221   5.685   1.641   4.777  1.3113  1.5665  1.0669
13811SOL    HW245222   5.658   1.577   4.912 -1.0540 -0.1227 -0.1411
13812SOL     OW45223   9.644  10.234   0.563  0.0322  0.0138  0.1511
13812SOL    HW145224   9.586  10.158   0.570 -1.2346  0.8967 -0.4149
13812SOL    HW245225   9.612  10.282   0.486  0.7681  1.1470  0.5238
13813SOL     OW45226   5.616   0.572   7.556  0.0078  0.1931  0.6305
13813SOL    HW145227   5.602   0.641   7.621 -0.5813  0.1598  0.5478
13813SOL    HW245228   5.551   0.590   7.488 -0.4179 -0.6715  0.7964
13814SOL     OW45229   0.258   4.174   7.785 -0.4539 -0.3326 -0.2056
13814SOL    HW145230   0.349   4.198   7.767 -0.2468 -0.8123  0.1696
13814SOL    HW245231   0.258   4.078   7.783 -1.1630 -0.3269 -1.1876
13815SOL     OW45232   6.933   8.714   3.565 -0.1745 -0.0209 -0.0321
13815SOL    HW145233   6.969   8.628   3.588 -0.1664  0.0553  0.2563
13815SOL    HW245234   6.862   8.695   3.504 -0.6253 -0.2908  0.5611
13816SOL     OW45235   6.327   3.367   5.520  0.3855  0.0235  0.0623
13816SOL    HW145236   6.306   3.356   5.427  0.2529  0.7751 -0.0044
13816SOL    HW245237   6.370   3.285   5.544 -1.0496 -0.8595 -0.2291
13817SOL     OW45238   8.230   5.732   6.501  0.1912 -1.3020 -0.5525
13817SOL    HW145239   8.254   5.709   6.591  0.8006 -0.2264 -0.4149
13817SOL    HW245240   8.171   5.808   6.511 -0.1533 -1.4996 -1.0456
13818SOL     OW45241   0.377   5.129   2.881 -0.4923  0.0078  1.0180
13818SOL    HW145242   0.452   5.077   2.852  0.1490  0.8654  1.0899
13818SOL    HW245243   0.395   5.149   2.973 -0.4980  0.7279  0.8724
13819SOL     OW45244   8.802   6.254   5.137  0.2440 -0.5905  0.2949
13819SOL    HW145245   8.849   6.321   5.186 -0.1043 -0.0095 -0.1502
13819SOL    HW245246   8.851   6.246   5.055 -0.1492 -0.3374  0.0350
13820SOL     OW45247   2.251   5.223   3.083  0.5113  0.2057  0.3476
13820SOL    HW145248   2.239   5.316   3.067  0.5142  0.2950  0.8627
13820SOL    HW245249   2.341   5.215   3.113  0.8466 -0.0964 -0.6749
13821SOL     OW45250   7.728   9.012   7.439 -0.3716  0.7443 -0.3666
13821SOL    HW145251   7.815   8.975   7.427 -0.8754 -0.0813 -1.8250
13821SOL    HW245252   7.711   9.005   7.533  1.1889  1.0933 -0.0330
13822SOL     OW45253   9.998   0.603   8.674  0.3269  0.1591  0.3212
13822SOL    HW145254   9.990   0.522   8.625  1.3359  1.0325 -1.3690
13822SOL    HW245255   9.911   0.616   8.713 -0.8264 -0.1444 -1.9554
13823SOL     OW45256   7.543   9.508   7.294 -0.0044  0.2721  0.6299
13823SOL    HW145257   7.610   9.576   7.293 -0.5036  0.7877  1.3066
13823SOL    HW245258   7.495   9.522   7.212  0.3849  0.2390  0.3961
13824SOL     OW45259   2.637   6.491   3.587 -0.0051  0.0703  0.8726
13824SOL    HW145260   2.557   6.538   3.611 -1.9364 -2.8350  0.5711
13824SOL    HW245261   2.659   6.440   3.664  1.0451  0.1261  0.6226
13825SOL     OW45262   6.291   9.789  10.184 -0.4024  0.7780  0.4189
13825SOL    HW145263   6.307   9.732  10.259  1.1880  1.4001  0.5884
13825SOL    HW245264   6.361   9.766  10.122  1.1136  3.3604  1.0075
13826SOL     OW45265   0.272   1.629   9.706  0.5613 -0.1001 -0.3689
13826SOL    HW145266   0.188   1.587   9.719  0.3267  0.8924  1.6246
13826SOL    HW245267   0.326   1.563   9.662 -0.5622 -1.5404  0.3656
13827SOL     OW45268   3.062   1.117   6.110 -0.3052  0.0257 -0.2705
13827SOL    HW145269   3.035   1.052   6.046  0.0463  1.2569 -1.7189
13827SOL    HW245270   3.012   1.196   6.087 -0.1695  0.5087  0.9791
13828SOL     OW45271   9.680   9.806   9.957 -0.0753  0.0738 -0.5873
13828SOL    HW145272   9.733   9.739   9.913  0.6216 -0.0908  0.4680
13828SOL    HW245273   9.619   9.756  10.011 -0.7573  0.2795 -1.1513
13829SOL     OW45274  10.071   9.350   2.089 -0.1903 -0.4163 -0.2143
13829SOL    HW145275  10.148   9.391   2.050 -0.9737  0.6969 -0.6575
13829SOL    HW245276  10.077   9.370   2.182  0.6227 -1.3025 -0.0680
13830SOL     OW45277   7.378  10.165   5.087 -1.1342 -0.0052  0.0920
13830SOL    HW145278   7.310  10.181   5.153 -0.1823  0.9104  0.8978
13830SOL    HW245279   7.458  10.157   5.138 -0.6561 -1.2731 -0.8326
13831SOL     OW45280   3.563   7.609   1.569  0.3519 -0.4740  0.0374
13831SOL    HW145281   3.559   7.520   1.604 -0.4086  0.8722  3.7731
13831SOL    HW245282   3.628   7.654   1.623 -0.1904  1.5793 -0.9143
13832SOL     OW45283   5.586   4.295   0.575 -0.1652  0.5407 -0.2317
13832SOL    HW145284   5.672   4.288   0.616  0.0439 -1.8891 -0.9015
13832SOL    HW245285   5.525   4.266   0.643 -0.0396 -1.2811 -0.8391
13833SOL     OW45286   2.003   5.268   7.460 -0.0092 -0.0868 -0.0375
13833SOL    HW145287   2.036   5.307   7.541 -4.9172 -0.6241  2.6392
13833SOL    HW245288   1.966   5.184   7.487 -1.9879 -0.2442 -2.7676
13834SOL     OW45289   7.073   5.054   6.611 -0.1263  0.3359 -0.2599
13834SOL    HW145290   7.004   5.119   6.619 -0.9152 -0.5697  0.5202
13834SOL    HW245291   7.038   4.988   6.550 -1.4774 -1.9206  2.7233
13835SOL     OW45292   1.949   5.412   3.904  0.0339  0.0538 -0.4178
13835SOL    HW145293   1.883   5.459   3.955  0.0039  0.8327 -1.1518
13835SOL    HW245294   1.965   5.332   3.954 -1.4854 -0.1681 -0.2352
13836SOL     OW45295   3.090   2.611   4.352  0.3624  0.4732 -0.4177
13836SOL    HW145296   3.009   2.566   4.378 -0.3624  1.0237 -1.5941
13836SOL    HW245297   3.090   2.691   4.405 -0.1705  0.7365 -0.7990
13837SOL     OW45298   1.405   0.825   7.678 -0.0805 -0.1923  0.1819
13837SOL    HW145299   1.368   0.892   7.735 -1.4806 -0.4859 -0.3385
13837SOL    HW245300   1.329   0.782   7.639  0.7996 -1.6329 -0.0176
13838SOL     OW45301   4.626   3.138   2.626  0.0289 -0.3012 -0.4230
13838SOL    HW145302   4.652   3.065   2.682 -0.4673  0.0892  0.3363
13838SOL    HW245303   4.576   3.097   2.555 -1.5812 -0.5981  0.8041
13839SOL     OW45304   4.192   5.875   8.359 -0.0183 -0.0005 -0.6353
13839SOL    HW145305   4.256   5.822   8.406 -1.4867 -2.3356 -1.0873
13839SOL    HW245306   4.225   5.876   8.268  1.4535  2.3238 -0.1624
13840SOL     OW45307   2.793   2.402   1.078  0.0185 -0.0355  0.2928
13840SOL    HW145308   2.815   2.494   1.064  0.6143 -0.1179  0.6631
13840SOL    HW245309   2.699   2.397   1.058  0.7136 -0.1635 -3.6569
13841SOL     OW45310   6.673   7.471   2.208 -0.3736  0.3707 -0.4103
13841SOL    HW145311   6.686   7.422   2.289  0.8622  1.4647  0.0987
13841SOL    HW245312   6.761   7.481   2.172 -0.7751  0.9240 -1.2650
13842SOL     OW45313   1.349   4.594   8.100  0.1268 -0.3701 -0.6019
13842SOL    HW145314   1.383   4.541   8.029  1.6687  1.1179 -1.0384
13842SOL    HW245315   1.397   4.564   8.177 -0.4032 -0.9061 -0.4738
13843SOL     OW45316   0.060   5.147   9.391 -0.0766 -0.0808 -0.9993
13843SOL    HW145317   0.052   5.237   9.423 -0.5747  0.3779 -2.3386
13843SOL    HW245318   0.143   5.145   9.344  2.0723 -1.5121  2.5150
13844SOL     OW45319   8.060   0.730   7.570  0.3819  0.4510  0.0344
13844SOL    HW145320   8.128   0.680   7.614  0.0332  1.1576  1.4303
13844SOL    HW245321   8.082   0.822   7.588 -0.1908  0.7322 -0.6381
13845SOL     OW45322   3.411   7.852   6.372 -0.0772  0.2686  0.1966
13845SOL    HW145323   3.451   7.926   6.326  0.0553 -0.6473 -1.2298
13845SOL    HW245324   3.479   7.786   6.376 -1.0733 -0.9510 -1.4191
13846SOL     OW45325   7.210   6.521   1.754 -0.3570 -0.0100 -0.0620
13846SOL    HW145326   7.186   6.610   1.781 -1.6767 -0.4753  0.4029
13846SOL    HW245327   7.262   6.486   1.827  0.0551  0.3304 -0.1908
13847SOL     OW45328   1.175   6.417   1.955 -0.2072 -0.1679 -0.1119
13847SOL    HW145329   1.230   6.399   2.031 -0.0181  0.9598  0.0273
13847SOL    HW245330   1.104   6.352   1.960 -0.1773 -0.1225  0.9996
13848SOL     OW45331   3.039   8.010   5.461  0.0474 -0.3805  0.4988
13848SOL    HW145332   3.073   8.026   5.549 -1.0887  0.4420  0.8237
13848SOL    HW245333   3.115   8.012   5.404  0.6109  0.8838  1.2519
13849SOL     OW45334   3.707   8.451   3.653 -0.1552 -0.3645 -0.6979
13849SOL    HW145335   3.615   8.459   3.679  0.3030  0.5504  0.7930
13849SOL    HW245336   3.714   8.501   3.572 -1.0011 -0.5690 -0.9048
13850SOL     OW45337   4.325  10.204   4.096  0.6533 -1.0600  0.2119
13850SOL    HW145338   4.304  10.127   4.148  1.3335 -0.2750  1.7068
13850SOL    HW245339   4.314  10.278   4.156 -1.5450  0.2252 -1.5919
13851SOL     OW45340   8.035   3.368   9.307 -0.4146  0.0615 -0.1487
13851SOL    HW145341   7.965   3.366   9.373  0.5785 -0.4718  0.9304
13851SOL    HW245342   8.033   3.457   9.272 -0.5710  0.5606  1.0645
13852SOL     OW45343   9.694   7.240   9.747 -0.1808 -0.0536 -0.2365
13852SOL    HW145344   9.736   7.302   9.688  0.4613 -0.4849 -0.2467
13852SOL    HW245345   9.624   7.201   9.695 -0.6541  0.7203 -0.2011
13853SOL     OW45346   6.526   9.937   7.624 -0.1802  0.1267  0.4060
13853SOL    HW145347   6.529   9.912   7.531 -1.2515  3.4335 -0.6611
13853SOL    HW245348   6.617   9.948   7.649  0.0844  1.6665 -1.0806
13854SOL     OW45349   7.224   0.933   0.079 -0.0456 -0.0075 -0.0025
13854SOL    HW145350   7.272   0.860   0.041  0.1758  0.3366 -0.3875
13854SOL    HW245351   7.288   0.977   0.135  0.2946  0.8447 -1.0331
13855SOL     OW45352   9.307   2.598   7.427 -0.5219 -0.3073  0.0939
13855SOL    HW145353   9.271   2.674   7.380  0.4465 -0.9401 -1.7956
13855SOL    HW245354   9.319   2.532   7.358  1.5565 -1.0936  1.1439
13856SOL     OW45355   8.958   4.600  10.134 -0.4848 -0.7207  0.7183
13856SOL    HW145356   8.983   4.629  10.046  0.1137 -0.3417  1.0078
13856SOL    HW245357   8.863   4.586  10.128 -0.9221  1.8023  0.6838
13857SOL     OW45358   0.057   7.139   9.639  0.5613  0.2555  0.4574
13857SOL    HW145359   0.094   7.209   9.586  0.1038  0.0317 -0.1696
13857SOL    HW245360   0.086   7.159   9.728  1.0431  0.8313  0.1829
13858SOL     OW45361   8.339   9.948   7.123 -0.1570 -0.0841 -0.8035
13858SOL    HW145362   8.352   9.869   7.070  0.1824 -1.1821  0.8265
13858SOL    HW245363   8.408  10.008   7.094  1.8611 -1.7392  0.2757
13859SOL     OW45364   5.182   0.509   7.081  1.0200  0.2797 -0.0933
13859SOL    HW145365   5.228   0.498   6.997 -1.0031  1.5550 -1.4889
13859SOL    HW245366   5.214   0.593   7.115 -1.2026  2.0291 -1.8921
13860SOL     OW45367   9.982   1.070   1.454 -0.3397  0.0836  0.1969
13860SOL    HW145368  10.019   1.157   1.441 -0.2062  0.0207  0.1514
13860SOL    HW245369   9.921   1.059   1.381  0.5072 -0.3225 -0.4732
13861SOL     OW45370   2.306   8.254   9.467  0.2921  0.0131 -0.2821
13861SOL    HW145371   2.239   8.195   9.504 -1.3506  0.5480 -2.2160
13861SOL    HW245372   2.354   8.199   9.406  1.1317 -0.1614  0.5095
13862SOL     OW45373   3.622   0.437  10.252 -0.6016 -0.2591 -0.4161
13862SOL    HW145374   3.540   0.439  10.301  0.3840 -0.1108  1.2856
13862SOL    HW245375   3.688   0.408  10.315  0.7591  0.1438 -1.5902
13863SOL     OW45376  10.033   7.637   4.612  0.2780  0.2824 -0.3742
13863SOL    HW145377   9.955   7.634   4.557  0.3518  0.6777 -0.5069
13863SOL    HW245378  10.009   7.588   4.691  1.4830 -3.9435 -2.3459
13864SOL     OW45379   7.295   9.000   4.636  0.2942 -0.5602 -0.0654
13864SOL    HW145380   7.382   8.961   4.630  1.6140  2.1942 -0.4085
13864SOL    HW245381   7.270   9.017   4.545 -0.0704 -0.2279  0.0924
13865SOL     OW45382   9.596   2.962   0.498  0.2349 -0.1189 -0.1185
13865SOL    HW145383   9.507   2.994   0.512 -0.2407 -1.5510  0.3371
13865SOL    HW245384   9.593   2.920   0.412  0.5083 -0.0683 -0.1544
13866SOL     OW45385   1.399   8.058   4.912  0.4456 -0.4187 -0.2139
13866SOL    HW145386   1.390   7.971   4.951  0.7033 -0.4637 -0.2507
13866SOL    HW245387   1.472   8.097   4.959 -0.7276  0.4231  0.9699
13867SOL     OW45388   7.161   1.594   2.165 -0.2782  0.0030 -0.7916
13867SOL    HW145389   7.173   1.683   2.132  0.0533 -0.1591 -1.1156
13867SOL    HW245390   7.102   1.553   2.103 -0.1238 -0.1212 -0.8565
13868SOL     OW45391   8.975   7.062   2.392  0.5904  0.5698 -0.3327
13868SOL    HW145392   8.955   7.089   2.302 -2.5782 -0.4161 -0.0570
13868SOL    HW245393   9.016   7.139   2.431  1.2542  1.3182 -2.3629
13869SOL     OW45394   9.407   3.708   3.427 -0.4282  0.6478 -0.2299
13869SOL    HW145395   9.440   3.625   3.394  1.6689  0.7445  1.4280
13869SOL    HW245396   9.422   3.705   3.522 -3.5238  1.5413  0.4274
13870SOL     OW45397   0.335   9.339   7.845  0.1960 -0.4176 -0.3213
13870SOL    HW145398   0.254   9.336   7.795  0.7172  0.7065 -1.2758
13870SOL    HW245399   0.402   9.306   7.785  0.9862  1.8122 -0.7584
13871SOL     OW45400   0.677   7.997   6.482  0.5085 -0.2040 -0.0471
13871SOL    HW145401   0.689   7.948   6.401  1.7977  0.9274 -0.5900
13871SOL    HW245402   0.764   8.000   6.522 -0.2035 -1.1748  1.6687
13872SOL     OW45403   2.720   1.284   3.144  0.4431  0.3711  0.4054
13872SOL    HW145404   2.626   1.268   3.145  0.4949 -0.9301 -3.0454
13872SOL    HW245405   2.754   1.233   3.218 -1.3223 -1.0239  0.3069
13873SOL     OW45406  10.132   8.414   3.564  0.2128 -0.1794  0.3194
13873SOL    HW145407  10.156   8.506   3.550  0.4745 -0.4737 -1.4484
13873SOL    HW245408  10.144   8.400   3.657 -1.1139  1.9445  0.8833
13874SOL     OW45409   7.997   9.777   6.140  0.3240 -0.0401  0.1776
13874SOL    HW145410   8.036   9.863   6.129 -1.2192  0.8199  1.1860
13874SOL    HW245411   7.911   9.783   6.098 -0.2096 -0.7508  1.1224
13875SOL     OW45412   1.258   5.276   8.758 -0.7855  0.1691 -0.5758
13875SOL    HW145413   1.251   5.204   8.820 -1.2532 -0.0937 -0.9221
13875SOL    HW245414   1.251   5.234   8.672 -1.4160  0.6668 -0.7732
13876SOL     OW45415   4.924   6.537  10.254  0.0699 -0.6037  0.1083
13876SOL    HW145416   4.964   6.469  10.200  0.9631 -0.2084  0.2513
13876SOL    HW245417   4.986   6.551  10.325  0.4501  1.1400 -0.5237
13877SOL     OW45418   6.857   7.899   9.750 -0.6124  0.3649 -0.4639
13877SOL    HW145419   6.780   7.947   9.779 -1.1540 -0.5820 -0.2875
13877SOL    HW245420   6.906   7.881   9.831 -2.4849 -2.9101  0.1402
13878SOL     OW45421   3.223   4.209   8.231  0.5631  0.1965 -0.0038
13878SOL    HW145422   3.250   4.279   8.171 -0.2168  0.2901 -0.2638
13878SOL    HW245423   3.255   4.129   8.191  1.6536  0.4093  0.4038
13879SOL     OW45424   8.805   5.175   9.540  0.5269 -0.2459  0.2193
13879SOL    HW145425   8.836   5.255   9.497 -0.5006 -0.1586 -0.3879
13879SOL    HW245426   8.884   5.137   9.578  1.4979 -0.2704 -1.6621
13880SOL     OW45427   6.133   4.994   4.020 -0.1630 -0.3590 -0.4920
13880SOL    HW145428   6.073   5.017   3.948  0.3489 -2.4648 -1.6784
13880SOL    HW245429   6.217   4.981   3.977 -0.3872 -4.2481 -0.0590
13881SOL     OW45430   5.236   3.303   1.661 -0.2406 -0.5886 -0.0701
13881SOL    HW145431   5.211   3.338   1.576 -1.8119 -1.5048 -0.0194
13881SOL    HW245432   5.291   3.371   1.700 -1.3256  0.8044 -0.8945
13882SOL     OW45433   7.105   4.889   4.207  0.7929 -0.3736  0.3084
13882SOL    HW145434   7.013   4.869   4.225  0.8825  0.5751  2.0534
13882SOL    HW245435   7.131   4.825   4.141 -0.6733 -1.7410  0.9708
13883SOL     OW45436   1.712   5.934   0.290 -0.5140  0.4492  0.0065
13883SOL    HW145437   1.662   5.857   0.316  0.8896 -0.6014 -0.2645
13883SOL    HW245438   1.668   6.007   0.333 -0.7008 -0.7453  1.9621
13884SOL     OW45439   2.285   9.003   5.480  0.5052 -0.2250 -0.4169
13884SOL    HW145440   2.353   8.969   5.422  0.6788  1.2532 -1.1237
13884SOL    HW245441   2.311   8.973   5.567  1.3601 -0.7568 -0.8402
13885SOL     OW45442   1.282   5.735   9.057 -0.5000  0.4021  0.2268
13885SOL    HW145443   1.370   5.704   9.075 -0.6853 -0.9235 -0.9209
13885SOL    HW245444   1.271   5.723   8.962 -1.4100  1.8916  0.1147
13886SOL     OW45445   2.491   8.501   8.265 -0.6201 -0.1612 -0.3656
13886SOL    HW145446   2.562   8.488   8.328  0.7303  1.2008 -1.5167
13886SOL    HW245447   2.413   8.512   8.319  0.4199  0.5756  1.0711
13887SOL     OW45448   5.321   3.409   4.937 -0.5065  0.1399  0.0518
13887SOL    HW145449   5.235   3.430   4.902  0.6605  0.5219 -2.8630
13887SOL    HW245450   5.346   3.328   4.893  0.7963  0.2495  0.5260
13888SOL     OW45451   4.073   1.515  10.022 -0.0051  0.3437 -0.0828
13888SOL    HW145452   4.123   1.567  10.085 -1.3089  1.5425  0.0033
13888SOL    HW245453   3.989   1.500  10.064 -0.6131  0.4769 -1.2016
13889SOL     OW45454   6.411   3.333   3.128 -0.1850  0.1864 -0.1460
13889SOL    HW145455   6.356   3.407   3.103  0.8103  0.6347 -1.0696
13889SOL    HW245456   6.383   3.262   3.069  1.8802  1.1274 -2.4021
13890SOL     OW45457   5.868   9.360   6.355  0.1328 -0.3235 -0.1642
13890SOL    HW145458   5.867   9.304   6.277 -4.5879 -0.9920  0.0386
13890SOL    HW245459   5.876   9.448   6.320  1.1480 -0.7706 -1.1246
13891SOL     OW45460   8.320   1.978   3.574 -0.2194  1.1048  0.1570
13891SOL    HW145461   8.291   1.894   3.538  0.4115  1.6146 -1.6584
13891SOL    HW245462   8.294   1.975   3.666 -2.1823 -0.1678 -0.3825
13892SOL     OW45463   9.000   8.428   6.006 -0.8494  0.0147 -0.4262
13892SOL    HW145464   9.063   8.414   6.077 -1.1110  1.6096  0.1558
13892SOL    HW245465   8.974   8.520   6.014 -1.3069  0.0929 -2.2532
13893SOL     OW45466   2.673   9.468   3.957  0.2066 -0.1837 -0.0956
13893SOL    HW145467   2.735   9.539   3.944 -0.4163  0.7168  1.5558
13893SOL    HW245468   2.633   9.486   4.042 -2.4478 -0.6339 -1.1307
13894SOL     OW45469   5.291   0.124   1.370  0.0887  0.4762 -0.4444
13894SOL    HW145470   5.342   0.059   1.321 -3.6223 -1.5842 -2.0033
13894SOL    HW245471   5.294   0.094   1.460  0.5558 -0.3890 -0.7315
13895SOL     OW45472   8.982   8.029   8.916  0.0603  0.0360  0.1314
13895SOL    HW145473   8.993   8.111   8.869 -3.6840  2.3436  2.7200
13895SOL    HW245474   9.072   8.001   8.936  1.5654  1.9717 -3.1148
13896SOL     OW45475   5.336   3.491   6.048 -0.0851  0.0854  0.1191
13896SOL    HW145476   5.299   3.410   6.083  0.7127  0.4489  1.9244
13896SOL    HW245477   5.414   3.507   6.102 -0.3207  2.1320 -0.0700
13897SOL     OW45478   8.889   2.035   6.558  0.7989 -0.6847  0.1754
13897SOL    HW145479   8.977   2.060   6.585  0.0598  2.8166 -0.0980
13897SOL    HW245480   8.878   2.076   6.472 -1.1463 -0.8271  0.3083
13898SOL     OW45481   8.452   9.733   5.360  0.2298 -0.2605 -0.6380
13898SOL    HW145482   8.427   9.824   5.345 -1.0901 -0.0926  2.1162
13898SOL    HW245483   8.543   9.738   5.391 -0.8916  0.6072  2.9572
13899SOL     OW45484   2.886   5.955   1.750  0.0509  0.2724 -0.1660
13899SOL    HW145485   2.819   5.973   1.684 -0.8603  1.0611  0.9374
13899SOL    HW245486   2.955   6.019   1.732 -1.0044  1.7196  0.7268
13900SOL     OW45487   8.152   6.392   7.097  0.7976 -0.1476 -0.4005
13900SOL    HW145488   8.186   6.345   7.020 -0.8656  0.0378 -1.3084
13900SOL    HW245489   8.107   6.325   7.148 -0.7924  0.2233 -1.2332
13901SOL     OW45490   6.212   6.587   0.316  0.0713  0.3470  0.2719
13901SOL    HW145491   6.178   6.517   0.260  0.5209  0.0248  0.3976
13901SOL    HW245492   6.292   6.551   0.354  0.3775  0.9757  0.2427
13902SOL     OW45493   4.497   9.483   6.527  0.3364  0.1560 -0.6648
13902SOL    HW145494   4.582   9.447   6.502  1.0404 -0.2670  2.0220
13902SOL    HW245495   4.518   9.549   6.594 -1.3889  0.8352 -0.7450
13903SOL     OW45496   4.533   0.473   6.931 -0.0313 -0.3371 -0.9341
13903SOL    HW145497   4.608   0.462   6.873  1.4767 -0.4426  0.9358
13903SOL    HW245498   4.549   0.411   7.003 -0.9235  0.9727  0.4502
13904SOL     OW45499   2.119   6.698   8.875 -0.6464  0.3838 -0.0088
13904SOL    HW145500   2.210   6.670   8.866 -0.8709 -0.7999  1.2354
13904SOL    HW245501   2.069   6.617   8.885 -1.8924  1.0012 -0.9355
13905SOL     OW45502   9.092   2.334   7.940  0.3484  0.2337  0.0311
13905SOL    HW145503   9.178   2.301   7.966 -0.0227 -1.0602 -0.3240
13905SOL    HW245504   9.094   2.332   7.844 -0.9267 -2.1930 -0.0084
13906SOL     OW45505   7.654   9.575   4.329  0.5679 -0.2975 -0.4312
13906SOL    HW145506   7.709   9.548   4.402  0.9396 -0.1063 -0.6415
13906SOL    HW245507   7.618   9.492   4.295  1.0996 -0.4699 -0.5904
13907SOL     OW45508   6.704   8.327   9.918 -0.3276 -0.1140 -0.0758
13907SOL    HW145509   6.639   8.346   9.850  1.1069  0.6646 -1.2880
13907SOL    HW245510   6.716   8.232   9.913  0.6350  0.0524 -1.8026
13908SOL     OW45511   8.645   4.363   3.404  0.1995  0.1116  0.4012
13908SOL    HW145512   8.740   4.348   3.406  0.0067 -1.4175 -0.0717
13908SOL    HW245513   8.631   4.440   3.459  1.5750 -0.5039  1.6856
13909SOL     OW45514   4.659   0.473   8.897 -0.1835 -0.1546  0.2867
13909SOL    HW145515   4.652   0.562   8.864  1.0492 -0.1332  0.0607
13909SOL    HW245516   4.685   0.483   8.989 -1.9212 -0.2589  0.8375
13910SOL     OW45517   5.510   5.711   8.788  0.4385 -0.6585 -0.1239
13910SOL    HW145518   5.538   5.754   8.868  2.5525 -2.6394  0.3180
13910SOL    HW245519   5.519   5.778   8.720  2.5074 -0.0244  0.6982
13911SOL     OW45520   2.571   1.440   6.285  0.1271 -0.5054  0.5576
13911SOL    HW145521   2.493   1.399   6.250 -0.0501  0.6012 -0.4029
13911SOL    HW245522   2.607   1.491   6.212  1.9250 -1.2361  0.8817
13912SOL     OW45523   3.542   4.350   8.900 -0.1030 -0.0515 -0.0245
13912SOL    HW145524   3.598   4.408   8.951  0.5113  0.0705 -0.8235
13912SOL    HW245525   3.602   4.284   8.865 -0.0403  1.2527 -2.6248
13913SOL     OW45526   3.697   4.418   7.559  0.1061 -0.1570  0.4527
13913SOL    HW145527   3.779   4.377   7.584  0.1371 -0.0006  0.6080
13913SOL    HW245528   3.635   4.346   7.550  0.0097 -0.1842  1.3059
13914SOL     OW45529   9.152   2.544   5.841  0.6587 -0.2603  0.0126
13914SOL    HW145530   9.174   2.582   5.756  1.5020 -0.4890  0.1204
13914SOL    HW245531   9.227   2.563   5.896  1.1144 -2.0493  0.0775
13915SOL     OW45532   9.876   1.499   1.987 -0.2244  0.0219 -0.0715
13915SOL    HW145533   9.807   1.446   2.027  0.6232 -0.9173  0.1791
13915SOL    HW245534   9.855   1.499   1.893 -0.1648 -0.8510 -0.0853
13916SOL     OW45535   2.595   8.908   8.474  0.0116  0.0645 -0.4468
13916SOL    HW145536   2.596   8.815   8.497 -1.4298  0.1679  0.1228
13916SOL    HW245537   2.684   8.926   8.444  0.0316 -1.7770 -1.6987
13917SOL     OW45538   6.812   9.034   3.079 -0.2338 -0.4836 -0.5785
13917SOL    HW145539   6.848   9.072   3.159  2.1414 -3.0218 -0.2879
13917SOL    HW245540   6.717   9.034   3.092  0.0597 -0.2870  1.9755
13918SOL     OW45541   5.324   7.380   9.394 -0.1120 -0.0409  0.2945
13918SOL    HW145542   5.353   7.328   9.469  0.8023  1.6134  1.1458
13918SOL    HW245543   5.241   7.418   9.423 -1.1069 -1.4389 -0.5639
13919SOL     OW45544   2.229   9.403   9.495  0.4913 -0.6461  0.2838
13919SOL    HW145545   2.247   9.353   9.574  0.9935  1.9372  1.9405
13919SOL    HW245546   2.313   9.410   9.451  1.2192  1.3932  1.8067
13920SOL     OW45547   2.740   2.725   6.561 -0.0862 -0.1878 -0.2651
13920SOL    HW145548   2.690   2.798   6.598  1.3873  0.4614  0.5602
13920SOL    HW245549   2.717   2.650   6.616  1.5076  0.6028  1.6186
13921SOL     OW45550   0.968   4.881   0.116 -0.3751 -0.1639 -0.3078
13921SOL    HW145551   1.056   4.843   0.112 -1.0854 -1.9628  0.0664
13921SOL    HW245552   0.983   4.974   0.132  1.4871 -0.9204  3.6178
13922SOL     OW45553   4.626   4.717   8.914  0.3281  0.0384  0.4760
13922SOL    HW145554   4.631   4.811   8.894  0.9748  0.7850  3.5528
13922SOL    HW245555   4.716   4.686   8.901  0.1240 -0.1840 -0.4948
13923SOL     OW45556   5.637   8.076   1.475  0.1157  0.1363 -0.1568
13923SOL    HW145557   5.546   8.065   1.448  0.7507 -0.0932 -2.3394
13923SOL    HW245558   5.678   7.992   1.455  0.7670  0.1084  1.1462
13924SOL     OW45559   6.411   9.788   6.751 -0.5394 -0.1270 -0.0870
13924SOL    HW145560   6.504   9.765   6.749 -1.0085 -2.1646 -0.2422
13924SOL    HW245561   6.400   9.837   6.833  0.5086 -0.5906  0.3401
13925SOL     OW45562   4.708   0.193   1.794  0.4606 -0.3980  0.0555
13925SOL    HW145563   4.669   0.194   1.881 -1.2855  0.6292 -0.6838
13925SOL    HW245564   4.663   0.122   1.747  1.6815 -1.2233  0.0863
13926SOL     OW45565   9.673   4.403   5.473 -0.2662 -0.2954 -0.4329
13926SOL    HW145566   9.753   4.444   5.440 -0.0709  0.1670  0.5540
13926SOL    HW245567   9.607   4.472   5.467 -0.0623  0.0276  0.7453
13927SOL     OW45568   2.897   7.011   0.718 -0.0709  0.1478  0.3416
13927SOL    HW145569   2.930   6.925   0.692 -1.0966 -0.2741  0.3993
13927SOL    HW245570   2.917   7.017   0.812 -0.5350 -0.2944  0.4764
13928SOL     OW45571   0.532   4.931   6.973 -0.4357 -0.1548  0.3558
13928SOL    HW145572   0.617   4.974   6.963 -0.1004 -0.7102  0.8223
13928SOL    HW245573   0.535   4.859   6.910 -0.8975  0.3243 -0.2339
13929SOL     OW45574   7.685   0.935   8.805 -0.0456 -0.1885 -0.1946
13929SOL    HW145575   7.768   0.968   8.838 -0.3339 -0.8597  1.2979
13929SOL    HW245576   7.638   1.013   8.774  0.6506  0.3488  0.0868
13930SOL     OW45577   5.841  10.060   0.490  0.1762  0.0197 -0.7072
13930SOL    HW145578   5.839   9.971   0.523 -2.1426  0.2993  0.0801
13930SOL    HW245579   5.931  10.091   0.508  0.9826 -2.0764 -0.9208
13931SOL     OW45580   7.115  10.289   2.851  0.4248 -0.0702  0.2831
13931SOL    HW145581   7.116  10.321   2.941 -0.9070 -0.9248  0.6345
13931SOL    HW245582   7.120  10.368   2.797 -2.7041  0.8158  1.1207
13932SOL     OW45583   8.914   2.809   8.469  0.3049 -0.0161 -0.0080
13932SOL    HW145584   8.960   2.856   8.399  0.1359 -0.3744 -0.3661
13932SOL    HW245585   8.883   2.878   8.528 -1.3292  0.4899 -1.3486
13933SOL     OW45586   1.601   2.079   4.602  0.0735  0.1152  0.0020
13933SOL    HW145587   1.665   2.122   4.657  0.7928 -1.9362  0.8671
13933SOL    HW245588   1.554   2.150   4.558  2.0284  1.6901  0.3633
13934SOL     OW45589   9.419   4.963   0.100 -0.2493  0.3405 -0.1387
13934SOL    HW145590   9.362   4.905   0.050 -0.7335  0.2852  0.4776
13934SOL    HW245591   9.377   5.049   0.096 -0.2999  0.3324  0.1892
13935SOL     OW45592   3.241   9.391   0.944  0.0474  0.3671  0.0012
13935SOL    HW145593   3.186   9.407   1.020  1.4570 -1.0498  1.4069
13935SOL    HW245594   3.317   9.449   0.957  0.8373 -0.7064  0.3248
13936SOL     OW45595   4.961   3.493   1.170  0.2472 -0.1058 -0.3602
13936SOL    HW145596   4.887   3.434   1.156 -0.3711  0.9295 -1.6894
13936SOL    HW245597   4.932   3.550   1.241  0.3364 -0.5722  0.0578
13937SOL     OW45598   4.746   0.605   2.242 -0.2825 -0.0590  0.1447
13937SOL    HW145599   4.751   0.524   2.191  1.4504 -0.5702  1.0529
13937SOL    HW245600   4.825   0.604   2.296  0.1473  2.5884 -0.3234
13938SOL     OW45601   4.188   4.405   6.393 -0.1786  0.1644 -0.2105
13938SOL    HW145602   4.140   4.366   6.466  0.3919  2.2006  1.3319
13938SOL    HW245603   4.268   4.353   6.386 -0.0070  0.2583  0.9598
13939SOL     OW45604   4.169   6.703   1.250 -0.5192  0.2554  0.2902
13939SOL    HW145605   4.244   6.750   1.212 -0.7613 -0.6153 -1.3490
13939SOL    HW245606   4.110   6.689   1.176 -0.2275 -3.0806  0.5491
13940SOL     OW45607   7.441   2.827  10.120 -0.1852  0.0330 -0.3290
13940SOL    HW145608   7.437   2.856  10.029 -2.2005  0.8662 -0.0335
13940SOL    HW245609   7.355   2.787  10.136  0.3834 -0.7264  1.0209
13941SOL     OW45610   2.339  10.250   7.985 -0.7177 -0.0505  0.3553
13941SOL    HW145611   2.249  10.278   7.968 -0.7818  0.1023  0.9341
13941SOL    HW245612   2.342  10.235   8.080  0.0054  0.4517  0.4184
13942SOL     OW45613   0.870   6.317  10.051 -0.2279  0.2317  0.6642
13942SOL    HW145614   0.818   6.237  10.037 -0.9812  0.7797  0.2678
13942SOL    HW245615   0.823   6.385  10.003  1.2644  0.6016 -0.3246
13943SOL     OW45616   4.151   4.140   9.593 -0.2296  0.2548 -0.4904
13943SOL    HW145617   4.161   4.217   9.649  0.4407 -0.7405  0.8060
13943SOL    HW245618   4.238   4.126   9.557 -0.3984  0.2144 -0.8854
13944SOL     OW45619   7.752   2.954   5.442  0.1914  0.5761 -0.1951
13944SOL    HW145620   7.699   3.001   5.506  0.0368 -0.2138  0.2782
13944SOL    HW245621   7.797   3.022   5.392 -1.5473  1.2723 -0.8704
13945SOL     OW45622   0.438   5.865   5.738 -0.4752 -0.1228 -0.0921
13945SOL    HW145623   0.429   5.930   5.808  1.2720 -1.9727  1.9931
13945SOL    HW245624   0.361   5.809   5.749  0.0462 -0.7052  0.7441
13946SOL     OW45625   5.458   2.189   6.090  0.2717 -0.2218 -0.0565
13946SOL    HW145626   5.407   2.210   6.169  1.6688 -0.2803  0.8937
13946SOL    HW245627   5.440   2.097   6.073  2.0743 -1.0052  1.8722
13947SOL     OW45628   6.092   0.904   6.802  0.2506  0.6420 -0.1995
13947SOL    HW145629   6.129   0.980   6.848  0.1743 -0.2274  1.3896
13947SOL    HW245630   6.001   0.900   6.834 -0.2262  0.7992 -1.4939
13948SOL     OW45631   8.966   4.165   0.337 -0.0270 -0.5884 -0.2709
13948SOL    HW145632   8.993   4.074   0.323  1.1717 -0.4492  0.8887
13948SOL    HW245633   8.889   4.159   0.394 -0.5789 -0.8971 -1.0379
13949SOL     OW45634   2.423   3.172   7.997 -0.2047 -0.2216 -0.0076
13949SOL    HW145635   2.451   3.225   8.072  1.3829  0.6720 -1.1581
13949SOL    HW245636   2.360   3.110   8.033  1.4699 -0.6934  2.3245
13950SOL     OW45637   9.546   4.312   4.275  0.5235  0.0199  0.1803
13950SOL    HW145638   9.537   4.275   4.187  1.6243  0.6667 -0.2345
13950SOL    HW245639   9.596   4.247   4.323 -1.3138 -1.0066  0.8032
13951SOL     OW45640   6.977   2.010   3.978 -0.1434  0.6390 -0.1443
13951SOL    HW145641   6.887   2.034   3.954  0.4120  1.8244 -1.1257
13951SOL    HW245642   6.967   1.928   4.027 -1.9045  1.6473  1.3111
13952SOL     OW45643   8.541   1.739   6.737 -0.3446 -0.1866 -0.0924
13952SOL    HW145644   8.559   1.654   6.777  0.5316  0.7050  1.4927
13952SOL    HW245645   8.561   1.803   6.806  2.2881  1.5194 -2.2298
13953SOL     OW45646   1.611   9.403   8.930 -0.6247 -0.5485  0.4867
13953SOL    HW145647   1.599   9.404   8.835 -1.7329 -1.3002  0.6092
13953SOL    HW245648   1.538   9.455   8.964 -0.7042 -0.9744  0.9787
13954SOL     OW45649   6.041   1.348   3.381  0.5837  0.0328 -0.3753
13954SOL    HW145650   6.050   1.272   3.439 -2.7376 -0.0785  0.1634
13954SOL    HW245651   5.981   1.319   3.312 -0.1196  1.9219 -0.6010
13955SOL     OW45652   6.630   0.767   6.072 -0.5460  0.5064 -0.4411
13955SOL    HW145653   6.675   0.802   5.995  2.3890  1.8178  1.6916
13955SOL    HW245654   6.618   0.842   6.130  1.0270 -0.9956  2.0133
13956SOL     OW45655   0.485   4.496   8.103  0.0152 -0.2746  0.2850
13956SOL    HW145656   0.557   4.559   8.096  0.0560 -0.4123 -0.7543
13956SOL    HW245657   0.421   4.525   8.037  0.8935 -2.3743 -1.6187
13957SOL     OW45658   8.456   6.653   3.109 -0.1590 -0.0068 -0.3806
13957SOL    HW145659   8.445   6.683   3.019 -0.1177 -0.6973 -0.6277
13957SOL    HW245660   8.465   6.558   3.101 -0.3198 -0.0917  0.3698
13958SOL     OW45661   0.728   0.659   3.072  0.3411 -0.3317  0.9054
13958SOL    HW145662   0.760   0.735   3.120  1.3020  0.5811 -1.0611
13958SOL    HW245663   0.796   0.642   3.007 -1.3641 -0.8197 -0.8377
13959SOL     OW45664   7.322   3.233   8.496 -0.6235  0.1611 -0.0699
13959SOL    HW145665   7.235   3.255   8.530 -1.2913 -1.3348 -0.7133
13959SOL    HW245666   7.361   3.179   8.565 -0.3811  0.4648  0.0306
13960SOL     OW45667   6.853   1.638   2.882  0.7722 -0.4741 -0.1991
13960SOL    HW145668   6.893   1.551   2.876  1.5732 -0.0935 -0.4824
13960SOL    HW245669   6.763   1.625   2.852  1.5341 -0.7739 -2.6135
13961SOL     OW45670   2.365   2.554   1.849  0.2087 -0.1505  0.5989
13961SOL    HW145671   2.458   2.569   1.835 -0.0278  2.2360  1.1734
13961SOL    HW245672   2.359   2.523   1.940  0.3742  0.4198  0.8039
13962SOL     OW45673   3.036   0.839   7.328  0.4116  0.1706  0.4766
13962SOL    HW145674   3.108   0.777   7.337  2.0462  1.8872 -0.0979
13962SOL    HW245675   2.958   0.791   7.357  1.2018 -2.7831 -1.7951
13963SOL     OW45676   9.178   4.670   8.335  0.0316  1.0262  0.8820
13963SOL    HW145677   9.172   4.765   8.324  0.0705  0.8713 -0.6878
13963SOL    HW245678   9.110   4.634   8.278  0.8772  0.0817  0.4157
13964SOL     OW45679   3.458   2.850   0.820  0.1209 -0.5236 -0.1094
13964SOL    HW145680   3.425   2.761   0.812  0.7315 -0.5993 -2.6919
13964SOL    HW245681   3.388   2.905   0.785  1.6178 -0.4951 -3.4048
13965SOL     OW45682   8.306  10.203   3.714  0.3357  0.0605 -0.0627
13965SOL    HW145683   8.259  10.284   3.733  0.2983  0.0168  0.0259
13965SOL    HW245684   8.250  10.134   3.747 -1.1110 -0.2148 -2.8061
13966SOL     OW45685   2.394   9.980   4.553 -0.8415  0.9163  0.8610
13966SOL    HW145686   2.408   9.890   4.581  1.5465  0.4082 -1.5449
13966SOL    HW245687   2.302   9.982   4.525 -0.3024 -1.6671 -1.6074
13967SOL     OW45688   0.444   1.006   3.784 -0.0287 -0.1383  0.0393
13967SOL    HW145689   0.481   0.928   3.743 -1.7378 -0.7582 -0.4153
13967SOL    HW245690   0.372   0.974   3.837  0.2272  0.9892  1.1293
13968SOL     OW45691  10.052   4.911   5.665 -0.2926 -0.4614 -0.6884
13968SOL    HW145692  10.103   4.830   5.662 -0.3899 -0.7716  2.3700
13968SOL    HW245693  10.116   4.981   5.654 -0.3055 -0.8488 -4.1686
13969SOL     OW45694   2.509   4.826   9.778 -0.0010 -0.1819 -0.1406
13969SOL    HW145695   2.506   4.761   9.848 -2.7504 -0.9441 -0.8299
13969SOL    HW245696   2.523   4.909   9.823 -0.6218 -0.7800  1.2148
13970SOL     OW45697   1.441   2.767   9.908  0.0987  0.1355  0.0723
13970SOL    HW145698   1.358   2.772   9.861 -1.2024 -1.3035  2.0454
13970SOL    HW245699   1.419   2.792   9.998  2.0145  0.5933  0.4596
13971SOL     OW45700   5.016   4.378   9.130 -0.0734  0.4150  0.3094
13971SOL    HW145701   5.036   4.457   9.081 -0.1147 -0.0943 -0.5554
13971SOL    HW245702   5.101   4.350   9.166 -0.2164  1.3733  1.4686
13972SOL     OW45703   9.192   1.503   5.106 -0.0156 -0.1477  0.0179
13972SOL    HW145704   9.153   1.590   5.108 -0.5554 -0.3389  3.1315
13972SOL    HW245705   9.117   1.444   5.097 -0.2322 -0.3864  2.6512
13973SOL     OW45706   2.636   8.789   2.950  0.3473 -0.5679  0.0487
13973SOL    HW145707   2.641   8.813   2.857 -1.7881 -0.6452 -0.1227
13973SOL    HW245708   2.703   8.720   2.960  2.0650  0.8660 -0.9056
13974SOL     OW45709   4.077   4.655   6.317 -0.0834  0.1629  0.6432
13974SOL    HW145710   4.127   4.577   6.341 -0.3373 -0.2054  0.0109
13974SOL    HW245711   4.051   4.640   6.226 -0.6250  0.7267  0.6946
13975SOL     OW45712   0.989   0.630   4.808  0.2119  0.0791  0.2996
13975SOL    HW145713   0.944   0.547   4.821  0.2812 -0.1746 -0.9371
13975SOL    HW245714   0.925   0.685   4.762  1.4490 -0.6726 -2.5446
13976SOL     OW45715   7.273   6.639  10.112  0.0128  0.5168 -0.2777
13976SOL    HW145716   7.334   6.571  10.142 -0.2349  0.7043  0.6931
13976SOL    HW245717   7.214   6.594  10.052  1.3326  0.4133 -1.5578
13977SOL     OW45718   3.717   1.994   3.527  0.1142 -0.1999 -0.3898
13977SOL    HW145719   3.710   1.906   3.492  1.2346  0.0752 -1.3815
13977SOL    HW245720   3.698   2.051   3.452  0.8153  0.3959 -0.1246
13978SOL     OW45721   7.463   3.808   8.459 -0.2218  0.1788 -0.5028
13978SOL    HW145722   7.446   3.765   8.375  0.8943 -3.7462  1.0261
13978SOL    HW245723   7.548   3.850   8.448  0.6128 -1.5466 -0.9804
13979SOL     OW45724   3.180   0.616   1.168  0.1714 -0.2774  0.1427
13979SOL    HW145725   3.187   0.526   1.135  1.1000  0.0616 -0.6432
13979SOL    HW245726   3.271   0.642   1.186  0.4176  1.7271 -3.1203
13980SOL     OW45727   5.115   7.470   3.456  0.2179  0.9693  0.6853
13980SOL    HW145728   5.143   7.401   3.396  0.4518  1.4414  0.2455
13980SOL    HW245729   5.069   7.534   3.402 -2.7840 -0.3007  1.5524
13981SOL     OW45730   8.132   9.843   3.998  0.1267 -0.9805  0.1953
13981SOL    HW145731   8.072   9.814   4.068 -0.7828  0.2948 -0.0155
13981SOL    HW245732   8.217   9.808   4.024  0.1446  0.6559  2.7849
13982SOL     OW45733   7.327  10.314   7.834 -0.2073  0.0004  0.0552
13982SOL    HW145734   7.416  10.308   7.800  0.1283 -0.2257  0.9671
13982SOL    HW245735   7.281  10.240   7.795  0.6015 -1.2062  1.3213
13983SOL     OW45736   8.101   0.315   4.573 -0.5794  0.8143 -0.6683
13983SOL    HW145737   8.136   0.403   4.561 -0.2250  0.5735 -1.5463
13983SOL    HW245738   8.153   0.261   4.513  0.4774 -0.3318  1.1657
13984SOL     OW45739   2.701   5.084   7.004 -0.5893  0.6552 -0.1386
13984SOL    HW145740   2.657   5.071   6.920  0.1536 -0.5465 -0.3614
13984SOL    HW245741   2.686   5.002   7.052  0.4087  0.6821  0.2391
13985SOL     OW45742  10.167   8.349   6.607  0.4122  0.6270  0.0754
13985SOL    HW145743  10.128   8.415   6.549  2.2309  0.1581 -1.8420
13985SOL    HW245744  10.257   8.379   6.619  1.2479 -1.4041 -0.7539
13986SOL     OW45745   6.748   5.846   1.034  0.3209 -0.5658 -0.0051
13986SOL    HW145746   6.820   5.818   0.977  2.2161 -1.8241  2.7501
13986SOL    HW245747   6.714   5.764   1.071 -0.4497  0.2166  1.0593
13987SOL     OW45748   2.799   0.915   4.898 -0.3352  0.3766  0.0673
13987SOL    HW145749   2.784   0.902   4.804  2.6622 -1.7344 -0.2559
13987SOL    HW245750   2.798   0.827   4.935  3.0258  0.6530  1.1352
13988SOL     OW45751   7.305   5.861   9.043 -0.1093 -0.0687 -0.7490
13988SOL    HW145752   7.320   5.917   8.967  0.8883  2.3479  1.0972
13988SOL    HW245753   7.227   5.896   9.084  0.8151  0.3460  0.7173
13989SOL     OW45754   9.176   8.638   7.208 -0.8171 -0.0596  0.5881
13989SOL    HW145755   9.225   8.636   7.126 -0.2164  0.2493  0.9334
13989SOL    HW245756   9.108   8.571   7.197 -0.5494 -0.2340 -0.0402
13990SOL     OW45757   3.492   5.578   3.364 -0.1073  0.3817  0.1558
13990SOL    HW145758   3.478   5.522   3.441 -0.6233 -0.1581 -0.3210
13990SOL    HW245759   3.489   5.667   3.398 -0.8655  0.1612  0.6759
13991SOL     OW45760   2.337   2.387   4.187  0.8341 -0.1779  0.3196
13991SOL    HW145761   2.376   2.314   4.235  0.4519 -0.0403  0.8474
13991SOL    HW245762   2.411   2.444   4.165  1.1235 -0.6881 -0.0313
13992SOL     OW45763   5.768   6.310   3.311 -0.0685 -0.5048 -0.0284
13992SOL    HW145764   5.706   6.294   3.382 -1.5181  0.9707 -0.8949
13992SOL    HW245765   5.715   6.343   3.238  1.7740  1.6115 -0.5588
13993SOL     OW45766   4.191   4.127   9.184 -0.2892  0.1936  0.1408
13993SOL    HW145767   4.135   4.174   9.246 -0.3734 -1.7814  1.6363
13993SOL    HW245768   4.269   4.105   9.234  0.2159 -0.3446 -0.8520
13994SOL     OW45769   0.312   9.844   2.418  0.6745 -0.4256  0.1255
13994SOL    HW145770   0.351   9.795   2.345 -1.4739  1.6341 -2.6322
13994SOL    HW245771   0.218   9.837   2.403  0.1812  0.6389  2.3943
13995SOL     OW45772   0.342   1.396   0.009 -0.3285  0.5722 -0.0811
13995SOL    HW145773   0.302   1.310   0.026 -2.4209  1.4694 -0.2034
13995SOL    HW245774   0.365   1.429   0.096  1.6620 -0.5977 -0.1100
13996SOL     OW45775   5.291   7.857   8.755 -0.1699 -0.0544 -0.0074
13996SOL    HW145776   5.363   7.820   8.807 -0.1987  0.0188  0.0832
13996SOL    HW245777   5.334   7.895   8.679 -0.2334 -1.3359 -0.7230
13997SOL     OW45778   7.039   3.609   4.248 -0.1688  0.0485  0.4764
13997SOL    HW145779   7.093   3.537   4.280 -1.0980  0.2008  2.4981
13997SOL    HW245780   7.004   3.650   4.326 -0.4789  2.0963 -0.6665
13998SOL     OW45781   9.120   6.417   9.900  0.2337  0.2671  0.2490
13998SOL    HW145782   9.161   6.342   9.856  1.1856  1.7614 -1.5936
13998SOL    HW245783   9.029   6.414   9.873  0.0636 -0.7133  0.9135
13999SOL     OW45784   1.140   1.283   8.424 -0.1861  0.1816 -0.4017
13999SOL    HW145785   1.143   1.277   8.520  2.0880  1.6214 -0.3270
13999SOL    HW245786   1.075   1.351   8.407  0.3430  0.8579  0.1963
14000SOL     OW45787   2.261   4.949   9.159  0.3921  0.1506 -0.1547
14000SOL    HW145788   2.220   4.895   9.091 -0.2544  1.5380 -0.9188
14000SOL    HW245789   2.303   5.020   9.110  0.7979  0.6172  0.8530
14001SOL     OW45790   2.481   4.351   6.599 -0.2951  0.0366 -0.3837
14001SOL    HW145791   2.415   4.418   6.620  0.8808  0.1639  3.7342
14001SOL    HW245792   2.451   4.273   6.646  1.5930 -0.3759  0.2074
14002SOL     OW45793   3.148   2.045   4.518 -0.4097 -0.0295 -0.6533
14002SOL    HW145794   3.127   1.959   4.481  3.1315 -0.6744 -1.5531
14002SOL    HW245795   3.154   2.103   4.443 -2.2001  0.9175 -0.1046
14003SOL     OW45796   5.349   6.759   4.002  0.0824 -0.4606  0.3393
14003SOL    HW145797   5.406   6.785   4.074 -0.2039  0.9177  0.0850
14003SOL    HW245798   5.264   6.744   4.042  0.1707 -0.7197  0.4351
14004SOL     OW45799   8.585   8.499   8.828 -0.3239  0.0503  0.2356
14004SOL    HW145800   8.493   8.495   8.802  0.2768  0.9330 -2.3067
14004SOL    HW245801   8.607   8.409   8.853 -1.5209 -0.4382 -0.4050
14005SOL     OW45802   1.281   4.031   7.602 -0.5341  0.0494 -0.0727
14005SOL    HW145803   1.340   4.014   7.529 -1.9763  1.5940 -1.6803
14005SOL    HW245804   1.252   3.944   7.629  0.4794 -0.5872 -0.9302
14006SOL     OW45805   3.611   9.064   3.008 -0.2534 -0.2718 -0.0082
14006SOL    HW145806   3.702   9.061   3.037 -0.4339 -0.7811  0.5130
14006SOL    HW245807   3.561   9.086   3.086 -0.5916 -0.1396 -0.2604
14007SOL     OW45808   7.879   4.991   6.426 -0.3521  0.4731 -0.6453
14007SOL    HW145809   7.870   5.077   6.467  0.6468  0.2379  0.0912
14007SOL    HW245810   7.973   4.978   6.416 -0.3967 -1.0963  0.5248
14008SOL     OW45811   3.007   5.445   9.619  0.1424  0.3854  0.1653
14008SOL    HW145812   2.991   5.360   9.578  1.6655 -0.0065  0.3065
14008SOL    HW245813   3.090   5.474   9.581 -0.3196  1.7752  0.1972
14009SOL     OW45814   8.357   0.704   9.466 -0.3323  0.6295 -1.0320
14009SOL    HW145815   8.268   0.694   9.433 -0.4059 -0.1674 -0.6160
14009SOL    HW245816   8.397   0.618   9.454 -0.1764  0.4831  0.3955
14010SOL     OW45817   6.144   1.518   5.574 -0.0964  0.0109  0.3931
14010SOL    HW145818   6.223   1.510   5.521 -0.4812  1.5982 -0.4837
14010SOL    HW245819   6.129   1.430   5.608  0.2118 -1.0633 -2.0788
14011SOL     OW45820   1.929   6.810   6.168  0.0095 -0.0976 -0.8008
14011SOL    HW145821   1.921   6.835   6.076 -2.5395 -1.0785 -0.9137
14011SOL    HW245822   1.906   6.717   6.170 -0.6760  0.0735  0.8876
14012SOL     OW45823   7.443   8.038   8.083 -0.1721 -0.0237  0.1304
14012SOL    HW145824   7.452   7.959   8.031  0.2442 -0.1354  0.3738
14012SOL    HW245825   7.532   8.073   8.092 -0.3847  0.6424 -0.2381
14013SOL     OW45826   4.469   4.666   5.436  0.1542 -0.2091  0.3830
14013SOL    HW145827   4.522   4.708   5.504  2.8539 -1.0693 -1.0516
14013SOL    HW245828   4.442   4.583   5.475  2.5015 -1.1437  0.1670
14014SOL     OW45829   2.544   8.383   7.456 -0.0248 -0.4289  0.3301
14014SOL    HW145830   2.594   8.450   7.408  0.8489 -1.3697 -0.0948
14014SOL    HW245831   2.488   8.434   7.515 -0.7127  0.7520 -1.2612
14015SOL     OW45832   8.287   6.224   9.193 -0.0786 -0.4938 -0.0992
14015SOL    HW145833   8.204   6.255   9.155 -0.6633 -0.6546  1.0006
14015SOL    HW245834   8.353   6.285   9.159 -0.3665 -1.3399 -2.3152
14016SOL     OW45835   4.981   0.532   1.500 -0.8789 -0.2009  0.7190
14016SOL    HW145836   4.951   0.503   1.414  0.0552  1.0394 -0.0707
14016SOL    HW245837   5.048   0.468   1.525  1.1346  1.1009 -0.9791
14017SOL     OW45838   0.161   6.551   7.457  0.1616 -0.5912  0.4915
14017SOL    HW145839   0.092   6.525   7.396 -0.6087  2.2439  0.0064
14017SOL    HW245840   0.237   6.499   7.431 -0.0266  0.6156 -3.1800
14018SOL     OW45841   8.019   6.553   4.733  0.4153  0.0329  0.2578
14018SOL    HW145842   8.001   6.465   4.765  1.6831 -0.1582  0.4936
14018SOL    HW245843   8.114   6.560   4.735  0.3845  0.9805 -0.9331
14019SOL     OW45844   2.910   3.921   4.610 -0.0510 -0.7535  0.5757
14019SOL    HW145845   2.982   3.892   4.554 -0.6350  0.7012 -1.0307
14019SOL    HW245846   2.941   3.905   4.699  2.2933 -0.0742 -0.0494
14020SOL     OW45847   1.753   9.032   8.321 -0.2027 -0.3498  0.2705
14020SOL    HW145848   1.780   9.100   8.383  0.4344 -0.7269  0.4171
14020SOL    HW245849   1.675   8.993   8.359 -0.9939  0.7574 -0.1523
14021SOL     OW45850   3.756   3.642   2.710  0.5969 -0.2550  0.4627
14021SOL    HW145851   3.716   3.686   2.785 -0.1412  0.5315 -0.3758
14021SOL    HW245852   3.842   3.684   2.701 -0.0444  0.9460 -0.2445
14022SOL     OW45853   2.636   7.364   9.615  0.0714 -0.4677  0.0648
14022SOL    HW145854   2.585   7.371   9.696 -1.4786  0.0678 -0.9205
14022SOL    HW245855   2.722   7.399   9.638 -0.3096 -0.4190  1.5015
14023SOL     OW45856   9.800   4.574   1.572 -0.0943  0.3015  1.2844
14023SOL    HW145857   9.713   4.574   1.532  1.0943 -4.2036 -2.2156
14023SOL    HW245858   9.850   4.638   1.522 -0.4518 -0.0624  0.4499
14024SOL     OW45859   9.511   4.046   3.188 -0.4624 -0.0620  0.2101
14024SOL    HW145860   9.507   3.971   3.129  0.3914 -0.6885  0.9161
14024SOL    HW245861   9.539   4.119   3.133 -0.3972 -0.4658 -0.2984
14025SOL     OW45862   5.128   6.929   9.950  0.7975 -0.2276 -0.3472
14025SOL    HW145863   5.143   6.881  10.031  1.2042 -0.0639 -0.3255
14025SOL    HW245864   5.035   6.952   9.953  0.4389 -1.5435 -0.6502
14026SOL     OW45865   0.717   5.440   4.179  0.1407 -0.1024  0.4544
14026SOL    HW145866   0.657   5.397   4.239  0.8495 -0.0075  1.2469
14026SOL    HW245867   0.722   5.381   4.104  1.3330 -1.5946  1.6453
14027SOL     OW45868   1.439   9.798   4.525 -0.1356  0.6058 -0.6807
14027SOL    HW145869   1.358   9.748   4.536 -0.5458  1.1606 -1.1493
14027SOL    HW245870   1.419   9.886   4.556  0.3532  0.6934 -0.5961
14028SOL     OW45871   9.056   1.192   5.983 -0.3425 -0.0739 -0.2293
14028SOL    HW145872   9.143   1.189   6.023 -0.6051 -0.9321  0.3175
14028SOL    HW245873   9.010   1.117   6.021 -2.0742  1.6015  1.2118
14029SOL     OW45874   6.875   6.025   9.447  0.5462  0.2246 -0.2024
14029SOL    HW145875   6.885   6.094   9.513 -0.3715 -1.0671  1.3381
14029SOL    HW245876   6.806   6.057   9.389  0.9397  1.0978 -0.2149
14030SOL     OW45877   5.326   7.846   7.732 -0.2505  0.4383  0.2352
14030SOL    HW145878   5.340   7.928   7.685 -1.3359  0.4172 -0.1487
14030SOL    HW245879   5.359   7.779   7.672  1.0370  0.6042  0.7278
14031SOL     OW45880   7.983   5.811   9.375  0.5334  0.3282 -0.0779
14031SOL    HW145881   8.073   5.816   9.407  0.6533  0.7769 -0.4818
14031SOL    HW245882   7.960   5.902   9.354 -0.9220  0.6808  2.5413
14032SOL     OW45883   5.237   0.733   9.156 -0.1670 -0.6125  0.0200
14032SOL    HW145884   5.174   0.701   9.221  0.2187  0.4070  0.9378
14032SOL    HW245885   5.262   0.820   9.188 -0.0272 -0.0370 -1.5564
14033SOL     OW45886   9.266   6.852   3.984 -0.4447  0.1561 -0.4047
14033SOL    HW145887   9.210   6.908   4.038 -0.1943  0.2076 -0.1964
14033SOL    HW245888   9.348   6.846   4.033 -0.3028 -0.0011 -0.6601
14034SOL     OW45889   8.303   4.046   9.276  0.2905  0.1150  0.2028
14034SOL    HW145890   8.264   3.959   9.269  0.1291  0.2926 -1.3246
14034SOL    HW245891   8.394   4.030   9.301  0.0030 -0.4347  0.9137
14035SOL     OW45892   8.863   2.878   1.874 -0.0178 -0.0909  0.6256
14035SOL    HW145893   8.843   2.971   1.873  1.5068  0.2848 -0.9756
14035SOL    HW245894   8.875   2.855   1.781 -1.3063 -2.1188  0.8975
14036SOL     OW45895   6.136   5.393   3.823  0.0173  0.4653  0.0396
14036SOL    HW145896   6.063   5.344   3.862  0.3267  0.9532  1.3036
14036SOL    HW245897   6.196   5.325   3.791  0.0524  0.0149  1.0192
14037SOL     OW45898   6.553   0.620   1.876 -0.4670 -0.2865 -0.2035
14037SOL    HW145899   6.601   0.639   1.796 -0.7771 -1.4552 -0.6917
14037SOL    HW245900   6.620   0.615   1.944 -0.1955  0.6357 -0.3945
14038SOL     OW45901   2.317   0.856   4.896 -0.0402 -0.1328  0.2256
14038SOL    HW145902   2.350   0.881   4.810 -2.5631 -0.7507 -1.0229
14038SOL    HW245903   2.259   0.928   4.921 -0.0311 -0.3840  0.9925
14039SOL     OW45904   0.987   0.446   4.212 -0.6930  0.4778  0.1925
14039SOL    HW145905   0.893   0.441   4.230 -0.7878  0.4696 -0.2867
14039SOL    HW245906   1.019   0.358   4.227 -0.5080  0.7785  1.6873
14040SOL     OW45907   8.788   4.508   5.538  0.0142  0.0079 -0.0831
14040SOL    HW145908   8.813   4.596   5.507  0.2514  0.3914  1.1406
14040SOL    HW245909   8.872   4.466   5.559 -0.1186 -0.4114 -0.3850
14041SOL     OW45910   5.251   4.027   5.977 -0.7638 -0.2760  0.4560
14041SOL    HW145911   5.305   4.054   6.052  0.0517 -0.3405 -0.0902
14041SOL    HW245912   5.177   4.087   5.977 -0.3842  0.1973  0.8792
14042SOL     OW45913   5.995   0.300   2.454 -0.5467  0.2891 -0.4985
14042SOL    HW145914   6.026   0.380   2.496  0.0419  1.0047 -2.2178
14042SOL    HW245915   6.057   0.233   2.482 -0.9282  0.4449  0.7950
14043SOL     OW45916   5.255   0.982   1.945  0.3789  0.4371 -0.2730
14043SOL    HW145917   5.179   1.016   1.898  0.0583  0.4139  0.2281
14043SOL    HW245918   5.323   0.974   1.878  0.0357  0.7529 -0.6613
14044SOL     OW45919   8.122   9.966   3.768 -0.3866  0.0938  0.2398
14044SOL    HW145920   8.133   9.930   3.856  0.5132 -1.0864 -0.3299
14044SOL    HW245921   8.096   9.891   3.714  0.4029  0.5179 -0.7716
14045SOL     OW45922   7.172   1.613   8.843 -0.3120 -0.0231  0.2478
14045SOL    HW145923   7.098   1.616   8.904 -1.5636 -2.0631 -1.0591
14045SOL    HW245924   7.143   1.663   8.767  0.5401  0.9990  0.5722
14046SOL     OW45925   0.314   9.811   9.811 -0.5482 -0.0905  0.3049
14046SOL    HW145926   0.365   9.732   9.793 -0.6491  0.0546 -0.6392
14046SOL    HW245927   0.353   9.878   9.756 -0.5805  0.4881  0.9706
14047SOL     OW45928  10.080   8.546   1.051 -0.0655 -0.2118 -0.2771
14047SOL    HW145929  10.119   8.473   1.003 -0.3547  0.0528 -0.9195
14047SOL    HW245930  10.081   8.517   1.142  1.1678 -0.4103 -0.3391
14048SOL     OW45931   8.569   9.853   8.733 -0.3336  0.3096  0.2431
14048SOL    HW145932   8.642   9.890   8.685 -1.3828  0.6411 -1.1656
14048SOL    HW245933   8.561   9.763   8.700 -1.6029  0.8084 -0.9285
14049SOL     OW45934   7.849   4.103   1.818 -0.3076 -0.1008  0.2797
14049SOL    HW145935   7.819   4.101   1.909  0.1835  1.8752  0.5452
14049SOL    HW245936   7.867   4.196   1.801 -0.2483 -0.4428 -1.8015
14050SOL     OW45937   8.149   6.031   8.335  0.2218  0.6937  0.5866
14050SOL    HW145938   8.106   5.948   8.312 -0.3638  0.8523  1.0971
14050SOL    HW245939   8.077   6.089   8.360  0.3843  2.0264 -1.7104
14051SOL     OW45940   7.052   7.647   0.898 -0.0430 -0.1570 -0.2918
14051SOL    HW145941   7.112   7.642   0.972 -0.6462 -1.6430  0.1363
14051SOL    HW245942   7.090   7.589   0.832 -0.8499 -0.9186 -0.1091
14052SOL     OW45943  10.016   9.090   0.124 -0.4502 -0.0423  0.0202
14052SOL    HW145944   9.949   9.028   0.095 -2.5425  1.4602  1.3726
14052SOL    HW245945  10.092   9.069   0.070 -1.9247 -1.9460 -1.4896
14053SOL     OW45946   2.609   3.003   7.912  0.4734 -0.3914 -0.1465
14053SOL    HW145947   2.561   2.956   7.843  0.1697 -0.9725  0.4536
14053SOL    HW245948   2.547   3.067   7.945  0.2879 -0.7759  0.2566
14054SOL     OW45949   5.171   0.616   9.891 -0.2321 -0.3226 -0.2524
14054SOL    HW145950   5.154   0.538   9.839 -0.5263  0.6705 -1.6890
14054SOL    HW245951   5.245   0.658   9.848 -0.6415  0.6589 -0.0236
14055SOL     OW45952   9.073   0.933   8.723 -0.0656  0.3035  0.3701
14055SOL    HW145953   9.127   0.887   8.787  0.0458 -2.1666 -1.3483
14055SOL    HW245954   8.983   0.913   8.749 -0.0312 -0.0773  0.2171
14056SOL     OW45955   9.616   3.954   9.908  0.3869  0.1644 -0.0501
14056SOL    HW145956   9.653   3.876   9.867  0.2799  0.9231 -1.6708
14056SOL    HW245957   9.560   3.920   9.978 -0.3316 -1.2659 -1.2639
14057SOL     OW45958   2.512   2.305   1.020 -0.1029  0.1037 -0.0553
14057SOL    HW145959   2.468   2.317   1.105 -0.0168 -0.4767  0.0732
14057SOL    HW245960   2.444   2.325   0.955 -0.6790 -1.1409  0.1390
14058SOL     OW45961   5.972   8.078   9.883 -0.2112  0.3734  0.2005
14058SOL    HW145962   6.063   8.088   9.856  0.0074  0.0159  0.7857
14058SOL    HW245963   5.921   8.093   9.803  0.4324 -1.1363 -0.5268
14059SOL     OW45964   0.355   9.882   0.962  0.3486 -0.1238  0.5724
14059SOL    HW145965   0.326   9.803   0.918  2.4608 -1.1200  0.8110
14059SOL    HW245966   0.306   9.884   1.044  0.2955 -1.2323  0.5764
14060SOL     OW45967   1.977   7.885   5.857  0.5188  0.2229  0.6375
14060SOL    HW145968   1.958   7.937   5.779 -0.1629 -0.3131  0.4314
14060SOL    HW245969   2.073   7.881   5.860  0.5803  1.3265  0.5645
14061SOL     OW45970  10.094   6.255   6.326 -0.2012  0.2177  1.0624
14061SOL    HW145971  10.031   6.268   6.255  1.0125 -0.1714 -0.1086
14061SOL    HW245972  10.058   6.182   6.377 -0.8933  0.2567  0.6374
14062SOL     OW45973   4.379   5.728   4.388  0.1733  0.0668  0.4631
14062SOL    HW145974   4.304   5.699   4.439 -0.2466  0.4792  0.0934
14062SOL    HW245975   4.347   5.730   4.297 -0.2476  2.8988  0.5884
14063SOL     OW45976   2.393   5.198   0.129 -0.5936  0.0271  0.4226
14063SOL    HW145977   2.300   5.190   0.150 -1.0062 -0.8911 -1.4927
14063SOL    HW245978   2.395   5.261   0.057  0.0523 -1.0879 -0.5765
14064SOL     OW45979   1.284   2.792   8.563 -0.2733 -0.2943 -0.2888
14064SOL    HW145980   1.276   2.850   8.488  1.1008  1.5493  0.9293
14064SOL    HW245981   1.366   2.745   8.548 -0.1559 -0.1527 -0.0836
14065SOL     OW45982   1.991   0.664   1.655 -0.5925 -0.0631 -0.9790
14065SOL    HW145983   1.918   0.726   1.656 -1.2574 -0.7842 -2.5327
14065SOL    HW245984   2.061   0.709   1.608 -0.1071  0.4979  0.2213
14066SOL     OW45985   7.074   6.233   2.848 -0.0762  0.5591 -0.0923
14066SOL    HW145986   7.163   6.228   2.884 -0.1281  0.1167 -0.0162
14066SOL    HW245987   7.017   6.213   2.922 -0.1854 -0.3043 -0.3980
14067SOL     OW45988   3.869   4.905   6.001  0.3681 -0.2048 -0.1002
14067SOL    HW145989   3.859   5.000   5.998 -1.4278 -0.3809 -2.2730
14067SOL    HW245990   3.836   4.880   6.087 -1.3405  0.9803 -0.3641
14068SOL     OW45991   5.129  10.262   9.872 -0.2821  0.2567  0.1686
14068SOL    HW145992   5.139  10.192   9.807  0.2357  0.9061 -0.4721
14068SOL    HW245993   5.169  10.227   9.952  0.0101 -0.1650 -0.1589
14069SOL     OW45994   6.910   8.812   0.341  0.5927  0.3488  0.6030
14069SOL    HW145995   6.961   8.838   0.264 -2.0137  1.5172 -0.8851
14069SOL    HW245996   6.873   8.727   0.318  2.1476 -0.7380  1.8809
14070SOL     OW45997   9.168   1.949   2.158  0.3209 -0.2846 -0.1311
14070SOL    HW145998   9.162   2.017   2.226  0.6812 -1.1484  0.7781
14070SOL    HW245999   9.139   1.869   2.200 -1.1670 -0.5260 -1.5122
14071SOL     OW46000   7.506   2.280   4.097 -0.1082 -0.4149 -0.6145
14071SOL    HW146001   7.463   2.263   4.181  0.2764 -2.2240 -0.7387
14071SOL    HW246002   7.599   2.278   4.118 -0.0162 -0.6765 -1.0472
14072SOL     OW46003   7.317   7.690   0.226 -0.5708  0.0630 -0.0488
14072SOL    HW146004   7.261   7.718   0.154  0.9934 -0.0506 -1.3686
14072SOL    HW246005   7.386   7.638   0.184 -0.7456 -1.7631  1.7821
14073SOL     OW46006   6.457   3.700   0.947  0.3222  0.1086  0.0983
14073SOL    HW146007   6.397   3.641   0.901 -0.4695  1.5315 -0.7789
14073SOL    HW246008   6.418   3.787   0.935  1.5261  0.8290  1.2199
14074SOL     OW46009   7.467   0.912   8.513  0.1834 -0.6323  0.2965
14074SOL    HW146010   7.551   0.933   8.473  0.9189 -1.5864  1.2848
14074SOL    HW246011   7.442   0.993   8.559  1.3161 -0.7940  1.2521
14075SOL     OW46012   6.329   5.984   5.435 -0.0332  0.1384  0.0870
14075SOL    HW146013   6.307   5.981   5.528 -0.2975 -0.2690  0.0181
14075SOL    HW246014   6.367   6.070   5.421 -1.0702  0.6494  0.3334
14076SOL     OW46015   9.752   2.119   1.568 -0.4572 -0.1663  0.5980
14076SOL    HW146016   9.799   2.192   1.608  1.4904 -1.5871  1.0322
14076SOL    HW246017   9.818   2.051   1.557 -1.9165 -1.4022 -1.0393
14077SOL     OW46018   5.919   3.929   5.325  0.2620  0.1718 -0.2904
14077SOL    HW146019   5.968   3.940   5.243 -0.0462 -2.4297 -0.9228
14077SOL    HW246020   5.830   3.908   5.296  0.4503 -2.1149  0.6117
14078SOL     OW46021   4.396   1.232   7.412  0.1449 -0.3312  0.3357
14078SOL    HW146022   4.369   1.301   7.471  1.0381  0.4963 -0.1931
14078SOL    HW246023   4.459   1.180   7.463 -0.2817 -0.5708  0.6249
14079SOL     OW46024   9.415   3.255   3.164  0.6406  0.3652  0.1196
14079SOL    HW146025   9.420   3.252   3.068  0.1734  0.8210  0.0757
14079SOL    HW246026   9.440   3.167   3.192 -0.4397 -0.1696 -0.4853
14080SOL     OW46027   6.320   7.456   9.553  0.3295  0.3478  0.3090
14080SOL    HW146028   6.292   7.511   9.626 -0.4708 -1.0905  1.1145
14080SOL    HW246029   6.243   7.406   9.529  0.6022  0.7199 -1.4941
14081SOL     OW46030   3.085   2.683  10.022  0.5475 -0.4587  0.5890
14081SOL    HW146031   3.001   2.714   9.990  0.0790 -2.2919 -0.0331
14081SOL    HW246032   3.081   2.697  10.117  0.3778  1.3143  0.3623
14082SOL     OW46033   0.589   7.946   0.311  0.4405  0.1129  0.1104
14082SOL    HW146034   0.684   7.943   0.323  0.3063 -0.7756  1.0667
14082SOL    HW246035   0.568   7.863   0.268  0.1836  0.6682 -0.8555
14083SOL     OW46036   7.983   3.721   3.810 -0.6250 -0.4359 -0.4165
14083SOL    HW146037   8.058   3.779   3.798 -1.3147  0.5091 -0.2332
14083SOL    HW246038   8.008   3.640   3.764  0.3950 -0.0499 -0.5686
14084SOL     OW46039   5.803   4.802   3.366  0.6144 -0.1192 -0.8442
14084SOL    HW146040   5.813   4.720   3.317  0.9529 -0.2281 -0.5965
14084SOL    HW246041   5.813   4.777   3.458 -4.3717 -0.7222 -0.1785
14085SOL     OW46042   7.370   5.470   2.463 -0.0302  0.1702  0.1146
14085SOL    HW146043   7.360   5.380   2.433 -1.3669  0.3202  0.0645
14085SOL    HW246044   7.368   5.523   2.384 -0.3013  0.3278  0.2262
14086SOL     OW46045   8.506   0.406   3.351 -0.3437 -0.2464 -0.3781
14086SOL    HW146046   8.541   0.482   3.398  0.3970 -1.5971  1.3680
14086SOL    HW246047   8.539   0.330   3.400 -0.7105 -1.7221 -2.2927
14087SOL     OW46048   3.789   0.029   8.667 -0.3196  0.2727  0.2127
14087SOL    HW146049   3.771  -0.032   8.595 -0.1950 -1.1022  1.2969
14087SOL    HW246050   3.880   0.054   8.656 -0.5774  0.8891 -0.6708
14088SOL     OW46051   5.946   6.508   6.569 -0.6247  0.1800  0.3443
14088SOL    HW146052   5.969   6.428   6.616 -0.7905  1.0470  2.0143
14088SOL    HW246053   5.910   6.479   6.486  0.6663 -1.4153  0.3092
14089SOL     OW46054  10.126   4.389   8.964  0.3430  0.0403 -0.0807
14089SOL    HW146055  10.126   4.387   8.868  0.5132  0.0662 -0.0818
14089SOL    HW246056  10.218   4.382   8.988  0.3498  0.5799  0.0693
14090SOL     OW46057  10.355   5.883   8.654  0.1772  0.5366  0.3384
14090SOL    HW146058  10.261   5.865   8.660 -0.1308  2.3706  1.7273
14090SOL    HW246059  10.395   5.820   8.715 -0.0487 -0.5952 -0.6345
14091SOL     OW46060   8.250   1.048   1.162 -0.2868  0.8882 -0.1794
14091SOL    HW146061   8.163   1.009   1.160 -0.2913  0.9265 -0.8359
14091SOL    HW246062   8.278   1.051   1.071  0.2932  1.1258 -0.0024
14092SOL     OW46063   0.202   9.211   3.684  0.3095  0.1746  0.0535
14092SOL    HW146064   0.110   9.185   3.692  0.4513  0.0599  1.4990
14092SOL    HW246065   0.239   9.196   3.771  2.6225 -3.1816 -1.3285
14093SOL     OW46066   6.719   3.678   0.948 -0.3128  0.1779  0.7082
14093SOL    HW146067   6.743   3.763   0.913 -0.8591 -0.0712 -0.3224
14093SOL    HW246068   6.623   3.680   0.952 -0.3524 -0.5192  0.2993
14094SOL     OW46069   2.257  10.300   3.328  0.0052  0.7728  0.3479
14094SOL    HW146070   2.241  10.256   3.244  1.0302 -0.6034  0.8354
14094SOL    HW246071   2.206  10.381   3.322 -1.4437 -0.1582 -0.8538
14095SOL     OW46072   5.585   1.563   1.930 -0.0144 -0.0446 -0.0516
14095SOL    HW146073   5.518   1.581   1.865  0.3604  0.8517 -0.2074
14095SOL    HW246074   5.653   1.514   1.883 -1.0458 -1.9765  0.3766
14096SOL     OW46075   1.754   6.605   1.562 -0.0227 -0.1433 -0.2416
14096SOL    HW146076   1.660   6.596   1.575 -0.0548  1.5811  1.0711
14096SOL    HW246077   1.767   6.696   1.537  1.4367  0.2665  1.7060
14097SOL     OW46078   8.656   3.671   8.210  0.1822  0.0766 -0.2197
14097SOL    HW146079   8.670   3.691   8.303  0.3796  2.6058 -0.7318
14097SOL    HW246080   8.620   3.582   8.210  0.3272 -0.0510  2.2521
14098SOL     OW46081   2.900   0.810   2.169  0.7077 -0.2125  0.3342
14098SOL    HW146082   2.935   0.783   2.084  0.5293  3.2121 -1.0016
14098SOL    HW246083   2.812   0.842   2.150  0.8702  1.1475  1.6668
14099SOL     OW46084   0.638   1.922   1.309 -0.6077 -0.1588  0.1629
14099SOL    HW146085   0.578   1.962   1.245 -0.4237 -1.4307 -0.8593
14099SOL    HW246086   0.616   1.829   1.306  1.7476 -0.7471 -0.6409
14100SOL     OW46087   1.962   4.887   4.537 -0.1571 -0.2940  0.1154
14100SOL    HW146088   1.922   4.859   4.454  2.0833  1.5804 -1.7461
14100SOL    HW246089   1.984   4.805   4.581 -1.9720 -1.3567 -0.8123
14101SOL     OW46090   2.520   8.905   9.242 -0.4119  0.4853  0.0872
14101SOL    HW146091   2.426   8.889   9.233 -0.6301  0.7461  1.6686
14101SOL    HW246092   2.561   8.831   9.196 -1.3304  1.2949 -2.1978
14102SOL     OW46093   3.727   5.937   6.322  0.2799 -0.0918  0.3469
14102SOL    HW146094   3.697   5.984   6.244 -0.2875  1.4634  1.4422
14102SOL    HW246095   3.813   5.903   6.299  0.1058  0.2981 -0.9582
14103SOL     OW46096   7.653   0.449   7.906  0.4089 -0.1387  0.2819
14103SOL    HW146097   7.648   0.488   7.993 -2.5654 -0.3708  0.3194
14103SOL    HW246098   7.727   0.388   7.911  2.0852  1.8906  1.7079
14104SOL     OW46099   9.981   8.214   7.726  0.3018  0.0049  0.2774
14104SOL    HW146100   9.931   8.226   7.645 -0.2163 -0.2348  0.5602
14104SOL    HW246101  10.072   8.227   7.700  0.0556  0.9035 -0.1463
14105SOL     OW46102   7.304   9.691   3.329  0.3652 -0.4328  0.1054
14105SOL    HW146103   7.329   9.720   3.242  1.1711 -0.1261  0.4291
14105SOL    HW246104   7.209   9.705   3.333  0.8085  3.4648  0.6957
14106SOL     OW46105   0.247   2.938   0.668 -0.6434 -0.3054 -0.2816
14106SOL    HW146106   0.213   2.984   0.591  0.0601 -0.8104 -0.9065
14106SOL    HW246107   0.252   3.006   0.735 -0.6117  0.3003 -0.8845
14107SOL     OW46108   7.968   3.786   9.896 -0.0729 -0.2423 -0.1527
14107SOL    HW146109   7.904   3.717   9.913 -1.2380  0.2876 -2.0028
14107SOL    HW246110   7.922   3.847   9.839  1.1391  1.7514  0.9152
14108SOL     OW46111   6.200   8.906   0.289  0.4144 -0.1787 -0.1592
14108SOL    HW146112   6.272   8.884   0.348 -1.1318 -0.5429  1.7050
14108SOL    HW246113   6.216   8.997   0.266  2.4597 -0.7629 -1.3517
14109SOL     OW46114   8.689   7.786   8.144 -0.0915  0.4784  0.8166
14109SOL    HW146115   8.748   7.854   8.176 -1.6091  2.2147  0.0640
14109SOL    HW246116   8.674   7.807   8.052 -2.8551  0.8729  1.2802
14110SOL     OW46117   8.600   0.390   7.194 -0.1251 -0.6473 -0.8920
14110SOL    HW146118   8.622   0.465   7.138 -1.5784  0.2846 -0.2801
14110SOL    HW246119   8.682   0.367   7.237  0.3353  0.6565 -1.0359
14111SOL     OW46120   3.703   0.406   4.219  0.0419 -0.0532  0.2014
14111SOL    HW146121   3.665   0.410   4.132 -1.1206 -1.0652  0.6360
14111SOL    HW246122   3.709   0.497   4.248 -0.9561  0.1885 -0.3485
14112SOL     OW46123   2.161   6.076   0.594 -0.2949 -0.7839  0.6546
14112SOL    HW146124   2.172   5.983   0.613 -0.8172 -0.8610  0.5900
14112SOL    HW246125   2.070   6.084   0.564  0.3337 -0.5678 -1.2901
14113SOL     OW46126   5.645   3.786   1.158 -0.0764  0.7023 -0.3118
14113SOL    HW146127   5.672   3.871   1.193 -0.1330 -0.4452  2.8911
14113SOL    HW246128   5.727   3.737   1.148 -0.1597  0.6457 -0.7384
14114SOL     OW46129   2.467   9.415   2.353 -0.3485  0.3259 -0.6431
14114SOL    HW146130   2.444   9.397   2.444 -0.4816  1.3828 -0.4547
14114SOL    HW246131   2.524   9.343   2.328 -1.0958 -0.4980 -0.0320
14115SOL     OW46132   8.651   7.447   2.768  0.1259  0.5404 -0.0979
14115SOL    HW146133   8.600   7.528   2.772 -0.8427 -0.0815  0.4556
14115SOL    HW246134   8.587   7.379   2.745  0.7114 -0.2418  0.5347
14116SOL     OW46135   9.676   6.266   3.094 -0.1943  0.2991  0.0843
14116SOL    HW146136   9.587   6.257   3.060 -0.0784 -2.3593  0.3106
14116SOL    HW246137   9.677   6.213   3.174  1.6770 -0.0084 -0.0881
14117SOL     OW46138   5.416   9.188   5.741 -0.3857  0.0155 -0.3131
14117SOL    HW146139   5.376   9.156   5.660 -0.4166 -0.8486  0.0378
14117SOL    HW246140   5.344   9.231   5.788 -0.4233  0.2978 -0.6195
14118SOL     OW46141   5.075   4.309   7.085  0.5325 -0.2734 -0.1114
14118SOL    HW146142   5.166   4.321   7.109  0.7356 -0.0362 -0.9736
14118SOL    HW246143   5.075   4.308   6.990 -0.4147  0.0887 -0.1251
14119SOL     OW46144   7.364   8.887   1.408 -0.2452 -0.1083 -0.0149
14119SOL    HW146145   7.351   8.938   1.328  2.6830  0.7514 -0.0543
14119SOL    HW246146   7.278   8.886   1.450 -1.1961  1.8883 -1.7424
14120SOL     OW46147   3.027   8.780  10.304 -0.2229  0.8206  0.0510
14120SOL    HW146148   3.063   8.863  10.273 -0.3867  0.2855 -1.7026
14120SOL    HW246149   3.063   8.714  10.245 -2.3082  0.0032 -0.4046
14121SOL     OW46150  10.341   7.154   8.527  0.0702 -0.2793  0.3673
14121SOL    HW146151  10.418   7.206   8.503 -1.9526  2.6746 -0.3405
14121SOL    HW246152  10.268   7.215   8.518 -2.3634 -2.8661  1.2115
14122SOL     OW46153   5.029   0.348   9.629 -0.1924 -0.3303  0.2300
14122SOL    HW146154   5.011   0.335   9.723 -3.6684  0.0364 -0.2321
14122SOL    HW246155   5.015   0.262   9.590 -4.0585  0.4053 -0.4493
14123SOL     OW46156   0.477   4.390   5.592  0.3108 -0.3216 -0.9107
14123SOL    HW146157   0.452   4.381   5.500  0.2937 -2.1409 -0.7595
14123SOL    HW246158   0.572   4.378   5.593  0.5478  1.3550 -0.8626
14124SOL     OW46159   8.713   1.269   3.293  0.5812  0.3694 -0.8994
14124SOL    HW146160   8.778   1.215   3.246 -0.1453  0.6312 -2.2571
14124SOL    HW246161   8.680   1.330   3.227  0.2419  1.4453  0.2250
14125SOL     OW46162   6.759   8.910   9.928  0.3472 -0.4823  0.4010
14125SOL    HW146163   6.669   8.878   9.932 -0.2856  0.7940 -1.7196
14125SOL    HW246164   6.812   8.832   9.909 -0.4433 -1.0864  0.6465
14126SOL     OW46165   1.008   1.518   5.580  0.1271  0.3887 -0.4704
14126SOL    HW146166   1.086   1.476   5.616  1.1553  1.4960 -1.3150
14126SOL    HW246167   0.949   1.529   5.655  1.0126  0.0246  0.2914
14127SOL     OW46168   6.923   5.592   2.896 -0.2960  0.3091 -0.0629
14127SOL    HW146169   6.954   5.512   2.938  1.9699  0.5054 -1.1971
14127SOL    HW246170   6.966   5.663   2.943  0.4760  0.6447 -1.2255
14128SOL     OW46171   6.395   0.234   9.874 -0.1380  0.6486  0.3198
14128SOL    HW146172   6.341   0.201   9.803  1.4053 -1.2346 -0.0664
14128SOL    HW246173   6.459   0.291   9.831 -0.0427  0.5906  0.3855
14129SOL     OW46174   8.653   3.440   0.624  0.1513 -0.1806  0.5084
14129SOL    HW146175   8.566   3.400   0.614 -0.3642  0.9601  0.3201
14129SOL    HW246176   8.677   3.423   0.715 -1.3298  1.5455  1.2634
14130SOL     OW46177   2.186   0.723   3.224 -0.7063  0.0410  0.0716
14130SOL    HW146178   2.222   0.808   3.249 -0.1355  0.6368 -2.4682
14130SOL    HW246179   2.255   0.682   3.172 -2.2347 -0.4724 -1.6649
14131SOL     OW46180   0.477   6.327   8.290 -0.5488 -0.3777  0.3709
14131SOL    HW146181   0.396   6.277   8.287  0.0979 -1.5007  0.6598
14131SOL    HW246182   0.527   6.286   8.362  0.5624 -0.2067 -0.2826
14132SOL     OW46183   7.600   9.220   8.970  0.2358 -0.7490  0.0114
14132SOL    HW146184   7.513   9.218   9.009 -1.3069  0.5236 -3.0727
14132SOL    HW246185   7.605   9.142   8.916  2.3781 -2.5388  2.5286
14133SOL     OW46186   7.025   8.623   0.534 -0.5510  0.4218 -0.3893
14133SOL    HW146187   6.954   8.688   0.531 -1.0700 -0.0517  0.7618
14133SOL    HW246188   7.070   8.641   0.617  0.1801  0.1981 -0.7277
14134SOL     OW46189   6.277   4.829   6.289 -1.1274  0.1486 -0.2850
14134SOL    HW146190   6.334   4.896   6.252 -0.6943 -0.4314 -0.6824
14134SOL    HW246191   6.232   4.792   6.214 -0.4163 -0.8795 -0.2159
14135SOL     OW46192   1.705   4.020   1.854  0.1552 -0.6126  0.5921
14135SOL    HW146193   1.776   4.074   1.820  0.6041 -2.3579 -1.4345
14135SOL    HW246194   1.625   4.065   1.825  0.4643 -0.0042  0.6654
14136SOL     OW46195   2.655   3.571   7.866  0.7362 -0.1929 -0.0261
14136SOL    HW146196   2.659   3.600   7.957  2.0159  0.4534 -0.2669
14136SOL    HW246197   2.735   3.606   7.826 -0.8921  1.5683 -1.9932
14137SOL     OW46198   2.713   5.425   2.155  0.4145  0.0588 -0.2283
14137SOL    HW146199   2.636   5.452   2.105 -0.4316 -1.9656 -0.1219
14137SOL    HW246200   2.700   5.465   2.241 -1.1072 -1.1076  0.1295
14138SOL     OW46201   7.985   6.599   6.853 -0.5954 -0.5109 -0.1677
14138SOL    HW146202   7.956   6.667   6.793  0.9786  0.6913  0.3768
14138SOL    HW246203   7.981   6.639   6.939  0.3838 -1.0970  0.1666
14139SOL     OW46204   3.404  10.248   8.555 -0.4409 -0.0599  0.1629
14139SOL    HW146205   3.489  10.270   8.593 -0.4802  0.8300 -0.2290
14139SOL    HW246206   3.413  10.269   8.462 -0.8143 -0.7875 -0.0448
14140SOL     OW46207   2.500  10.225   5.549 -0.5704  0.0409 -0.4923
14140SOL    HW146208   2.457  10.165   5.488  0.2045 -0.3018 -0.7048
14140SOL    HW246209   2.445  10.221   5.628 -2.1410  1.2236 -1.4633
14141SOL     OW46210   7.032   1.413   5.512  0.2890 -0.6008  0.1155
14141SOL    HW146211   7.108   1.411   5.453  0.1501  2.4317 -0.3320
14141SOL    HW246212   6.967   1.357   5.470  0.7241  0.3302 -1.9232
14142SOL     OW46213  10.013   1.228   8.516 -0.3421 -0.1721 -0.0588
14142SOL    HW146214  10.043   1.145   8.480  3.8693  0.8135  0.6015
14142SOL    HW246215  10.045   1.294   8.454 -2.4591  1.0649  0.0856
14143SOL     OW46216  10.341   2.115   2.898 -0.2798  0.2562 -0.4959
14143SOL    HW146217  10.410   2.177   2.874 -0.7507  0.5879 -0.9907
14143SOL    HW246218  10.267   2.169   2.923  0.2185 -0.0491  1.9314
14144SOL     OW46219   7.475   7.706   4.041  0.1786 -0.0479  0.2151
14144SOL    HW146220   7.379   7.703   4.038  0.1647 -1.1951  1.2349
14144SOL    HW246221   7.495   7.757   4.119  0.4195  0.7978 -0.3838
14145SOL     OW46222   4.140   8.313   5.832  0.7617 -0.4940  0.1758
14145SOL    HW146223   4.179   8.347   5.912  3.6410  0.8306 -1.6552
14145SOL    HW246224   4.079   8.381   5.804 -1.5034 -1.6451  1.9184
14146SOL     OW46225   4.478   5.036   3.396 -0.0820 -0.5701 -0.1707
14146SOL    HW146226   4.557   4.982   3.398  0.0099 -0.4190  0.3708
14146SOL    HW246227   4.503   5.118   3.439 -0.9050 -1.0424  1.2842
14147SOL     OW46228   9.953   1.465   5.685 -0.1008 -0.0401  0.0981
14147SOL    HW146229   9.862   1.471   5.714  0.4418  1.0638  1.6886
14147SOL    HW246230  10.002   1.444   5.764  1.0003 -1.1021 -0.8226
14148SOL     OW46231   5.040   1.478   7.170  0.2110  0.1643 -0.1439
14148SOL    HW146232   4.967   1.539   7.179 -0.0403 -0.0871 -0.4487
14148SOL    HW246233   5.099   1.521   7.108  0.6954  0.7153  0.6818
14149SOL     OW46234   4.411   3.654  10.218  0.0407  0.2941 -0.0852
14149SOL    HW146235   4.389   3.672  10.126  0.1228 -0.8889 -0.3539
14149SOL    HW246236   4.434   3.561  10.219  1.4736  0.6260  0.8667
14150SOL     OW46237   0.817   3.610   5.612  0.6535  0.1154  0.0502
14150SOL    HW146238   0.787   3.697   5.637  1.3913  0.3588  0.1258
14150SOL    HW246239   0.796   3.554   5.687 -1.4221 -0.1650 -0.6860
14151SOL     OW46240   1.670   7.572   2.331  0.0167  0.5961 -0.1141
14151SOL    HW146241   1.692   7.658   2.367 -1.1292  1.0237 -0.4085
14151SOL    HW246242   1.592   7.587   2.278 -0.5706 -0.7581  0.3334
14152SOL     OW46243   5.953   7.408   2.582  0.0973  0.2797 -0.1025
14152SOL    HW146244   6.023   7.473   2.589  1.3926 -1.1323  0.7961
14152SOL    HW246245   5.888   7.437   2.646  0.7490  0.5944  0.4313
14153SOL     OW46246   7.435   1.733   6.376  0.4653  0.1087  0.2447
14153SOL    HW146247   7.371   1.780   6.322  0.8440 -0.7408 -1.0087
14153SOL    HW246248   7.516   1.738   6.325  1.0927  0.1327  1.2324
14154SOL     OW46249   9.180   9.884   1.002  0.5954 -0.1443 -0.3646
14154SOL    HW146250   9.166   9.790   1.015  0.0802 -0.1476 -0.8904
14154SOL    HW246251   9.272   9.891   0.979  1.4286 -0.1861  2.5939
14155SOL     OW46252   9.451   9.590   7.854 -0.0298 -0.3987  0.5939
14155SOL    HW146253   9.517   9.604   7.787 -0.0289 -0.2675  0.6229
14155SOL    HW246254   9.409   9.675   7.865 -0.5039 -0.5840  0.2525
14156SOL     OW46255  10.111   6.916   0.854 -0.4577 -0.3413 -0.7539
14156SOL    HW146256  10.097   6.925   0.948  0.3728  2.0543 -0.7850
14156SOL    HW246257  10.051   6.847   0.827 -0.5391 -1.2512  1.5554
14157SOL     OW46258   8.481   6.278   8.841  0.0519 -0.4884 -0.4433
14157SOL    HW146259   8.432   6.205   8.805  0.0521 -0.4093 -0.6088
14157SOL    HW246260   8.568   6.243   8.858  0.2875 -0.3237 -1.2722
14158SOL     OW46261   5.464   9.837   2.776 -0.1301  0.4830  0.0558
14158SOL    HW146262   5.369   9.831   2.763  0.0702 -2.0967 -0.8653
14158SOL    HW246263   5.477   9.814   2.868 -0.4901  2.9146  0.7618
14159SOL     OW46264   8.758   1.944   2.770  0.8372  0.3333  0.0396
14159SOL    HW146265   8.744   1.893   2.690 -2.3567  1.7025 -0.4281
14159SOL    HW246266   8.723   1.889   2.840  0.4077  0.5325 -0.0142
14160SOL     OW46267   4.301   9.255   4.606  0.0753 -0.1592  0.5810
14160SOL    HW146268   4.296   9.300   4.522  0.5557  1.4106  1.3602
14160SOL    HW246269   4.384   9.284   4.644  0.1846 -1.3600  1.3375
14161SOL     OW46270   0.842   9.686   2.967  0.1949  0.2380  0.1458
14161SOL    HW146271   0.857   9.716   3.057 -0.5309  0.9765  0.0319
14161SOL    HW246272   0.759   9.727   2.941  0.6863  0.5022 -1.0633
14162SOL     OW46273   6.481   7.291   2.569 -0.8869 -0.5476  0.2890
14162SOL    HW146274   6.469   7.291   2.664 -1.8665  0.5615  0.1812
14162SOL    HW246275   6.396   7.316   2.534  0.2385  2.2361 -0.7395
14163SOL     OW46276   7.668   3.420   3.813  0.2384 -0.0025 -0.4556
14163SOL    HW146277   7.738   3.392   3.754  0.6365  1.4458 -0.7057
14163SOL    HW246278   7.692   3.509   3.838 -0.6859 -0.0695  0.7482
14164SOL     OW46279   7.328   8.408   3.757 -0.3074 -0.0113 -0.4573
14164SOL    HW146280   7.353   8.414   3.849  0.6749  0.2047 -0.7302
14164SOL    HW246281   7.387   8.342   3.720 -1.7474 -1.2901 -0.5999
14165SOL     OW46282   5.395   9.857   7.336  0.8411  0.2568  0.1410
14165SOL    HW146283   5.383   9.942   7.378 -2.2053 -0.0420  0.0783
14165SOL    HW246284   5.490   9.845   7.333  1.4907  4.2138 -1.0113
14166SOL     OW46285   6.331  10.310  10.134 -0.1557 -0.5508  0.0025
14166SOL    HW146286   6.367  10.222  10.150  0.3366 -0.1347  1.3104
14166SOL    HW246287   6.348  10.358  10.215  0.6521  1.1130 -1.0944
14167SOL     OW46288   1.728   4.522   1.693  0.0916  0.5760  0.1558
14167SOL    HW146289   1.703   4.512   1.601  1.1768  0.0079 -0.0997
14167SOL    HW246290   1.762   4.611   1.699 -1.6597  1.2559  0.4441
14168SOL     OW46291   0.913   2.679   1.028  0.0343  0.4177  0.3158
14168SOL    HW146292   0.840   2.629   0.990 -1.5911  0.5193  3.0576
14168SOL    HW246293   0.940   2.738   0.958 -2.2194  0.0774 -0.9535
14169SOL     OW46294   5.369   5.628   2.880 -0.0645 -0.3978  0.1313
14169SOL    HW146295   5.285   5.613   2.924 -0.8848 -0.1841 -1.3227
14169SOL    HW246296   5.345   5.658   2.793  1.5327 -1.1519 -0.5892
14170SOL     OW46297   5.903   7.599   1.566  0.1697  0.3586  0.2884
14170SOL    HW146298   5.907   7.504   1.568  1.4671  0.3716 -0.2267
14170SOL    HW246299   5.934   7.622   1.478 -0.0343  1.2538  0.4440
14171SOL     OW46300   9.705   4.936   5.218 -0.1298  0.3218  0.0203
14171SOL    HW146301   9.784   4.902   5.259  1.4425 -0.5886 -3.3762
14171SOL    HW246302   9.722   4.928   5.124 -3.7766  1.3132 -0.8732
14172SOL     OW46303   8.365   9.063   8.520  0.0635  0.1262 -0.0013
14172SOL    HW146304   8.364   9.129   8.451  0.9802  1.1368  0.9111
14172SOL    HW246305   8.411   8.989   8.481 -2.8397 -0.9173 -1.7885
14173SOL     OW46306   5.748   8.226   7.598  0.1707  0.0319 -0.2294
14173SOL    HW146307   5.747   8.320   7.580  2.6807  0.3067  0.7198
14173SOL    HW246308   5.769   8.220   7.691 -0.5263 -1.4895 -0.1488
14174SOL     OW46309   8.072   2.401   2.457 -0.4286 -0.3410 -0.1174
14174SOL    HW146310   8.111   2.486   2.437 -1.8120  0.0631 -1.2625
14174SOL    HW246311   7.985   2.404   2.416 -0.6256 -2.1884  0.0795
14175SOL     OW46312   0.947   5.390   4.954  0.1369  0.3748 -0.1215
14175SOL    HW146313   0.916   5.300   4.969 -0.7059  0.8178  0.8239
14175SOL    HW246314   0.966   5.424   5.041 -3.3113  2.4462 -0.0342
14176SOL     OW46315   3.863  10.265   3.318 -0.4333 -0.4175  0.4172
14176SOL    HW146316   3.920  10.268   3.241 -0.2554 -1.4999  0.5011
14176SOL    HW246317   3.792  10.326   3.298 -1.3362 -1.9581 -1.3609
14177SOL     OW46318   9.005   5.459   3.161  0.1945  0.1825  0.1684
14177SOL    HW146319   9.031   5.409   3.239 -1.5525 -0.7547  0.2046
14177SOL    HW246320   9.075   5.443   3.098  0.2110 -1.4978  0.5480
14178SOL     OW46321   0.184   8.090   1.708 -0.6872 -0.1046  0.3434
14178SOL    HW146322   0.192   8.143   1.788  0.7309  0.9357 -0.4483
14178SOL    HW246323   0.089   8.076   1.699 -0.9855  0.9979  1.4202
14179SOL     OW46324   8.332   8.819   5.874  0.3299  0.2960 -0.1746
14179SOL    HW146325   8.303   8.830   5.784  2.9375  0.8635 -1.0231
14179SOL    HW246326   8.288   8.889   5.922  0.0426  0.9091 -1.3007
14180SOL     OW46327   2.527   7.274   0.963  0.2357  0.1083  0.9236
14180SOL    HW146328   2.553   7.267   0.871  2.0526  0.8405  1.3444
14180SOL    HW246329   2.445   7.225   0.968  0.9630 -1.3897 -0.7195
14181SOL     OW46330   4.682   1.555   0.172  0.3733  0.1287 -0.6343
14181SOL    HW146331   4.714   1.594   0.091  0.6016 -1.9036 -1.5780
14181SOL    HW246332   4.610   1.611   0.199  0.6205  1.1295 -1.9631
14182SOL     OW46333   1.317   2.769   0.632  0.4886 -0.1790  0.0633
14182SOL    HW146334   1.386   2.795   0.571 -0.4469  0.1440 -0.8889
14182SOL    HW246335   1.288   2.683   0.601  1.0591 -0.7437  1.0129
14183SOL     OW46336   4.425   0.723   4.484  0.2146 -0.0355 -0.0165
14183SOL    HW146337   4.365   0.788   4.523  0.1359 -0.7346  1.0636
14183SOL    HW246338   4.369   0.648   4.465  0.6084 -0.3920  0.2424
14184SOL     OW46339   2.041   5.521   6.857  0.0256 -0.0479 -0.2646
14184SOL    HW146340   2.081   5.477   6.782 -0.0469  0.3179 -0.5169
14184SOL    HW246341   2.110   5.524   6.923 -0.5759 -2.5506  0.6073
14185SOL     OW46342   6.159   6.875   5.761 -0.4963  0.0377 -0.0615
14185SOL    HW146343   6.135   6.817   5.689 -0.0288  0.6769 -0.7395
14185SOL    HW246344   6.114   6.957   5.743  0.0941  0.3929  0.0559
14186SOL     OW46345   5.492   8.134   3.056  0.4910  0.4316 -0.0648
14186SOL    HW146346   5.424   8.074   3.027 -0.1745  0.8635  0.5639
14186SOL    HW246347   5.548   8.147   2.979 -0.0846  0.0135 -0.5606
14187SOL     OW46348   2.915   3.136   2.686 -0.2741  0.0863  0.1026
14187SOL    HW146349   2.980   3.173   2.625 -1.2037  1.9511  0.1704
14187SOL    HW246350   2.831   3.166   2.652 -1.1662 -2.3507 -0.0226
14188SOL     OW46351   5.523   8.411   1.269 -0.5154 -0.5016 -0.4765
14188SOL    HW146352   5.616   8.387   1.276 -0.6219 -0.8555 -0.2351
14188SOL    HW246353   5.497   8.378   1.183 -0.3343 -0.1049 -0.6864
14189SOL     OW46354   7.652   5.386   6.916  0.1244 -0.0873 -0.4622
14189SOL    HW146355   7.635   5.313   6.856 -0.9199 -1.1283  1.0477
14189SOL    HW246356   7.740   5.370   6.949 -0.2041 -0.8440  0.0760
14190SOL     OW46357   0.494   3.007   2.089  0.3956 -0.9289 -0.0759
14190SOL    HW146358   0.465   3.037   2.003 -0.1397 -0.2718  0.3321
14190SOL    HW246359   0.511   2.913   2.077  1.2704 -0.6649 -1.1437
14191SOL     OW46360   3.288  10.108   7.714  0.0359  0.3969 -1.0655
14191SOL    HW146361   3.218  10.157   7.757 -0.9399 -0.3506 -1.7217
14191SOL    HW246362   3.302  10.032   7.771 -0.4015  0.0421 -1.4105
14192SOL     OW46363   1.727   1.000   1.885  0.3740 -0.0699 -0.0217
14192SOL    HW146364   1.756   0.918   1.925  0.4814  0.1183  0.2896
14192SOL    HW246365   1.671   1.040   1.951 -1.3781 -0.8640 -0.9487
14193SOL     OW46366   8.032   0.852   5.032 -0.1682  0.1193 -0.4859
14193SOL    HW146367   7.963   0.905   4.993  1.6838  1.8843 -1.5334
14193SOL    HW246368   8.050   0.894   5.116  0.4995  0.4785 -0.7981
14194SOL     OW46369   8.240   9.700   3.018  0.8057  0.2111 -0.2411
14194SOL    HW146370   8.249   9.787   3.056 -1.3824  0.5589 -0.4150
14194SOL    HW246371   8.219   9.716   2.926 -1.8374 -0.3752  0.1848
14195SOL     OW46372   8.703   4.699   4.237 -0.4855  0.3821 -0.1095
14195SOL    HW146373   8.627   4.713   4.181 -2.3826  1.4026  2.5172
14195SOL    HW246374   8.776   4.735   4.188 -1.7129 -0.2483 -2.5728
14196SOL     OW46375   4.036   0.145   8.680  0.4519 -0.1191  0.5921
14196SOL    HW146376   4.028   0.237   8.703  2.4831 -0.3030  2.3988
14196SOL    HW246377   4.130   0.134   8.662  0.1283 -1.6915 -0.2841
14197SOL     OW46378   2.911   0.601   4.505 -0.0790  0.1050  0.0509
14197SOL    HW146379   2.846   0.566   4.444 -0.3874  0.7235  0.0237
14197SOL    HW246380   2.912   0.538   4.578 -1.5353  0.6771  0.5952
14198SOL     OW46381   7.461   8.823   9.247  0.3211  0.0750 -0.2018
14198SOL    HW146382   7.404   8.881   9.297 -0.4525 -0.1942 -0.7661
14198SOL    HW246383   7.504   8.768   9.314  0.3192  0.6236  0.2561
14199SOL     OW46384   3.392   6.574   1.227 -0.5279  0.7087  0.0742
14199SOL    HW146385   3.414   6.511   1.158  2.2544  0.7498  0.8140
14199SOL    HW246386   3.326   6.630   1.187 -0.3430 -0.3846 -1.9183
14200SOL     OW46387   1.115   8.773   6.526 -0.2402 -0.4428  0.1588
14200SOL    HW146388   1.131   8.747   6.436  0.2778  2.7944 -0.8071
14200SOL    HW246389   1.021   8.794   6.528  0.2391  1.9390 -0.4005
14201SOL     OW46390   1.891   7.187   4.619 -0.4386 -0.7757 -0.0048
14201SOL    HW146391   1.805   7.229   4.615 -0.0352 -0.0409 -1.4170
14201SOL    HW246392   1.946   7.250   4.666  0.4656  0.9465 -3.1276
14202SOL     OW46393   5.463   7.657   2.950  0.3085  0.0362 -0.2361
14202SOL    HW146394   5.432   7.578   2.994 -1.8788  0.7577 -0.3810
14202SOL    HW246395   5.452   7.639   2.857  0.9797  0.0753 -0.3309
14203SOL     OW46396   9.583   9.006   5.366 -0.1389  0.2048  0.0767
14203SOL    HW146397   9.567   9.085   5.315 -3.6701  0.1689  0.8322
14203SOL    HW246398   9.590   8.936   5.301  0.6781  0.8292 -0.5139
14204SOL     OW46399   0.768   0.928   2.114  0.5641  0.0877  0.0379
14204SOL    HW146400   0.743   1.002   2.059  0.2416  1.6959  2.2070
14204SOL    HW246401   0.702   0.861   2.096  0.1448  0.7864 -1.0850
14205SOL     OW46402   1.233   7.778   2.287  0.0965 -0.1396 -0.3075
14205SOL    HW146403   1.151   7.808   2.249  0.9806  3.2576  0.2044
14205SOL    HW246404   1.301   7.809   2.227  1.2014  0.5813  1.2390
14206SOL     OW46405   8.075   9.653   7.615 -0.0007  0.0684  0.3836
14206SOL    HW146406   8.161   9.674   7.651 -1.1789  1.2905  2.7754
14206SOL    HW246407   8.092   9.625   7.526  2.8998 -0.1474  0.9042
14207SOL     OW46408  10.259   0.814   0.365  0.0117  0.1783  0.0508
14207SOL    HW146409  10.302   0.882   0.313 -0.1962  0.7580  0.6123
14207SOL    HW246410  10.166   0.823   0.342  0.2729 -2.2799 -2.5711
14208SOL     OW46411   9.184   9.746   0.063  0.1445 -0.0946 -0.1749
14208SOL    HW146412   9.205   9.694  -0.014  1.2537  1.0732 -0.6922
14208SOL    HW246413   9.244   9.714   0.131  0.4693  0.1601 -0.3427
14209SOL     OW46414   9.607   8.295   5.961  0.0439  0.2911  0.5280
14209SOL    HW146415   9.623   8.209   5.924 -0.1902  1.2897 -2.0845
14209SOL    HW246416   9.517   8.292   5.991 -0.2678 -0.1145 -0.4135
14210SOL     OW46417   6.279   7.417   5.190  0.1648  0.1107 -0.4343
14210SOL    HW146418   6.280   7.482   5.261 -2.6798 -0.7668  0.5833
14210SOL    HW246419   6.346   7.353   5.215 -0.5179  0.0194  1.3397
14211SOL     OW46420   3.553   0.257   0.355  0.1349 -0.0951 -0.1697
14211SOL    HW146421   3.621   0.223   0.413 -0.8058  0.2371  1.1711
14211SOL    HW246422   3.560   0.203   0.276  0.4283 -1.6367  0.8623
14212SOL     OW46423   9.270   2.983   1.401 -0.0760  0.4807  0.1239
14212SOL    HW146424   9.311   2.962   1.485  0.4296  1.1343  0.0407
14212SOL    HW246425   9.196   3.039   1.425  0.2203  0.8790  0.1157
14213SOL     OW46426   6.869   9.266   1.783  0.3890  0.6878 -0.2736
14213SOL    HW146427   6.885   9.276   1.689  0.9370  2.0255 -0.0705
14213SOL    HW246428   6.898   9.350   1.821 -1.5614  0.9082  0.8676
14214SOL     OW46429   7.100   5.974   4.873 -0.3419  0.0677  0.0563
14214SOL    HW146430   7.036   5.973   4.944  0.3593  0.8586  0.7125
14214SOL    HW246431   7.062   5.917   4.806 -2.3875  1.5468 -0.1460
14215SOL     OW46432   9.385   8.817   1.887  0.0678  0.3890  0.2606
14215SOL    HW146433   9.400   8.795   1.979 -1.4679  0.9616  0.6901
14215SOL    HW246434   9.295   8.789   1.871 -1.3089  4.2047  0.2743
14216SOL     OW46435   1.615   6.600   6.956 -0.7527 -0.4838  0.0338
14216SOL    HW146436   1.539   6.547   6.933 -0.5382 -1.4326  1.4005
14216SOL    HW246437   1.688   6.538   6.959 -0.1957  0.1654  0.1340
14217SOL     OW46438   8.138   4.886   6.130 -0.8574 -0.0137  0.0359
14217SOL    HW146439   8.051   4.884   6.092  0.3193 -4.3016 -3.2093
14217SOL    HW246440   8.168   4.795   6.127  3.3482  1.0382  2.0048
14218SOL     OW46441   1.961   8.626   4.012 -0.2344  1.0044 -0.0968
14218SOL    HW146442   1.893   8.665   3.957  0.4366  1.7319 -0.4281
14218SOL    HW246443   2.037   8.618   3.954  0.1819  0.8675  0.4634
14219SOL     OW46444   5.600   5.888   6.500  0.2144  0.2983 -0.5309
14219SOL    HW146445   5.589   5.828   6.427  0.5518 -0.1524 -0.2187
14219SOL    HW246446   5.654   5.840   6.563  0.6398  0.9860 -0.3494
14220SOL     OW46447   2.115   8.147   3.651 -0.2793  0.1822  0.7289
14220SOL    HW146448   2.105   8.070   3.707  2.0591 -1.2268 -0.6469
14220SOL    HW246449   2.200   8.135   3.609  0.1746  3.5345  0.4379
14221SOL     OW46450   9.599   1.041   3.422 -0.0724 -0.5941 -0.0436
14221SOL    HW146451   9.601   1.127   3.464 -1.6355  0.6415 -2.2216
14221SOL    HW246452   9.508   1.012   3.431  0.0603 -1.2554 -0.7114
14222SOL     OW46453   5.949   3.263   2.331  0.7320  0.0249 -0.0500
14222SOL    HW146454   5.981   3.349   2.356 -0.4796 -0.3565  3.3108
14222SOL    HW246455   5.861   3.278   2.296  0.6328  0.2024  0.2711
14223SOL     OW46456   7.271   0.425   2.650 -0.8978 -0.6784 -0.0881
14223SOL    HW146457   7.289   0.486   2.578 -0.9280 -0.5994 -0.0297
14223SOL    HW246458   7.239   0.481   2.721 -2.4783 -0.9321 -0.5692
14224SOL     OW46459   6.511   0.357   1.096 -0.6293  0.4002  0.2524
14224SOL    HW146460   6.600   0.347   1.063 -0.3510  1.4788  0.6308
14224SOL    HW246461   6.456   0.354   1.018 -0.1114  1.4202 -0.1704
14225SOL     OW46462   8.346   3.815   2.074  0.4221 -0.6289 -0.4985
14225SOL    HW146463   8.310   3.805   1.986  0.0378  1.7234 -0.6775
14225SOL    HW246464   8.287   3.878   2.116  1.3876 -0.6768  0.9850
14226SOL     OW46465   0.396   8.327   9.830  0.1898 -0.0124 -0.3415
14226SOL    HW146466   0.309   8.290   9.841  0.1653 -0.2701 -1.3354
14226SOL    HW246467   0.386   8.394   9.763  1.1312 -1.4981 -2.0495
14227SOL     OW46468  10.111   7.967   2.319  0.5016 -0.3231 -0.5194
14227SOL    HW146469  10.170   7.960   2.244  1.5018 -1.9622  0.3741
14227SOL    HW246470  10.057   7.888   2.314  1.7272 -1.3410  1.3905
14228SOL     OW46471   0.523   4.704   1.730 -0.0013  0.6420  0.4421
14228SOL    HW146472   0.584   4.659   1.788  0.1604  1.4420  0.8924
14228SOL    HW246473   0.454   4.738   1.788 -1.1266 -0.6048 -0.0918
14229SOL     OW46474   8.765   9.626   8.387 -0.0566  0.4214  0.0030
14229SOL    HW146475   8.837   9.689   8.397 -1.3001  2.1100 -1.1283
14229SOL    HW246476   8.806   9.550   8.346  1.5638  0.2850  1.7643
14230SOL     OW46477   6.755   1.625  10.220  0.4036 -0.1271  0.4314
14230SOL    HW146478   6.674   1.644  10.171  0.2237  0.0488  0.7924
14230SOL    HW246479   6.770   1.532  10.206 -0.3280 -0.3517  1.0325
14231SOL     OW46480   1.690   8.034   8.231  0.6398  0.4724  0.4133
14231SOL    HW146481   1.726   7.947   8.247  1.8303  0.9338  0.4060
14231SOL    HW246482   1.641   8.056   8.310 -0.2098 -0.4438  0.1612
14232SOL     OW46483   8.455   4.065   8.019  0.0995  0.2140 -0.1027
14232SOL    HW146484   8.459   3.976   8.054  1.1068 -0.0899 -0.9513
14232SOL    HW246485   8.361   4.082   8.008 -0.1101 -0.6774  0.2268
14233SOL     OW46486   7.464   5.181   8.845  0.2732  0.3753 -0.2072
14233SOL    HW146487   7.466   5.162   8.751 -1.1662 -1.3910  0.0784
14233SOL    HW246488   7.495   5.271   8.851  0.3968  0.5379 -2.3754
14234SOL     OW46489   7.219   3.145   0.257 -0.6484  0.0199 -0.2572
14234SOL    HW146490   7.133   3.187   0.259 -0.7176 -0.1365  0.6846
14234SOL    HW246491   7.261   3.174   0.338  0.8775  1.4879 -1.4786
14235SOL     OW46492   5.643   3.674   3.512 -0.5666  0.1983  0.3972
14235SOL    HW146493   5.603   3.718   3.586 -1.6255  0.4501 -0.3034
14235SOL    HW246494   5.577   3.612   3.482  0.7451 -1.6558  1.1279
14236SOL     OW46495   8.228   6.442   8.585  0.7481  0.4058 -0.4024
14236SOL    HW146496   8.133   6.441   8.598  1.0863 -0.6647  3.2348
14236SOL    HW246497   8.244   6.520   8.532 -1.9430  2.5913  1.6582
14237SOL     OW46498   7.439   8.561   7.158 -0.1920  0.0299 -0.0254
14237SOL    HW146499   7.459   8.613   7.081 -3.1164 -0.3729 -1.1814
14237SOL    HW246500   7.445   8.470   7.128  1.2846 -0.2444  0.9911
14238SOL     OW46501   2.137  10.330   7.740 -0.7675 -0.8445  0.1632
14238SOL    HW146502   2.094  10.397   7.793 -1.1226  0.4055 -1.6205
14238SOL    HW246503   2.064  10.280   7.701 -0.7178  0.7874 -2.2463
14239SOL     OW46504   4.723   2.201   0.913 -0.0580 -0.0246  0.5959
14239SOL    HW146505   4.781   2.126   0.908 -1.0685 -0.8093  0.3516
14239SOL    HW246506   4.781   2.277   0.905  1.0217 -0.7551  1.2643
14240SOL     OW46507   5.717   8.604   0.121  0.4787  0.5374 -0.0066
14240SOL    HW146508   5.759   8.529   0.162  1.6541  0.0590 -1.9503
14240SOL    HW246509   5.767   8.680   0.153  2.0661  0.0839 -1.2526
14241SOL     OW46510   2.484   9.890   9.102  0.0048  0.5582 -0.0594
14241SOL    HW146511   2.525   9.803   9.104 -0.5139  0.2869  2.6337
14241SOL    HW246512   2.426   9.890   9.178 -0.2702  3.1737 -0.1988
14242SOL     OW46513   4.888   2.896   6.337  0.6055 -0.1726  0.3274
14242SOL    HW146514   4.873   2.808   6.301 -0.3270 -0.3656  1.1356
14242SOL    HW246515   4.863   2.955   6.266 -1.3922 -0.5434  0.6604
14243SOL     OW46516   3.634   2.345   5.123  0.0891 -0.1420 -0.1458
14243SOL    HW146517   3.702   2.407   5.099 -0.8889  0.4662 -1.4352
14243SOL    HW246518   3.682   2.268   5.155  1.3096  1.3362  1.7574
14244SOL     OW46519   6.764   2.655   0.729  0.1851  0.0437 -0.0110
14244SOL    HW146520   6.801   2.734   0.767  1.3869 -1.5059  2.2405
14244SOL    HW246521   6.670   2.674   0.719  0.2290  1.3062  1.6879
14245SOL     OW46522   4.259   7.154   3.644 -0.2933 -0.5046 -0.5535
14245SOL    HW146523   4.295   7.223   3.589 -1.8035  0.8139  0.0540
14245SOL    HW246524   4.191   7.113   3.590 -1.3140  0.3521  0.0359
14246SOL     OW46525   3.443   3.877   1.701  0.2579  0.5991 -0.3156
14246SOL    HW146526   3.432   3.967   1.732  1.3376  0.6202  0.0553
14246SOL    HW246527   3.536   3.860   1.712 -0.3148 -1.4782  2.1496
14247SOL     OW46528   0.973   3.504   7.693 -0.4939  0.2297 -0.5005
14247SOL    HW146529   0.929   3.537   7.771  0.3588  0.2506 -0.0151
14247SOL    HW246530   1.059   3.476   7.724 -0.1443  0.2266 -1.4330
14248SOL     OW46531   3.886   7.609   4.386  0.2230  0.2389 -0.3245
14248SOL    HW146532   3.973   7.587   4.354  0.1440 -0.0916 -0.3097
14248SOL    HW246533   3.838   7.638   4.308 -0.4472 -2.0192 -0.8123
14249SOL     OW46534   2.320   0.587   3.822 -0.4305  0.7634 -0.0598
14249SOL    HW146535   2.321   0.677   3.788 -2.6228  0.5708 -0.7869
14249SOL    HW246536   2.295   0.533   3.747  0.1800 -0.3764  0.5345
14250SOL     OW46537   6.695   4.749   2.977 -0.8760 -0.9058  0.0497
14250SOL    HW146538   6.667   4.774   2.889 -1.3176  3.8227  1.2673
14250SOL    HW246539   6.614   4.745   3.028 -0.3954 -0.2022  0.8990
14251SOL     OW46540   8.203   0.997  10.094 -0.0764  0.1413 -0.0471
14251SOL    HW146541   8.155   1.080  10.102 -0.8128 -0.3999  1.4751
14251SOL    HW246542   8.150   0.944  10.034  1.2034  1.2626 -2.3330
14252SOL     OW46543   3.536   5.202   1.809 -0.2071  0.2606  0.5989
14252SOL    HW146544   3.566   5.140   1.876  1.2348  1.6839  1.3355
14252SOL    HW246545   3.612   5.258   1.793 -0.3132 -0.3505 -2.6543
14253SOL     OW46546   1.831   5.956   6.484  0.3714 -0.1214  0.8916
14253SOL    HW146547   1.833   5.974   6.390  1.3903 -0.0237  0.9144
14253SOL    HW246548   1.806   5.864   6.491  0.7426 -0.2592  0.4903
14254SOL     OW46549   9.667   5.389   4.571 -0.1212 -0.3685  0.2385
14254SOL    HW146550   9.708   5.407   4.487  0.2197  0.9985  0.6660
14254SOL    HW246551   9.713   5.311   4.604  0.4374 -0.3165 -0.3894
14255SOL     OW46552   5.541   2.488   3.099  0.0504  0.3931  0.0383
14255SOL    HW146553   5.556   2.408   3.150  0.6238  0.8333  0.5769
14255SOL    HW246554   5.525   2.555   3.165 -0.5827  0.6987 -0.4162
14256SOL     OW46555   3.553   5.859   5.775  0.0673  0.1951 -0.0219
14256SOL    HW146556   3.632   5.913   5.778 -0.2238  0.5862  2.6914
14256SOL    HW246557   3.585   5.769   5.785  0.2509  0.1783 -0.6631
14257SOL     OW46558   0.254   0.637   2.020  0.1853  0.4121 -0.0489
14257SOL    HW146559   0.311   0.592   1.957 -0.8668 -0.4083 -0.4287
14257SOL    HW246560   0.259   0.583   2.099  0.1636  0.5004  0.0125
14258SOL     OW46561   1.682   6.085   7.745  0.0901  0.1120  0.2936
14258SOL    HW146562   1.707   6.177   7.736  2.3036 -0.5151 -0.5621
14258SOL    HW246563   1.669   6.055   7.654  1.7613 -0.9773  0.3660
14259SOL     OW46564   4.317  10.269   2.220 -0.2493  0.3688 -0.0764
14259SOL    HW146565   4.348  10.265   2.310  0.4434 -1.0080 -0.3600
14259SOL    HW246566   4.264  10.349   2.217  0.4311  0.9071  1.3145
14260SOL     OW46567   8.595   9.239   9.008  0.0610 -0.2284  0.0023
14260SOL    HW146568   8.655   9.313   9.017  0.3701 -0.4442 -0.2456
14260SOL    HW246569   8.549   9.257   8.926 -0.3851  0.0548  0.3077
14261SOL     OW46570   9.180   6.612   0.037 -0.0399  0.3753 -0.7545
14261SOL    HW146571   9.256   6.563   0.069 -1.0632 -0.8274 -0.1092
14261SOL    HW246572   9.155   6.568  -0.045 -0.4297  0.3745 -0.6360
14262SOL     OW46573   3.739   9.606   7.289  0.1437  0.4930 -0.1231
14262SOL    HW146574   3.672   9.593   7.222  0.6130 -0.3931 -0.4349
14262SOL    HW246575   3.727   9.532   7.349 -0.2398  1.2508  0.7549
14263SOL     OW46576   6.041   4.403   0.976 -0.1623 -0.0204  0.0969
14263SOL    HW146577   6.080   4.490   0.971 -1.1478  0.3966 -0.6069
14263SOL    HW246578   5.965   4.407   0.918 -0.3798 -1.2688  0.2642
14264SOL     OW46579   4.019   3.399   2.221  0.6830  0.4579  0.4225
14264SOL    HW146580   4.027   3.494   2.224 -0.8903  0.7770 -2.0451
14264SOL    HW246581   3.944   3.380   2.277  1.2451  0.5997  1.2405
14265SOL     OW46582   8.691   5.203   1.256  0.7480 -0.1839 -0.5815
14265SOL    HW146583   8.695   5.292   1.222  1.4258 -0.4459 -1.2317
14265SOL    HW246584   8.782   5.179   1.272  0.5081 -0.4310  0.5081
14266SOL     OW46585   7.769   7.644   9.115  0.1851 -0.2547 -0.1052
14266SOL    HW146586   7.823   7.695   9.176  0.6613 -0.6627 -0.1754
14266SOL    HW246587   7.705   7.706   9.081 -0.7758 -0.2546  1.6078
14267SOL     OW46588   7.287   6.765   2.896 -0.3083  0.2464 -0.3081
14267SOL    HW146589   7.324   6.699   2.837  4.1857  2.6381 -0.5922
14267SOL    HW246590   7.307   6.732   2.984 -0.1254  0.1622 -0.3803
14268SOL     OW46591   8.828   1.408   4.827  0.2229  0.0836 -0.3618
14268SOL    HW146592   8.751   1.433   4.877 -0.5456 -1.9374 -0.4691
14268SOL    HW246593   8.851   1.487   4.777  0.0206  1.6298  1.8494
14269SOL     OW46594   3.371   9.961   2.792  0.2251 -0.3096  0.0948
14269SOL    HW146595   3.353   9.874   2.827  0.2428 -0.2252  0.3207
14269SOL    HW246596   3.337   9.959   2.703  1.4702 -0.9963 -0.3912
14270SOL     OW46597   0.004   2.283   3.515  0.4229 -0.7353 -0.4141
14270SOL    HW146598   0.077   2.253   3.569 -0.5707 -0.3164  1.2624
14270SOL    HW246599  -0.005   2.376   3.536  0.8634 -0.1943 -2.4058
14271SOL     OW46600  10.295   2.919   6.800 -0.4601  0.1597 -0.1698
14271SOL    HW146601  10.327   2.888   6.715 -2.2166 -0.1668 -0.7512
14271SOL    HW246602  10.363   2.980   6.830  1.3399 -1.4840 -0.6754
14272SOL     OW46603   3.378   3.449   4.442 -0.0772 -0.4114 -0.2718
14272SOL    HW146604   3.322   3.410   4.374 -0.1108 -1.0893  0.1381
14272SOL    HW246605   3.348   3.409   4.524  0.2276  0.1032  0.0979
14273SOL     OW46606   9.794   3.704   6.923 -0.3817  0.7179 -0.5005
14273SOL    HW146607   9.810   3.653   6.844  2.3647  0.4769  0.1097
14273SOL    HW246608   9.801   3.795   6.894  0.4969  0.6315 -0.6041
14274SOL     OW46609   6.123   3.010   0.559 -0.3960 -0.0832  0.1202
14274SOL    HW146610   6.098   3.078   0.496 -1.1282  0.7246  1.2377
14274SOL    HW246611   6.177   2.949   0.508  0.3463  1.3628 -0.9066
14275SOL     OW46612   5.701   8.709   3.620  0.4113 -0.5517  0.3772
14275SOL    HW146613   5.680   8.654   3.545 -0.7274  0.2139  0.1147
14275SOL    HW246614   5.616   8.738   3.653  0.9925  2.0199 -0.2122
14276SOL     OW46615   5.213   7.736   2.607 -0.1721 -0.2211  0.0574
14276SOL    HW146616   5.190   7.702   2.521  2.3853 -1.3676 -0.2842
14276SOL    HW246617   5.151   7.806   2.623 -1.0474 -0.3158 -2.4901
14277SOL     OW46618   4.447   4.895   6.719 -0.1076 -0.3878 -0.2086
14277SOL    HW146619   4.418   4.975   6.763  0.5374 -0.4966  0.4332
14277SOL    HW246620   4.395   4.892   6.639 -2.2952 -0.8767  1.1343
14278SOL     OW46621   7.465   4.621   9.230  0.1454 -0.1055 -0.4841
14278SOL    HW146622   7.446   4.712   9.255  0.0701 -0.3391  0.3262
14278SOL    HW246623   7.531   4.592   9.293 -1.1717 -1.1979  0.4668
14279SOL     OW46624   9.340   1.521   4.149  0.0031 -0.3657  0.4233
14279SOL    HW146625   9.245   1.512   4.151  0.0928 -1.4494  0.0448
14279SOL    HW246626   9.363   1.517   4.056  0.4231 -0.0854  0.5101
14280SOL     OW46627   4.441   1.443   5.742 -0.3787 -0.1050 -0.3087
14280SOL    HW146628   4.500   1.372   5.765 -0.9550 -0.9125 -1.2726
14280SOL    HW246629   4.388   1.457   5.822  0.2941 -0.1750  0.1549
14281SOL     OW46630   3.071   1.319   3.624  0.9671  0.2313 -0.5465
14281SOL    HW146631   3.043   1.390   3.682  0.3834 -1.4372  1.3241
14281SOL    HW246632   2.991   1.269   3.607  0.9692  1.0808 -3.4880
14282SOL     OW46633   9.856   1.867   6.263 -0.1205  0.2397  0.2756
14282SOL    HW146634   9.889   1.853   6.174 -0.6073 -1.5537  0.3479
14282SOL    HW246635   9.808   1.950   6.257  0.5171  0.5569 -0.9350
14283SOL     OW46636   3.753   6.205   2.985 -0.0826 -0.2209  0.2149
14283SOL    HW146637   3.745   6.299   2.971 -0.2546 -0.1534  0.7319
14283SOL    HW246638   3.757   6.195   3.080  1.2742 -0.6261  0.1354
14284SOL     OW46639   8.325   8.140   3.264 -0.4257  0.6606 -0.3196
14284SOL    HW146640   8.387   8.078   3.225 -0.2603  1.1619 -0.8706
14284SOL    HW246641   8.301   8.198   3.192 -1.0555  0.8596  0.0417
14285SOL     OW46642   1.644   8.304   0.020  0.3534  0.1804 -0.5439
14285SOL    HW146643   1.636   8.393  -0.013 -1.3293  0.2377 -0.0744
14285SOL    HW246644   1.652   8.314   0.115 -0.1977 -0.1734 -0.4558
14286SOL     OW46645   4.263   6.599   7.866  0.1364  0.1274  0.3164
14286SOL    HW146646   4.256   6.606   7.961  0.0603  1.1050  0.2472
14286SOL    HW246647   4.205   6.667   7.832 -0.7844 -1.0027 -0.4520
14287SOL     OW46648   4.156   5.662   0.227 -0.2597 -0.5574  0.1365
14287SOL    HW146649   4.178   5.752   0.250  0.2724 -0.8611  0.9033
14287SOL    HW246650   4.209   5.643   0.150 -0.4939 -0.1619 -0.1210
14288SOL     OW46651   1.542   3.460   7.018  0.6051  0.1711 -0.9682
14288SOL    HW146652   1.502   3.539   7.053 -0.5205 -0.6752 -0.2584
14288SOL    HW246653   1.518   3.391   7.081  1.2972 -0.7830 -1.7188
14289SOL     OW46654   1.786   9.747   1.731  0.1151 -0.1163 -0.2457
14289SOL    HW146655   1.852   9.801   1.773  0.3201 -0.9291  0.4860
14289SOL    HW246656   1.820   9.658   1.735 -0.8727 -0.5086 -0.1493
14290SOL     OW46657   9.466   5.759   5.288 -0.2581  0.0875 -0.0096
14290SOL    HW146658   9.560   5.748   5.278 -0.2575  0.2766 -0.2050
14290SOL    HW246659   9.434   5.778   5.200 -0.3802  0.7440  0.1768
14291SOL     OW46660   6.972   2.248   3.827  0.3533  0.1039  0.3900
14291SOL    HW146661   6.977   2.205   3.912  2.0574 -0.5283  0.0062
14291SOL    HW246662   6.884   2.286   3.824  0.1825 -0.0600  2.3271
14292SOL     OW46663   9.743   4.739   9.328 -0.0394  0.1383 -0.0622
14292SOL    HW146664   9.796   4.723   9.250 -1.1305 -1.0987 -0.5853
14292SOL    HW246665   9.659   4.698   9.309 -0.7369  0.8731  1.2934
14293SOL     OW46666   7.643   3.904   8.288 -0.6237  0.4055  0.3105
14293SOL    HW146667   7.603   3.933   8.206 -0.4662  2.6501  0.9520
14293SOL    HW246668   7.710   3.971   8.307  0.7115 -1.1187  1.2804
14294SOL     OW46669   0.212   6.236   4.655 -0.3491 -0.0032  0.2327
14294SOL    HW146670   0.151   6.285   4.712  0.8170  0.3729  1.1941
14294SOL    HW246671   0.193   6.144   4.674 -0.2000  0.1162  1.0068
14295SOL     OW46672   9.917   5.986   9.867 -0.4551  0.1917  0.1167
14295SOL    HW146673   9.908   6.013   9.959 -0.8723 -0.6207  0.3242
14295SOL    HW246674   9.979   6.049   9.830  0.3302  0.0623  1.1542
14296SOL     OW46675   6.068   7.257   0.557 -0.2568  0.9973 -0.2434
14296SOL    HW146676   6.030   7.335   0.596 -1.6563  0.2795 -0.1011
14296SOL    HW246677   6.068   7.274   0.462  0.2155  1.4849 -0.1589
14297SOL     OW46678   3.732   1.130   5.059  0.3065  0.1375 -0.7709
14297SOL    HW146679   3.680   1.087   5.126  0.5785 -0.4729 -0.9502
14297SOL    HW246680   3.668   1.159   4.993  0.0355  0.7768 -0.2416
14298SOL     OW46681   6.987   6.409   7.718 -0.4991  0.1523  0.1575
14298SOL    HW146682   6.902   6.400   7.761 -0.6456  0.1817 -0.1226
14298SOL    HW246683   7.051   6.383   7.785 -0.8406 -2.0483 -0.2844
14299SOL     OW46684   3.697   0.418   8.004 -0.3514 -0.0292 -0.2241
14299SOL    HW146685   3.634   0.490   7.999  0.0200  0.2441 -1.3507
14299SOL    HW246686   3.703   0.386   7.914 -1.4379 -2.3073  0.4429
14300SOL     OW46687   7.812   4.321   5.647  0.1420  0.1628  0.1053
14300SOL    HW146688   7.902   4.352   5.650 -0.3333  1.7708 -1.0971
14300SOL    HW246689   7.771   4.359   5.725  0.7180 -1.4519  1.2520
14301SOL     OW46690  10.072   4.994   3.004  0.1081 -0.8355 -0.7664
14301SOL    HW146691  10.022   4.965   3.081  1.1066  0.2576  0.3537
14301SOL    HW246692  10.010   4.990   2.932 -1.0403 -1.3336  0.2180
14302SOL     OW46693   4.463   4.396   1.333 -0.1080  0.2469  0.6019
14302SOL    HW146694   4.470   4.468   1.271  1.5804 -0.6025 -0.2728
14302SOL    HW246695   4.553   4.366   1.346 -0.8011 -2.3794  0.0889
14303SOL     OW46696   0.729   4.901   5.729 -0.5743  0.2827 -0.3436
14303SOL    HW146697   0.796   4.909   5.796 -0.7319  0.3255 -0.1918
14303SOL    HW246698   0.738   4.981   5.676  0.2127 -0.2113 -0.9842
14304SOL     OW46699   8.400   4.487   7.328 -0.2098  0.2004 -0.4635
14304SOL    HW146700   8.378   4.565   7.379  0.9462  0.6825 -0.6798
14304SOL    HW246701   8.373   4.413   7.383 -1.1115  0.7332 -0.1667
14305SOL     OW46702   9.339   7.092   4.219 -0.3484 -0.8418 -0.2977
14305SOL    HW146703   9.368   7.163   4.161 -2.0839 -0.7241 -1.0792
14305SOL    HW246704   9.290   7.135   4.288  0.9844 -1.0650  0.8254
14306SOL     OW46705   2.556   4.437   4.316 -0.3646 -0.3924  0.7637
14306SOL    HW146706   2.618   4.434   4.243 -2.3173  0.9447 -1.0749
14306SOL    HW246707   2.537   4.345   4.335 -0.8027 -0.7915 -1.3593
14307SOL     OW46708   5.261   2.687   9.070 -0.1404  0.6474 -0.2104
14307SOL    HW146709   5.318   2.746   9.020 -1.0312  2.1155  0.4634
14307SOL    HW246710   5.200   2.653   9.005  1.5747 -1.1219 -0.9894
14308SOL     OW46711   0.815   7.759   3.843 -0.1817 -0.1049  0.8257
14308SOL    HW146712   0.764   7.768   3.923 -0.1197  1.2762  0.7205
14308SOL    HW246713   0.837   7.848   3.817 -0.9904 -0.4311 -1.2490
14309SOL     OW46714   9.645   6.337   0.548  0.4267 -0.5155 -0.1301
14309SOL    HW146715   9.582   6.282   0.595 -0.7865 -0.0924 -1.2149
14309SOL    HW246716   9.730   6.306   0.579 -0.2452  0.9490  3.8074
14310SOL     OW46717   9.044   9.011   5.903 -0.0395  0.0219  0.6387
14310SOL    HW146718   8.992   9.036   5.980 -0.3164 -1.5454  1.0000
14310SOL    HW246719   8.984   9.020   5.830 -0.6915 -1.2280  0.9853
14311SOL     OW46720   4.791   0.099   6.801 -0.6931  0.4535 -0.6708
14311SOL    HW146721   4.778   0.023   6.745 -1.6232  0.4901 -0.5300
14311SOL    HW246722   4.702   0.129   6.821 -0.4642 -0.3817  1.9455
14312SOL     OW46723   0.132   7.147   1.493 -0.0103  0.7978  0.1367
14312SOL    HW146724   0.064   7.209   1.469 -0.8219  0.2730  1.0180
14312SOL    HW246725   0.088   7.062   1.496  0.4906  0.5591  1.4485
14313SOL     OW46726   4.880   5.192   9.704  0.0747  0.9229 -0.2519
14313SOL    HW146727   4.849   5.192   9.795 -0.6032 -0.6969 -0.4500
14313SOL    HW246728   4.969   5.156   9.709  0.2260  1.3054 -0.1774
14314SOL     OW46729   8.169   1.939   5.267 -0.2586 -0.2330  0.0130
14314SOL    HW146730   8.222   1.861   5.253 -1.1620 -1.1130  1.3264
14314SOL    HW246731   8.143   1.967   5.179  1.4655 -0.3912 -0.5881
14315SOL     OW46732   1.810   5.194   8.157  0.2184  0.3228 -0.3095
14315SOL    HW146733   1.760   5.146   8.224  0.3952 -1.3532 -1.3244
14315SOL    HW246734   1.748   5.203   8.084  0.3720  1.1786 -0.3431
14316SOL     OW46735   5.481   9.371   1.702 -0.2814  0.0131  0.2616
14316SOL    HW146736   5.558   9.391   1.649 -0.4334  0.0721  0.0615
14316SOL    HW246737   5.425   9.320   1.643 -0.7883  0.7311  0.1163
14317SOL     OW46738   1.127   2.349  10.209 -0.1795 -0.2003 -0.3602
14317SOL    HW146739   1.054   2.311  10.160 -0.7183  0.0410  0.2408
14317SOL    HW246740   1.200   2.349  10.147 -0.1176 -2.3040 -0.3548
14318SOL     OW46741   8.829   5.980   1.721  0.1503 -0.0310  0.1192
14318SOL    HW146742   8.868   6.062   1.754  0.4001 -0.2822  0.4534
14318SOL    HW246743   8.850   5.915   1.788 -2.1750  0.1256  1.0782
14319SOL     OW46744   7.213   8.555   2.662 -0.1600 -0.1990  0.2038
14319SOL    HW146745   7.190   8.603   2.742 -0.1817 -0.9397  0.6577
14319SOL    HW246746   7.247   8.471   2.694 -0.5683 -0.6732 -0.5724
14320SOL     OW46747   6.015   7.335   8.246 -0.1531 -0.1573  0.3768
14320SOL    HW146748   5.989   7.386   8.322 -1.6559 -0.3539  0.0285
14320SOL    HW246749   6.111   7.340   8.245 -0.1972  1.8201  0.9190
14321SOL     OW46750   4.918   3.308   5.992 -0.1115  0.5998 -0.4701
14321SOL    HW146751   4.924   3.396   5.956 -0.4578  0.7362 -0.2034
14321SOL    HW246752   4.987   3.305   6.059 -0.6288  0.9511  0.0932
14322SOL     OW46753   4.696   0.307   9.835 -0.2766  0.1240  0.3492
14322SOL    HW146754   4.663   0.332   9.748 -0.6340  1.5126  0.8593
14322SOL    HW246755   4.686   0.386   9.888  0.4558 -0.5401  1.5175
14323SOL     OW46756   0.344   1.925   3.051 -0.4715 -0.0764  0.3020
14323SOL    HW146757   0.345   1.988   3.123  0.8124  0.7359 -0.3898
14323SOL    HW246758   0.388   1.847   3.087 -1.1292 -0.2122  0.8299
14324SOL     OW46759   5.443   0.717   7.723  0.4953  0.1268 -0.2436
14324SOL    HW146760   5.427   0.737   7.815 -2.6436 -0.4608 -0.5467
14324SOL    HW246761   5.417   0.796   7.676 -0.3047 -0.4155 -0.7386
14325SOL     OW46762   4.414   4.284   2.370 -1.1607  0.4337 -0.1760
14325SOL    HW146763   4.328   4.323   2.382 -1.5190  0.7077 -2.9795
14325SOL    HW246764   4.439   4.307   2.281  1.7840  0.2435  0.4860
14326SOL     OW46765   7.592   7.332   5.499 -0.2506  0.6089 -0.1300
14326SOL    HW146766   7.624   7.360   5.413 -1.6091  2.4925 -0.0949
14326SOL    HW246767   7.501   7.307   5.483 -0.1154 -0.3468  0.5353
14327SOL     OW46768   2.132   1.349   6.034  0.3797  0.2936 -0.1255
14327SOL    HW146769   2.059   1.341   6.095  0.5166 -2.4154 -0.1835
14327SOL    HW246770   2.141   1.262   5.996  3.4439  0.5888 -0.3450
14328SOL     OW46771   3.468  10.343   5.565 -0.0570  0.3836 -0.4872
14328SOL    HW146772   3.450  10.311   5.654  0.1080  0.2662 -0.4943
14328SOL    HW246773   3.518  10.423   5.578  1.4653 -0.5264 -0.4722
14329SOL     OW46774   7.025   7.539   2.699  0.2243 -0.1258 -0.2263
14329SOL    HW146775   6.982   7.618   2.665 -0.8104 -0.7218 -0.3451
14329SOL    HW246776   7.114   7.567   2.719 -0.3566  1.2830  0.5117
14330SOL     OW46777   4.835   6.160   7.935  0.3049 -0.3119  0.3654
14330SOL    HW146778   4.912   6.109   7.959  0.0869 -1.0587 -0.4626
14330SOL    HW246779   4.819   6.218   8.010  0.9779 -0.9677  1.0210
14331SOL     OW46780   0.308   7.268   3.504  0.1442  0.2105  0.0595
14331SOL    HW146781   0.288   7.310   3.420 -0.0174 -0.3962 -0.2133
14331SOL    HW246782   0.227   7.224   3.529  0.3296  0.0003  0.2997
14332SOL     OW46783   2.428   3.977   8.982  0.4399  0.4067  0.2006
14332SOL    HW146784   2.490   3.999   8.912  0.2204 -0.8372 -0.4027
14332SOL    HW246785   2.404   4.062   9.020  2.1049  0.9509  0.1034
14333SOL     OW46786   5.185   3.007   8.212 -0.2802  0.0493 -0.0660
14333SOL    HW146787   5.110   3.044   8.165  0.3945  0.2489 -1.0396
14333SOL    HW246788   5.160   3.011   8.304 -1.6309 -0.2931 -0.3897
14334SOL     OW46789   5.009   7.431   4.181  0.4954 -0.1588  0.1261
14334SOL    HW146790   4.961   7.486   4.243 -0.4134  0.6848 -1.2627
14334SOL    HW246791   4.941   7.376   4.142  0.9236 -0.1256 -0.6718
14335SOL     OW46792   7.283   3.248   5.016 -0.1794 -0.2091  0.0728
14335SOL    HW146793   7.190   3.224   5.022 -0.4793  0.0763 -2.4488
14335SOL    HW246794   7.285   3.340   5.043 -0.9825  0.3417 -1.6067
14336SOL     OW46795   3.775   9.755   2.234 -0.1401  0.0837 -0.0068
14336SOL    HW146796   3.745   9.715   2.153 -0.6114  1.6926 -0.6728
14336SOL    HW246797   3.696   9.795   2.272  0.2672  0.2190  0.7185
14337SOL     OW46798   2.828   4.691   4.626  0.1355 -0.0271  0.5362
14337SOL    HW146799   2.893   4.622   4.636 -0.5333 -1.1450 -1.9938
14337SOL    HW246800   2.751   4.657   4.672  0.0530 -0.6385 -0.0332
14338SOL     OW46801   4.226   0.769   5.870 -0.8515  0.4795 -0.0513
14338SOL    HW146802   4.218   0.752   5.963 -2.0214  0.1453 -0.1862
14338SOL    HW246803   4.316   0.800   5.858  0.4375 -2.6456  0.6885
14339SOL     OW46804   7.576   2.599   9.801  0.1280  0.3639  0.7467
14339SOL    HW146805   7.528   2.616   9.719  0.0249  2.6773  1.2328
14339SOL    HW246806   7.668   2.601   9.775  0.0812  0.5796  0.5876
14340SOL     OW46807   6.027   2.705   8.314  0.3278  0.3876  0.5639
14340SOL    HW146808   6.062   2.641   8.375 -1.3943  0.6341  1.8810
14340SOL    HW246809   5.956   2.659   8.269 -0.5087  1.1716  1.0688
14341SOL     OW46810   3.881   9.389   4.123  0.5114 -0.1711 -0.3289
14341SOL    HW146811   3.789   9.365   4.128  0.2898  0.3368 -1.6419
14341SOL    HW246812   3.927   9.318   4.168 -0.3496 -1.6250 -1.6403
14342SOL     OW46813  10.082   1.070   7.099  0.2070 -0.1904 -0.3763
14342SOL    HW146814  10.133   1.102   7.024  1.2232  0.9793  0.7649
14342SOL    HW246815  10.109   1.126   7.172 -2.0902 -0.0861  0.4841
14343SOL     OW46816   5.447   3.868   5.141  0.0507 -0.0400 -0.1412
14343SOL    HW146817   5.414   3.864   5.231  1.7087 -2.4251  0.4508
14343SOL    HW246818   5.390   3.810   5.091 -1.3166  1.8280 -0.8844
14344SOL     OW46819   2.820   8.444   6.809 -0.4605 -0.3046  0.5431
14344SOL    HW146820   2.772   8.367   6.843 -0.4958  0.0536  1.3270
14344SOL    HW246821   2.912   8.424   6.825 -0.0326 -2.0801 -3.1418
14345SOL     OW46822   0.559   1.673   2.929  0.1906 -0.4181 -0.2033
14345SOL    HW146823   0.480   1.685   2.876 -0.8934  0.2056  1.4586
14345SOL    HW246824   0.626   1.724   2.884  0.0286 -1.9911 -2.3493
14346SOL     OW46825   2.595   9.461   4.603  0.1971  0.1411  0.2344
14346SOL    HW146826   2.542   9.535   4.573  0.8406 -0.0443 -1.4007
14346SOL    HW246827   2.537   9.385   4.594  0.5097  0.0331 -0.9224
14347SOL     OW46828   1.850   3.227   1.475  0.2364 -0.1095 -0.4114
14347SOL    HW146829   1.924   3.283   1.450 -1.5143  1.4314 -2.4855
14347SOL    HW246830   1.775   3.287   1.479 -1.2308 -1.8943 -0.0175
14348SOL     OW46831   1.633   8.066   4.013 -0.4322 -0.1357  0.3854
14348SOL    HW146832   1.550   8.029   4.041 -1.0785  1.4763  0.6533
14348SOL    HW246833   1.652   8.136   4.075  0.6363  0.1731 -0.2498
14349SOL     OW46834  10.264   7.756  10.095  0.1285 -0.5731 -0.6358
14349SOL    HW146835  10.233   7.676  10.052 -1.8011  0.5095 -1.3845
14349SOL    HW246836  10.203   7.824  10.067 -0.5365  0.4886  2.8710
14350SOL     OW46837   5.026   7.752   3.374 -0.2120  0.1149 -0.1119
14350SOL    HW146838   5.019   7.809   3.450  0.6101 -1.1482  0.9576
14350SOL    HW246839   5.060   7.809   3.305 -1.7737  1.4781  0.1811
14351SOL     OW46840   1.824   2.576   3.682  0.6085 -0.2351  0.2350
14351SOL    HW146841   1.792   2.520   3.753  0.0958  0.7429  0.7795
14351SOL    HW246842   1.747   2.596   3.630  0.5810  0.8346  0.6579
14352SOL     OW46843   1.185   1.062   1.116 -0.6041  0.1962 -0.2573
14352SOL    HW146844   1.154   1.043   1.204 -2.1394  0.3817 -0.7166
14352SOL    HW246845   1.114   1.033   1.059  0.2020  0.4173 -1.4107
14353SOL     OW46846  10.278   4.948   8.721  0.4032  0.3197 -0.5256
14353SOL    HW146847  10.304   4.861   8.750  1.7774  1.0622  0.6409
14353SOL    HW246848  10.184   4.953   8.739 -0.0334 -1.4089 -2.0364
14354SOL     OW46849   9.295   6.023   3.006 -0.2030 -0.4105  0.2030
14354SOL    HW146850   9.258   6.011   2.918  1.7268  0.6905 -0.8134
14354SOL    HW246851   9.233   6.082   3.049 -1.1171 -0.8723 -0.4285
14355SOL     OW46852   3.186   4.011   2.463  0.4905  0.1364  0.1881
14355SOL    HW146853   3.220   4.056   2.386 -1.8957 -0.2885 -1.1893
14355SOL    HW246854   3.209   3.919   2.450  1.5375  0.2925  0.8387
14356SOL     OW46855   5.534   4.829   2.995  0.4482  0.4620 -0.0848
14356SOL    HW146856   5.510   4.858   3.083  0.7908  0.1279  0.1200
14356SOL    HW246857   5.629   4.824   2.996  0.4532  0.4359 -0.4720
14357SOL     OW46858   4.077   2.043   6.695  0.0183 -0.4669 -0.3345
14357SOL    HW146859   4.048   2.024   6.784  1.6377 -2.9745 -0.2399
14357SOL    HW246860   4.153   2.101   6.706 -1.6864  1.9233 -0.3439
14358SOL     OW46861   2.120   9.471   5.384 -0.4600  0.3091 -0.3993
14358SOL    HW146862   2.159   9.517   5.459 -0.3237  0.4001 -0.5260
14358SOL    HW246863   2.055   9.532   5.350 -0.5169  0.2707 -0.3594
14359SOL     OW46864   0.149   3.606  10.238 -0.3056 -0.1541  0.1353
14359SOL    HW146865   0.063   3.635  10.207 -0.8473 -0.9114  0.8700
14359SOL    HW246866   0.197   3.584  10.159 -0.4514  1.1309 -0.3482
14360SOL     OW46867   9.206   5.994   3.580  0.9151 -0.0655  0.3815
14360SOL    HW146868   9.148   5.919   3.565  1.0046  0.1918 -1.5177
14360SOL    HW246869   9.151   6.070   3.565  1.1375  0.2440  1.0762
14361SOL     OW46870   1.807   3.691   9.595 -0.2317 -0.3158  0.1806
14361SOL    HW146871   1.811   3.595   9.590  1.5920 -0.3603  1.3709
14361SOL    HW246872   1.742   3.709   9.663 -0.8109 -0.6879 -0.2660
14362SOL     OW46873   2.455   8.230  10.129  0.3527 -0.2400 -0.1568
14362SOL    HW146874   2.429   8.238  10.221  1.7699 -1.9830  0.4578
14362SOL    HW246875   2.546   8.198  10.133  1.7243  2.9523 -2.1628
14363SOL     OW46876   9.348   1.637   2.824 -0.3824  0.3442 -0.2201
14363SOL    HW146877   9.354   1.647   2.729 -1.0587  0.4986 -0.2547
14363SOL    HW246878   9.358   1.543   2.839  0.6634  0.4253 -0.3551
14364SOL     OW46879  10.174   8.695   6.856 -0.0680  0.5738 -0.2441
14364SOL    HW146880  10.118   8.729   6.926  0.2068  0.4627  0.0326
14364SOL    HW246881  10.217   8.772   6.821 -0.5340  0.6849 -0.5870
14365SOL     OW46882   0.170   1.893   4.933  0.2798  0.4711  0.0494
14365SOL    HW146883   0.179   1.798   4.941  1.4280  0.1496 -3.3154
14365SOL    HW246884   0.258   1.924   4.913  0.2061  2.5078  2.4521
14366SOL     OW46885   5.293   5.026   3.759  0.5007 -0.4224  0.0494
14366SOL    HW146886   5.303   5.113   3.798 -0.3382 -0.7286  1.0210
14366SOL    HW246887   5.225   4.985   3.812 -0.4278 -1.0165 -1.5307
14367SOL     OW46888   5.953   5.070   3.802  0.1661 -0.6955  0.2393
14367SOL    HW146889   6.008   5.016   3.745 -0.7223 -1.6219  0.2364
14367SOL    HW246890   5.902   5.124   3.742  2.4018  1.6287  0.2493
14368SOL     OW46891   8.570   4.512   1.776  0.2806 -0.0515 -0.2525
14368SOL    HW146892   8.561   4.582   1.841  2.8225 -0.5015  0.6972
14368SOL    HW246893   8.590   4.558   1.694 -0.1889  0.4037 -0.1174
14369SOL     OW46894   8.541   7.961   1.618  0.0428 -0.2051 -0.3925
14369SOL    HW146895   8.623   7.995   1.582  0.7174 -1.5253 -0.1776
14369SOL    HW246896   8.509   8.030   1.676  0.8558  0.4386 -0.6933
14370SOL     OW46897   8.022   8.636   2.273  0.2948 -0.3773  0.2812
14370SOL    HW146898   7.962   8.667   2.206 -0.2850  0.5128  1.1956
14370SOL    HW246899   8.072   8.566   2.229 -0.7167 -0.4703 -0.7777
14371SOL     OW46900   9.920   2.628   7.657 -0.2474  0.1250  0.0734
14371SOL    HW146901   9.979   2.682   7.709 -0.8711 -0.3227  1.2835
14371SOL    HW246902   9.978   2.579   7.598  0.3329  1.9457 -0.9391
14372SOL     OW46903   1.426   2.856   1.197  0.1495  0.1661  0.2325
14372SOL    HW146904   1.367   2.887   1.128  1.1713  0.8676 -0.3539
14372SOL    HW246905   1.461   2.773   1.164  1.1091  0.8030 -0.3955
14373SOL     OW46906   9.881   9.064   7.366  0.4050 -0.0788 -0.5230
14373SOL    HW146907   9.908   9.116   7.290  0.7412  1.8043  0.8244
14373SOL    HW246908   9.832   8.990   7.328  0.4705  0.8467 -2.5536
14374SOL     OW46909   7.276   4.900   4.413 -0.6294  0.2191 -0.5163
14374SOL    HW146910   7.288   4.995   4.414  0.9362  0.0773 -2.1422
14374SOL    HW246911   7.213   4.885   4.342 -0.0429 -0.0239 -0.9905
14375SOL     OW46912   7.677   0.941   4.683 -0.2710 -0.2827  0.3330
14375SOL    HW146913   7.610   0.970   4.621 -1.7511 -0.1975  1.9084
14375SOL    HW246914   7.726   0.874   4.636  0.7648  1.9686 -2.0614
14376SOL     OW46915   0.773   2.957   5.273 -0.1574  0.1849  0.4698
14376SOL    HW146916   0.819   2.903   5.209 -0.8264 -0.1396  0.2551
14376SOL    HW246917   0.754   3.039   5.226  1.8611  1.1027  1.1388
14377SOL     OW46918   2.567   3.738   9.036  0.1629 -0.2976  0.2916
14377SOL    HW146919   2.520   3.819   9.016 -0.8832 -1.1668 -0.9231
14377SOL    HW246920   2.582   3.697   8.951  0.6094 -1.4294  0.8921
14378SOL     OW46921   7.494   1.762   2.854 -0.1075 -0.0557  0.0717
14378SOL    HW146922   7.480   1.857   2.865  0.1097 -0.0028 -0.1088
14378SOL    HW246923   7.410   1.723   2.877 -1.4256  0.3976 -3.3629
14379SOL     OW46924   2.853   0.938   4.226 -0.1012  0.2823 -0.1677
14379SOL    HW146925   2.937   0.917   4.268 -0.1561  0.4415  0.0212
14379SOL    HW246926   2.788   0.931   4.295 -0.2851 -0.1086 -0.3752
14380SOL     OW46927   6.856   4.871   9.925  0.1898 -0.3821 -0.0056
14380SOL    HW146928   6.790   4.924   9.969  0.7813  0.0499  0.3783
14380SOL    HW246929   6.908   4.934   9.875  0.6114 -0.6547  0.0869
14381SOL     OW46930   0.892   1.433   1.223  0.0115 -0.0901 -0.0391
14381SOL    HW146931   0.865   1.353   1.268  1.3813  0.2656  1.5362
14381SOL    HW246932   0.966   1.405   1.168 -0.7919 -0.2626 -1.0579
14382SOL     OW46933   0.799   3.949   2.976 -0.3883 -0.3617 -0.1732
14382SOL    HW146934   0.709   3.950   2.943 -0.1588 -1.2357 -0.8870
14382SOL    HW246935   0.807   3.866   3.023  0.4465 -1.0130 -1.3861
14383SOL     OW46936   6.931   1.792   0.817 -0.4052  0.7080  0.1592
14383SOL    HW146937   6.949   1.886   0.809 -0.5560  0.5901 -3.9542
14383SOL    HW246938   6.839   1.784   0.789 -0.3674 -0.6668  0.3819
14384SOL     OW46939   6.171   1.955   5.393  0.2770 -0.0419  0.1723
14384SOL    HW146940   6.155   2.025   5.329 -1.5008 -1.9867 -1.7059
14384SOL    HW246941   6.089   1.947   5.441  1.1014  0.3779  1.6998
14385SOL     OW46942   1.182   3.622  10.221  0.2655  0.0656  0.2236
14385SOL    HW146943   1.257   3.637  10.279 -1.5395  2.6039  2.0877
14385SOL    HW246944   1.167   3.706  10.179 -1.6658 -0.3085  0.0807
14386SOL     OW46945   3.652   5.173   8.009  0.3269  0.1981  0.0444
14386SOL    HW146946   3.741   5.173   7.973  0.1595  0.6717 -0.3828
14386SOL    HW246947   3.632   5.081   8.022  0.0406 -0.0697 -1.9894
14387SOL     OW46948   9.062   9.086   1.743  0.0988  0.3647 -0.2875
14387SOL    HW146949   9.047   9.072   1.836 -1.4397  0.3744 -0.5182
14387SOL    HW246950   9.062   9.182   1.733  0.6287  0.3723 -0.2537
14388SOL     OW46951   3.600   8.814   3.723  0.5630 -0.0634  1.0211
14388SOL    HW146952   3.576   8.730   3.762  0.4392 -1.6071 -2.0678
14388SOL    HW246953   3.694   8.804   3.703 -0.1204 -0.8885 -2.2931
14389SOL     OW46954   5.587   3.973   2.205  0.3139  0.7527 -0.3181
14389SOL    HW146955   5.682   3.971   2.196  0.3437  0.3083  0.0594
14389SOL    HW246956   5.559   4.043   2.146  0.6772 -0.4667 -2.0153
14390SOL     OW46957   5.592   3.973   4.565 -0.4834 -0.0762  0.4403
14390SOL    HW146958   5.657   4.029   4.522 -1.1673  0.9362  0.6884
14390SOL    HW246959   5.591   3.892   4.514  0.3955  0.2072 -0.0351
14391SOL     OW46960   2.425   1.697   6.392  0.2811 -0.1129  0.2927
14391SOL    HW146961   2.455   1.642   6.464 -0.6355  0.4762  1.1504
14391SOL    HW246962   2.371   1.764   6.434 -2.9994 -1.5712 -1.1611
14392SOL     OW46963   0.014   6.175   2.445 -0.0631  0.4906 -0.2350
14392SOL    HW146964  -0.035   6.232   2.386 -0.2123  1.2114  0.5627
14392SOL    HW246965   0.081   6.135   2.389 -0.9088  0.2660 -1.1243
14393SOL     OW46966   0.202   0.616  10.117 -0.1706 -0.0878  0.4406
14393SOL    HW146967   0.255   0.572  10.050 -0.5787 -1.4373  0.9688
14393SOL    HW246968   0.245   0.593  10.199 -2.0939 -2.0756  0.9795
14394SOL     OW46969   6.748   7.388   5.420  0.2425  0.1846 -0.1771
14394SOL    HW146970   6.836   7.354   5.437 -0.0085 -1.5558 -1.8721
14394SOL    HW246971   6.707   7.319   5.367 -2.0904  1.0224  0.4497
14395SOL     OW46972   8.762   1.524   3.615  0.2565  0.2590  0.3373
14395SOL    HW146973   8.767   1.606   3.565  0.4555 -0.0708 -0.1816
14395SOL    HW246974   8.683   1.534   3.669 -0.3723  0.3083 -0.5791
14396SOL     OW46975   8.032  10.243   3.705  0.3252 -0.2369  0.3173
14396SOL    HW146976   8.048  10.153   3.732  0.6020  0.1080  1.3765
14396SOL    HW246977   7.949  10.239   3.657  1.6037 -1.4358 -1.9550
14397SOL     OW46978   1.683   7.031   9.065  0.4249 -0.4492  0.2940
14397SOL    HW146979   1.589   7.017   9.071  0.1958  0.3653 -1.1629
14397SOL    HW246980   1.719   6.982   9.140 -1.0064 -1.9415  0.0512
14398SOL     OW46981   6.603   4.063   8.409 -0.4493  0.0511 -0.8510
14398SOL    HW146982   6.650   4.128   8.357  2.4341 -0.7708  0.5211
14398SOL    HW246983   6.595   3.987   8.351 -2.3544  0.9768 -1.8967
14399SOL     OW46984   3.148   8.683   4.914 -0.5270 -0.6797  0.5949
14399SOL    HW146985   3.078   8.747   4.902 -0.2102 -0.6179 -1.1852
14399SOL    HW246986   3.160   8.645   4.827  1.9300 -0.3939  0.7620
14400SOL     OW46987   6.609   2.973   7.790 -0.1437  0.2785 -0.1416
14400SOL    HW146988   6.555   3.043   7.829  1.6366  0.8250  1.5206
14400SOL    HW246989   6.550   2.929   7.728 -2.3095  1.1883  1.1382
14401SOL     OW46990   6.243   5.287   8.775 -0.1623  0.9089  0.4297
14401SOL    HW146991   6.274   5.268   8.687  0.6671  2.2716  0.4031
14401SOL    HW246992   6.148   5.275   8.771 -0.0349  0.0581 -0.3836
14402SOL     OW46993   4.040   5.083   7.782 -0.4894  0.5796  0.0358
14402SOL    HW146994   3.965   5.089   7.722 -0.6189 -0.4914  0.0687
14402SOL    HW246995   4.091   5.010   7.749  0.1780  0.8570  0.4311
14403SOL     OW46996   8.563   9.609   3.186 -0.0855  0.2572  0.1554
14403SOL    HW146997   8.582   9.702   3.199 -1.2944  0.1587  3.3459
14403SOL    HW246998   8.480   9.608   3.138  1.5049  0.6901 -2.8606
14404SOL     OW46999   1.586   1.412   1.222  0.5137 -0.3972 -0.2344
14404SOL    HW147000   1.506   1.452   1.255  1.5290  1.4406  0.1677
14404SOL    HW247001   1.562   1.322   1.203 -1.5361 -0.0029  0.2383
14405SOL     OW47002   4.638   1.528   3.583 -0.2622 -0.2444 -0.0812
14405SOL    HW147003   4.546   1.507   3.601 -0.2202  0.5416  1.2140
14405SOL    HW247004   4.644   1.529   3.488 -2.0533  1.4572 -0.2397
14406SOL     OW47005   8.189   1.682   5.529  0.4224  0.4995  0.1718
14406SOL    HW147006   8.130   1.688   5.455  1.1560  1.5311 -0.3565
14406SOL    HW247007   8.159   1.606   5.578 -1.4828  1.1288  0.0513
14407SOL     OW47008   7.686   3.704   4.782 -0.3450  0.4656 -0.0679
14407SOL    HW147009   7.731   3.653   4.714 -1.3792  0.9155 -1.1175
14407SOL    HW247010   7.755   3.723   4.846  1.0615  1.4084 -1.7710
14408SOL     OW47011   8.310   2.812   1.691 -0.5149  0.3517 -0.3949
14408SOL    HW147012   8.286   2.778   1.777 -0.6801  0.7731 -0.2734
14408SOL    HW247013   8.371   2.747   1.656 -1.6854 -0.6315 -0.6423
14409SOL     OW47014   7.959   4.229   2.757  0.0310 -0.3074  0.1339
14409SOL    HW147015   7.953   4.311   2.708  0.6980  0.2516  0.9620
14409SOL    HW247016   7.915   4.248   2.841  0.4407 -0.7081  0.4437
14410SOL     OW47017   7.315   7.349  10.304 -0.7435  0.2658 -0.1534
14410SOL    HW147018   7.355   7.394  10.378 -2.5810  0.5848  0.6964
14410SOL    HW247019   7.343   7.258  10.314  1.1576  0.7508 -0.6054
14411SOL     OW47020   0.624   2.487   7.590  0.2630  0.1026 -0.7741
14411SOL    HW147021   0.639   2.466   7.682 -0.6381 -1.6076 -0.9909
14411SOL    HW247022   0.683   2.561   7.573  0.9482  0.0083  0.9779
14412SOL     OW47023   8.122   6.110   5.854 -0.5960 -0.0992 -0.4442
14412SOL    HW147024   8.149   6.082   5.767 -1.6918 -1.1354 -0.4763
14412SOL    HW247025   8.146   6.038   5.912  1.5808  1.2308  0.4280
14413SOL     OW47026   2.576   9.743   8.263 -0.6653 -0.1441 -0.1269
14413SOL    HW147027   2.513   9.800   8.219  1.6312  0.2944 -3.1951
14413SOL    HW247028   2.655   9.796   8.270  0.0953 -1.4119  1.4753
14414SOL     OW47029   3.194   2.994   3.776  0.5658 -0.3576 -0.0035
14414SOL    HW147030   3.235   2.908   3.788 -0.2914 -1.1148 -1.9636
14414SOL    HW247031   3.145   3.009   3.856  0.4900 -1.8529  0.2593
14415SOL     OW47032   0.146   3.646   2.647  0.1665 -0.3962  0.6628
14415SOL    HW147033   0.066   3.596   2.631 -0.2937  0.8884 -1.5231
14415SOL    HW247034   0.118   3.721   2.700 -0.6409  1.2680 -1.9497
14416SOL     OW47035   7.223   6.677   6.512  0.2950 -0.2222 -0.1213
14416SOL    HW147036   7.180   6.642   6.590  0.0717  1.8219  0.7468
14416SOL    HW247037   7.267   6.602   6.473 -0.8212 -1.5965  1.1456
14417SOL     OW47038   0.115   4.190   8.657  0.2956  0.7365 -0.1536
14417SOL    HW147039   0.191   4.239   8.627 -0.8197  1.4022 -2.0140
14417SOL    HW247040   0.040   4.235   8.619 -1.0859  0.2828  1.8752
14418SOL     OW47041   7.372   5.224   2.388 -0.3552 -0.0782 -0.1081
14418SOL    HW147042   7.313   5.224   2.312 -1.9804  0.4290  1.1039
14418SOL    HW247043   7.361   5.138   2.427 -0.5548  0.1427  0.3236
14419SOL     OW47044   0.805   7.309   6.297  0.5474 -0.1454  0.3492
14419SOL    HW147045   0.885   7.317   6.244 -0.3604 -1.0819 -1.2027
14419SOL    HW247046   0.753   7.386   6.274  1.1464  0.6948  1.6833
14420SOL     OW47047   7.076   6.549   2.481  0.2134 -0.1208  0.5972
14420SOL    HW147048   7.107   6.464   2.511 -2.9714 -1.2902  1.0077
14420SOL    HW247049   7.082   6.606   2.557 -1.2728 -1.1417  1.5391
14421SOL     OW47050   4.908   6.510   4.415  0.3846  0.3635  0.1174
14421SOL    HW147051   4.972   6.510   4.486 -0.4399  0.4728  0.8719
14421SOL    HW247052   4.887   6.417   4.403  0.4052  0.3584  0.1190
14422SOL     OW47053   1.585   6.404   1.334 -0.1244 -0.4281 -0.4330
14422SOL    HW147054   1.543   6.467   1.392  1.3805 -1.3731  1.8153
14422SOL    HW247055   1.573   6.440   1.246 -0.9184  2.0152  0.6101
14423SOL     OW47056   6.298   7.258   3.834  0.4613  0.0435  0.0812
14423SOL    HW147057   6.387   7.292   3.827  1.0818 -1.6985 -1.1354
14423SOL    HW247058   6.302   7.196   3.908  0.9101 -1.7324 -1.3555
14424SOL     OW47059   6.321   1.680   4.384  0.0909  0.6425 -0.3982
14424SOL    HW147060   6.231   1.658   4.408  0.1236  1.1323  0.1960
14424SOL    HW247061   6.375   1.621   4.436  0.1494  1.3957  0.4153
14425SOL     OW47062   3.340   2.647   9.723  0.1671 -0.3668  0.1284
14425SOL    HW147063   3.367   2.643   9.631 -0.1494  0.8331 -0.0327
14425SOL    HW247064   3.322   2.556   9.747  1.9506 -0.9220 -0.4794
14426SOL     OW47065   6.651   6.476   6.318 -0.0439 -0.7447 -0.0108
14426SOL    HW147066   6.746   6.469   6.321  0.1679  1.1377 -0.6337
14426SOL    HW247067   6.619   6.400   6.367  1.7305 -2.1360 -0.8893
14427SOL     OW47068   3.237   3.853   8.369  0.0286 -0.1186  0.0248
14427SOL    HW147069   3.304   3.786   8.360 -0.2795 -0.5153  0.6103
14427SOL    HW247070   3.236   3.898   8.285 -0.1033 -1.1577 -0.5449
14428SOL     OW47071   6.421   6.961  10.119 -0.4355 -0.3381  0.1912
14428SOL    HW147072   6.485   7.032  10.113  0.6371 -0.9388  2.9267
14428SOL    HW247073   6.456   6.892  10.063  0.4679 -0.0480  0.3839
14429SOL     OW47074   5.466   7.012   9.074  0.4470 -0.1965  0.0611
14429SOL    HW147075   5.424   7.090   9.108  0.8343 -0.1841  0.5294
14429SOL    HW247076   5.544   7.044   9.029  0.7399 -0.3280  0.4681
14430SOL     OW47077   8.871   5.576   0.309  0.1320 -0.1910  0.1773
14430SOL    HW147078   8.855   5.519   0.235 -0.4377 -1.8001  1.4833
14430SOL    HW247079   8.791   5.628   0.318 -1.1367 -2.2720  1.5732
14431SOL     OW47080   1.865   0.563   6.907  0.2302 -0.2796  0.0436
14431SOL    HW147081   1.911   0.523   6.833  1.7858 -0.6912  1.1837
14431SOL    HW247082   1.860   0.493   6.972  0.1095  0.4533  0.8393
14432SOL     OW47083   3.295   5.332   7.963 -0.0123 -0.0935 -0.4223
14432SOL    HW147084   3.207   5.320   7.927  0.4282 -1.1062 -1.2335
14432SOL    HW247085   3.311   5.251   8.012  0.5271  0.0048 -0.4376
14433SOL     OW47086  10.146   3.095  10.330 -0.0190  0.0115  0.1143
14433SOL    HW147087  10.154   3.008  10.369  0.9280  0.0815  0.1063
14433SOL    HW247088  10.237   3.124  10.318 -0.2965  1.4858  1.2305
14434SOL     OW47089   8.609   4.704   2.263 -0.4774  0.2636  0.0280
14434SOL    HW147090   8.531   4.703   2.317  0.0124 -1.8679  0.7843
14434SOL    HW247091   8.680   4.726   2.323 -0.1483 -0.4384 -0.0952
14435SOL     OW47092   1.274   6.241   1.429  0.3697  0.4146  0.1524
14435SOL    HW147093   1.308   6.230   1.518  1.6467  1.9373 -0.0978
14435SOL    HW247094   1.235   6.328   1.429  0.0795  0.2953 -0.6835
14436SOL     OW47095   1.797   9.123   8.070 -0.6912  0.5684 -0.1839
14436SOL    HW147096   1.798   9.072   8.151 -0.2987  1.9780  0.7313
14436SOL    HW247097   1.735   9.077   8.013 -0.9188 -0.4892  0.8867
14437SOL     OW47098   8.659   8.838   9.943 -0.5668 -0.6428 -0.2288
14437SOL    HW147099   8.751   8.819   9.927 -0.2880  0.4550  0.0485
14437SOL    HW247100   8.619   8.751   9.955  0.4938 -1.1086  0.0557
14438SOL     OW47101   7.609   8.257   9.269  0.4193 -0.0677  0.4519
14438SOL    HW147102   7.548   8.220   9.206  0.3483  0.1384  0.3987
14438SOL    HW247103   7.640   8.182   9.320 -0.8880 -0.0130  1.3582
14439SOL     OW47104   3.753   1.993   2.002  0.4532 -0.5301  0.1799
14439SOL    HW147105   3.755   1.960   1.912 -1.0508 -0.1574 -0.0149
14439SOL    HW247106   3.845   1.990   2.030  1.0861  0.1211 -1.6406
14440SOL     OW47107   6.599   0.455   2.733 -0.4822 -0.2218  0.4051
14440SOL    HW147108   6.691   0.447   2.706 -0.3666 -0.3269  0.8184
14440SOL    HW247109   6.580   0.371   2.775 -0.3719  0.2889  1.5003
14441SOL     OW47110   8.311   0.951   6.758 -0.2435  0.5561 -0.0336
14441SOL    HW147111   8.237   0.962   6.817  0.4625 -0.7906  1.1767
14441SOL    HW247112   8.275   0.964   6.670 -1.7119  0.7798  0.5817
14442SOL     OW47113   4.498   8.330   3.094  0.2501 -0.4579 -0.4351
14442SOL    HW147114   4.503   8.242   3.057 -2.9659 -0.7785 -0.4102
14442SOL    HW247115   4.477   8.316   3.186  3.2669  0.3989  0.4998
14443SOL     OW47116  10.012   4.689   2.859 -0.1499 -0.4710 -0.1765
14443SOL    HW147117  10.052   4.667   2.775  0.2728  0.4737 -0.2312
14443SOL    HW247118  10.084   4.687   2.922 -0.5000 -1.3913  0.2195
14444SOL     OW47119   1.391   5.047   6.344  0.2206 -0.0836 -0.1386
14444SOL    HW147120   1.472   4.997   6.350  0.2720  0.1559  3.4157
14444SOL    HW247121   1.419   5.135   6.318  0.8481 -0.4391 -0.6900
14445SOL     OW47122   2.499   0.768   0.782 -0.0509  0.2279  0.0095
14445SOL    HW147123   2.450   0.687   0.769 -1.0831  0.5534  1.5358
14445SOL    HW247124   2.577   0.742   0.831 -1.2947  0.3179  2.1874
14446SOL     OW47125   9.646   1.892   0.831 -0.4883  0.6777  0.3042
14446SOL    HW147126   9.647   1.892   0.927  1.6677  0.1668  0.3194
14446SOL    HW247127   9.595   1.970   0.809  0.5826  1.9143  1.9044
14447SOL     OW47128   5.034   7.298   1.800 -0.3283 -0.2800  0.0057
14447SOL    HW147129   5.002   7.234   1.863 -0.1221 -0.1816  0.2145
14447SOL    HW247130   5.127   7.277   1.789  0.0817  0.8098  1.1176
14448SOL     OW47131   2.477   9.791   4.006  0.4538 -0.4196 -0.2484
14448SOL    HW147132   2.443   9.865   3.956  0.1561 -0.2699  0.1635
14448SOL    HW247133   2.421   9.788   4.084  0.4131 -1.1246 -0.3014
14449SOL     OW47134   6.428  10.221   8.866 -0.1347 -0.3229 -0.2547
14449SOL    HW147135   6.342  10.189   8.840 -0.8971  1.0803  0.4294
14449SOL    HW247136   6.459  10.159   8.931 -0.1062 -1.4704 -1.3266
14450SOL     OW47137   4.763   5.284   7.895  0.0492  0.4410 -0.0166
14450SOL    HW147138   4.827   5.321   7.834 -0.1695  0.7617 -0.0575
14450SOL    HW247139   4.815   5.253   7.969  0.2377  0.9070  0.0526
14451SOL     OW47140  10.117   5.595   8.180  0.4628 -0.1015  0.2060
14451SOL    HW147141  10.161   5.678   8.202 -0.6616  0.5977 -0.1058
14451SOL    HW247142  10.026   5.620   8.164  0.2933 -1.2761 -0.7612
14452SOL     OW47143   3.974   9.188   3.700  0.5030  0.1485 -0.2820
14452SOL    HW147144   3.891   9.187   3.747  0.2726  0.4536 -0.6824
14452SOL    HW247145   4.009   9.276   3.716  1.5044 -0.4708  1.1889
14453SOL     OW47146   0.836   5.359   2.388 -0.4207 -0.1464 -0.0010
14453SOL    HW147147   0.823   5.327   2.298 -0.2862  0.7788 -0.3612
14453SOL    HW247148   0.847   5.453   2.378 -1.0952  0.0542  1.0697
14454SOL     OW47149   8.254   2.074   2.004 -0.5557 -0.0063  0.2228
14454SOL    HW147150   8.186   2.019   1.965 -0.0778  0.2464 -1.0103
14454SOL    HW247151   8.253   2.154   1.951  1.5831 -0.5207 -0.6963
14455SOL     OW47152   8.765   4.382   8.322  0.7213  0.6376  0.1569
14455SOL    HW147153   8.745   4.316   8.255 -2.6508 -0.3357  1.8748
14455SOL    HW247154   8.745   4.466   8.281  2.0848  0.3856 -1.0901
14456SOL     OW47155   7.227   3.562   1.405  0.2444  0.3001  0.3563
14456SOL    HW147156   7.154   3.602   1.451 -0.3020  0.0356 -0.2734
14456SOL    HW247157   7.193   3.540   1.319  0.8245 -0.5843  0.3365
14457SOL     OW47158   1.733   3.854   6.289  0.2052  0.2812  0.6401
14457SOL    HW147159   1.779   3.933   6.317 -2.2835  1.4071  1.7827
14457SOL    HW247160   1.688   3.879   6.209 -0.2550 -0.1063  0.7721
14458SOL     OW47161   6.067   0.859   3.464  0.3438 -0.1050 -0.7376
14458SOL    HW147162   6.108   0.794   3.408  0.2218 -1.2152  0.4201
14458SOL    HW247163   6.011   0.809   3.522 -0.2895  1.1084 -0.2700
14459SOL     OW47164   6.646   4.694   4.091 -0.2989  0.3111  0.2481
14459SOL    HW147165   6.712   4.739   4.143 -0.4387  1.1327 -0.2698
14459SOL    HW247166   6.587   4.764   4.062 -0.6484 -0.2381 -0.3839
14460SOL     OW47167   7.471   2.246   6.841 -0.2162  0.5740  0.1798
14460SOL    HW147168   7.475   2.153   6.864  0.2479  0.5187 -0.1064
14460SOL    HW247169   7.477   2.247   6.746 -0.9829  0.8589  0.1319
14461SOL     OW47170   8.217   8.013   1.718 -0.1051  0.0491 -0.3164
14461SOL    HW147171   8.227   7.947   1.649 -2.8555  0.4018 -1.1613
14461SOL    HW247172   8.136   7.988   1.763 -0.7609  2.3468 -0.1103
14462SOL     OW47173   6.549   5.199   1.485  0.5888 -0.6543  0.8711
14462SOL    HW147174   6.579   5.115   1.451  0.1944 -0.5433  0.2447
14462SOL    HW247175   6.590   5.265   1.429  0.3760 -0.4496  0.9507
14463SOL     OW47176   8.957   5.487   8.418  0.1641 -0.5100 -0.4659
14463SOL    HW147177   8.945   5.576   8.452  0.5289  0.1155 -1.9080
14463SOL    HW247178   8.869   5.449   8.420  0.0422 -0.2212  0.3841
14464SOL     OW47179   8.815   8.790   5.134  0.2886 -0.7157  0.1720
14464SOL    HW147180   8.760   8.868   5.121 -0.7100 -1.5362 -0.6721
14464SOL    HW247181   8.896   8.825   5.172  0.3036  0.8846 -1.1974
14465SOL     OW47182   0.625   9.056   2.916  0.2352 -0.0847  0.2170
14465SOL    HW147183   0.534   9.067   2.887  0.1296  0.4516  0.7322
14465SOL    HW247184   0.656   9.145   2.931  0.4339 -0.3213  1.2892
14466SOL     OW47185  10.203   0.017   8.889 -0.3724 -0.1802 -0.0263
14466SOL    HW147186  10.119   0.049   8.856  0.0716  0.9230 -0.0993
14466SOL    HW247187  10.258   0.009   8.810 -0.2673 -0.4835  0.0747
14467SOL     OW47188   7.206   1.553   7.999  0.1924  0.6646  0.1035
14467SOL    HW147189   7.118   1.585   8.022 -0.0866 -1.1700  1.7840
14467SOL    HW247190   7.263   1.629   8.014 -1.0865  2.0319 -1.4333
14468SOL     OW47191   1.091   6.729   4.964 -0.1295  0.1939 -0.1089
14468SOL    HW147192   1.073   6.648   4.916  0.3383  0.0718 -0.0900
14468SOL    HW247193   1.134   6.786   4.900 -0.6169  0.4961 -0.1697
14469SOL     OW47194   3.949   2.156   7.679  0.4663 -0.7709 -0.1585
14469SOL    HW147195   3.996   2.208   7.615  0.7659 -0.1363  0.5712
14469SOL    HW247196   3.871   2.207   7.699  1.0722 -0.2878  1.0296
14470SOL     OW47197   5.525   0.272   4.956  0.2583 -0.3634  0.1777
14470SOL    HW147198   5.476   0.256   5.037 -1.3980  0.7786 -0.5297
14470SOL    HW247199   5.461   0.256   4.886  1.3224 -0.2250 -0.8652
14471SOL     OW47200   9.520   2.694   7.568 -0.1352  0.4111  0.5855
14471SOL    HW147201   9.488   2.719   7.655 -0.0047  1.9315  0.2263
14471SOL    HW247202   9.440   2.679   7.517 -0.2447 -2.4012  1.4167
14472SOL     OW47203   8.831   8.212   4.949  0.5518  0.0504 -0.4966
14472SOL    HW147204   8.799   8.295   4.984  0.6832 -0.7195  1.6111
14472SOL    HW247205   8.753   8.156   4.947  0.6966 -0.1443 -0.7379
14473SOL     OW47206   5.354   1.507   3.349  0.1837 -0.1547  0.1562
14473SOL    HW147207   5.328   1.599   3.342 -1.2069 -0.5673 -0.4631
14473SOL    HW247208   5.406   1.503   3.429  1.0651  1.3286 -0.2866
14474SOL     OW47209   3.681   6.460   2.897  0.0933 -0.0394  0.5339
14474SOL    HW147210   3.659   6.551   2.918 -0.9238  0.4368 -2.2473
14474SOL    HW247211   3.758   6.465   2.841  0.8174 -1.0299  1.3800
14475SOL     OW47212   0.126   4.905   1.364  0.6458  0.0041  0.4007
14475SOL    HW147213   0.177   4.986   1.365  0.5757  0.0982  3.4021
14475SOL    HW247214   0.108   4.886   1.456 -3.8129 -0.5971 -0.3636
14476SOL     OW47215   7.385   4.416   0.683  0.7140 -0.4101  0.0245
14476SOL    HW147216   7.416   4.426   0.593  2.4866  0.2654  0.6499
14476SOL    HW247217   7.395   4.323   0.702  0.5863 -0.5098 -0.3877
14477SOL     OW47218   6.515   3.667   5.947 -0.6700 -0.1398  0.2517
14477SOL    HW147219   6.467   3.749   5.962  0.9621  1.0711 -0.8323
14477SOL    HW247220   6.568   3.684   5.869  1.8925 -1.1879  1.6392
14478SOL     OW47221   7.300   1.603   9.638 -0.0172  0.1936 -0.1350
14478SOL    HW147222   7.301   1.656   9.718 -0.4615  1.0645 -0.6847
14478SOL    HW247223   7.233   1.537   9.655  1.1254 -0.7444  0.8834
14479SOL     OW47224   5.399   2.322   2.582  0.2583 -0.1924  0.3952
14479SOL    HW147225   5.469   2.291   2.640  0.8540 -0.8063 -0.6300
14479SOL    HW247226   5.335   2.361   2.641  0.7842 -0.9270  1.4895
14480SOL     OW47227   1.579   5.245   1.949 -0.5858 -0.3067  0.0551
14480SOL    HW147228   1.671   5.267   1.961 -0.7844  0.3152  0.4714
14480SOL    HW247229   1.544   5.238   2.038 -1.0606 -0.0318 -0.1053
14481SOL     OW47230   1.541   8.753   0.923  0.2160  0.7921  0.0068
14481SOL    HW147231   1.490   8.830   0.949 -0.0034  1.3497 -1.9760
14481SOL    HW247232   1.632   8.781   0.928  0.1743  0.9178  0.0470
14482SOL     OW47233   8.608   0.887   9.419 -0.7892 -0.4859 -0.1878
14482SOL    HW147234   8.558   0.807   9.403  2.4533 -2.4930 -1.3950
14482SOL    HW247235   8.641   0.876   9.508 -0.5770 -0.3410 -0.2496
14483SOL     OW47236   7.545   2.186   2.362 -0.3542 -0.2618  0.6305
14483SOL    HW147237   7.614   2.159   2.422 -0.0517 -3.3966 -0.9059
14483SOL    HW247238   7.590   2.238   2.295  0.5211 -1.8367 -0.0711
14484SOL     OW47239   6.809   3.509   4.773  0.4242  0.1871 -0.3519
14484SOL    HW147240   6.719   3.503   4.741  0.7468  0.7871 -1.4153
14484SOL    HW247241   6.855   3.439   4.728 -0.2025 -2.5106  2.8618
14485SOL     OW47242   5.691   4.046   4.158 -0.1892  0.4079  0.5355
14485SOL    HW147243   5.745   3.976   4.120 -1.4140 -0.0991 -0.3361
14485SOL    HW247244   5.604   4.006   4.167 -0.9058  1.8084  0.0358
14486SOL     OW47245   8.095   8.272   9.326  0.1880  0.4656  0.0603
14486SOL    HW147246   8.102   8.322   9.407 -0.5286  1.3866 -0.4137
14486SOL    HW247247   8.001   8.275   9.305  0.4838  0.9927 -1.2476
14487SOL     OW47248   7.699   7.688   9.458  0.3684  0.2711  0.1534
14487SOL    HW147249   7.737   7.676   9.545  1.1076 -0.4571 -0.2556
14487SOL    HW247250   7.774   7.695   9.399 -0.0985  2.1299 -0.2796
14488SOL     OW47251   3.037   6.534   1.189  0.8684 -0.1623 -0.7776
14488SOL    HW147252   3.084   6.552   1.270  1.5464 -0.2610 -1.1385
14488SOL    HW247253   2.968   6.472   1.214  1.4256 -0.6286 -0.3744
14489SOL     OW47254   5.315   9.941   1.922 -0.2771 -0.7424  0.3362
14489SOL    HW147255   5.330   9.959   1.829 -0.6242 -0.2188  0.3806
14489SOL    HW247256   5.220   9.939   1.931 -0.2559 -2.0972  0.4331
14490SOL     OW47257   7.779   4.429   6.298 -0.4942 -0.3944  0.1194
14490SOL    HW147258   7.780   4.345   6.345 -0.7304 -0.2628  0.3563
14490SOL    HW247259   7.862   4.471   6.322  0.9684 -1.7568 -2.1615
14491SOL     OW47260   2.661   4.294   6.375 -0.0931  0.3490 -0.3008
14491SOL    HW147261   2.705   4.210   6.388 -0.3977  0.4279  1.5107
14491SOL    HW247262   2.600   4.301   6.449  0.1718  2.2966 -0.2147
14492SOL     OW47263   4.635   1.482   7.967  0.6415  0.8455  0.1048
14492SOL    HW147264   4.587   1.403   7.941  0.2600  0.8682  0.7179
14492SOL    HW247265   4.725   1.452   7.981  1.1191  1.0246 -2.2189
14493SOL     OW47266   1.156   1.881   9.819  0.3364 -0.7227  0.2191
14493SOL    HW147267   1.201   1.796   9.812  1.2126 -0.2304 -0.2237
14493SOL    HW247268   1.162   1.918   9.731 -0.8849 -0.6040  0.1664
14494SOL     OW47269   8.197   9.315   7.415  0.1008 -0.5960 -0.1940
14494SOL    HW147270   8.195   9.385   7.480 -1.6270  0.1492 -0.9996
14494SOL    HW247271   8.182   9.235   7.466 -1.1396 -0.0357  0.3585
14495SOL     OW47272   2.013   5.188   5.808  0.0880  0.2549  0.2751
14495SOL    HW147273   2.027   5.171   5.715  0.8127  1.9601  0.0381
14495SOL    HW247274   2.015   5.102   5.849  1.5731 -0.3891 -1.0565
14496SOL     OW47275   4.199   6.603   4.574  0.3219  0.4406 -0.0111
14496SOL    HW147276   4.148   6.594   4.655  0.1967  0.0623 -0.1281
14496SOL    HW247277   4.134   6.594   4.504  0.7868 -2.2155 -0.2222
14497SOL     OW47278   9.194   9.513   0.290 -0.3085  0.2089  0.3250
14497SOL    HW147279   9.166   9.502   0.381  0.2042 -1.1944  0.3438
14497SOL    HW247280   9.257   9.443   0.276  0.4036  1.0428 -0.8175
14498SOL     OW47281   4.181   5.603   0.502 -0.1703  0.1635 -0.3735
14498SOL    HW147282   4.113   5.545   0.539  0.9131  0.2118  1.8684
14498SOL    HW247283   4.156   5.613   0.411 -1.0688 -2.9162 -0.5975
14499SOL     OW47284   5.036   0.992   3.950  0.3415 -0.6207  0.4220
14499SOL    HW147285   5.015   1.003   4.043 -0.4618  0.3120  0.1466
14499SOL    HW247286   4.967   1.041   3.904  0.4018 -1.5422 -0.6838
14500SOL     OW47287   7.039   3.300   0.918  0.1108  0.3593 -0.4729
14500SOL    HW147288   6.950   3.275   0.944  0.5323 -0.9894 -0.2590
14500SOL    HW247289   7.030   3.334   0.829 -0.6174  0.2422 -0.4489
14501SOL     OW47290   9.028   3.127   1.533 -0.6026  0.2552  0.5840
14501SOL    HW147291   9.069   3.071   1.598  0.8664 -0.4537 -0.8746
14501SOL    HW247292   8.997   3.067   1.465  1.0658  1.1294 -1.0467
14502SOL     OW47293   0.494   6.483   2.076  0.1395  0.4467  0.3983
14502SOL    HW147294   0.497   6.408   2.136  2.5814 -0.2163 -0.4178
14502SOL    HW247295   0.562   6.464   2.011 -0.6669  2.3640 -1.0966
14503SOL     OW47296   4.497   9.904   1.213 -0.3895  0.1157  0.2897
14503SOL    HW147297   4.529   9.984   1.255 -0.9210  0.0576  0.8122
14503SOL    HW247298   4.408   9.894   1.246 -0.3912 -0.5902  0.0726
14504SOL     OW47299   0.707  10.114   4.122  0.0000  0.6497  0.3281
14504SOL    HW147300   0.633  10.086   4.176  1.5947  0.5933  2.6449
14504SOL    HW247301   0.756  10.174   4.178  0.6656  2.2716 -1.8736
14505SOL     OW47302   9.070   4.106   8.701  0.2529  0.2976  0.3810
14505SOL    HW147303   8.979   4.131   8.716 -0.1452  0.0869 -1.4356
14505SOL    HW247304   9.118   4.188   8.702  0.0891  0.3947  1.5149
14506SOL     OW47305   1.548   8.744   1.819 -0.9782  0.0119  0.0805
14506SOL    HW147306   1.616   8.685   1.852  1.4909  2.9491  0.6115
14506SOL    HW247307   1.569   8.756   1.727 -0.7364  0.9184  0.2427
14507SOL     OW47308   9.107   7.847   3.966 -0.1387 -0.5859 -0.0545
14507SOL    HW147309   9.015   7.820   3.958 -0.2109 -0.4367  0.2420
14507SOL    HW247310   9.144   7.786   4.030 -0.4810  0.4240  1.1514
14508SOL     OW47311   0.551   9.057   1.310 -0.1506 -0.1963 -0.2455
14508SOL    HW147312   0.588   9.004   1.239 -0.4825 -0.9778  0.1655
14508SOL    HW247313   0.591   9.144   1.297 -0.7364 -0.1234 -1.8040
14509SOL     OW47314   0.280   3.185   2.419 -0.3266 -0.2600  0.8873
14509SOL    HW147315   0.185   3.175   2.427 -0.0803 -2.2648  2.0238
14509SOL    HW247316   0.299   3.268   2.462 -1.5712  0.2051  0.5689
14510SOL     OW47317   6.957   5.127   2.393 -0.0701  0.0239 -0.3289
14510SOL    HW147318   6.912   5.103   2.312 -0.6488 -1.0046  0.2775
14510SOL    HW247319   7.048   5.100   2.378 -0.3667 -1.0234 -0.2996
14511SOL     OW47320   2.891   5.572   0.858  0.6730 -0.7440  0.6390
14511SOL    HW147321   2.858   5.606   0.941 -0.0548 -1.4717  0.6562
14511SOL    HW247322   2.942   5.644   0.821 -0.1383  0.0624  1.0671
14512SOL     OW47323   8.362   8.072   5.971  0.2252  1.0345  0.3572
14512SOL    HW147324   8.278   8.028   5.958  0.3537  0.7694  0.4049
14512SOL    HW247325   8.390   8.096   5.883  0.7814 -0.1723  0.1755
14513SOL     OW47326   8.009   9.026  10.103  0.0115 -0.0430  0.4232
14513SOL    HW147327   8.027   8.942  10.062 -1.6523 -1.3479  2.2232
14513SOL    HW247328   8.052   9.090  10.045  2.9538 -2.1936 -0.0304
14514SOL     OW47329   1.665  10.232   7.555 -0.1332  0.0194 -0.6477
14514SOL    HW147330   1.674  10.158   7.496  1.9539 -0.4310  0.1575
14514SOL    HW247331   1.606  10.292   7.509 -2.5903 -2.4433 -0.9508
14515SOL     OW47332   0.289   3.579   8.745 -0.6136 -0.3210  0.2074
14515SOL    HW147333   0.220   3.601   8.808  0.1897  0.1513  0.9359
14515SOL    HW247334   0.249   3.514   8.688 -1.5118 -0.4054  0.9154
14516SOL     OW47335   0.882   9.479   6.683  0.1232 -0.2504 -0.5175
14516SOL    HW147336   0.797   9.521   6.692 -0.4432 -1.1938 -1.1566
14516SOL    HW247337   0.925   9.492   6.767 -0.8617 -0.1803 -0.0104
14517SOL     OW47338   3.817  10.270   8.087  0.3554 -0.3602 -0.4779
14517SOL    HW147339   3.908  10.296   8.102  0.6194 -2.5929  3.0248
14517SOL    HW247340   3.767  10.349   8.106  1.4546  0.8109 -2.1232
14518SOL     OW47341   6.340   3.690   6.899  0.0418 -0.3254  0.5278
14518SOL    HW147342   6.342   3.765   6.959  0.7780 -1.7571  2.4177
14518SOL    HW247343   6.395   3.717   6.825 -0.1732  1.1842  0.8793
14519SOL     OW47344   2.972   9.457   2.375 -0.8613  0.1653 -0.8282
14519SOL    HW147345   2.952   9.499   2.291  1.5238  1.4004 -0.8840
14519SOL    HW247346   3.066   9.437   2.369 -0.2086  1.7338  2.0775
14520SOL     OW47347   5.664   9.715   1.762 -0.1367  0.2604 -0.0778
14520SOL    HW147348   5.738   9.674   1.718  0.9638 -1.4428  3.0418
14520SOL    HW247349   5.690   9.807   1.771  1.1659 -0.1022  0.1007
14521SOL     OW47350   1.843   2.818   3.183  0.4912 -0.1124  0.2923
14521SOL    HW147351   1.929   2.845   3.152  1.4805 -2.0265  1.2236
14521SOL    HW247352   1.832   2.864   3.266  0.3189  0.6149 -0.1225
14522SOL     OW47353   5.520   1.740   6.571 -0.0650 -0.9232  0.3788
14522SOL    HW147354   5.506   1.672   6.506 -0.4343 -0.0528 -0.4841
14522SOL    HW247355   5.475   1.709   6.649 -2.4570 -0.5456 -0.7680
14523SOL     OW47356   1.582   2.542   7.479  0.2607  0.0148 -0.2419
14523SOL    HW147357   1.670   2.528   7.443 -0.8968 -0.5286 -3.1328
14523SOL    HW247358   1.563   2.461   7.528  0.3829 -1.0899 -1.9341
14524SOL     OW47359   3.731   3.615   4.907  0.0332 -0.1202 -0.2215
14524SOL    HW147360   3.795   3.544   4.904  0.1999 -0.0440  1.1022
14524SOL    HW247361   3.646   3.572   4.898  0.1103 -0.5511  0.9870
14525SOL     OW47362   7.949   5.683   8.854 -0.1564 -0.1468  0.2565
14525SOL    HW147363   7.892   5.685   8.777  0.5769  0.7182 -0.3045
14525SOL    HW247364   8.025   5.736   8.827  1.3565 -2.0336  0.6064
14526SOL     OW47365   6.097   6.236   5.626  0.7484  0.0821  0.0860
14526SOL    HW147366   6.151   6.281   5.561  0.7679 -0.9785 -0.6613
14526SOL    HW247367   6.090   6.147   5.593 -1.4896  0.1896  0.1530
14527SOL     OW47368   8.815   2.324   7.438  0.2516 -0.2626  0.0283
14527SOL    HW147369   8.875   2.251   7.449 -0.8686 -1.2446 -0.2194
14527SOL    HW247370   8.871   2.398   7.414  1.3174 -1.1994 -0.4361
14528SOL     OW47371   8.739   2.223   7.750 -0.8365  0.2506  0.6114
14528SOL    HW147372   8.751   2.256   7.839 -1.2224 -0.1545  0.8188
14528SOL    HW247373   8.780   2.289   7.694  1.4791 -0.6099  1.1952
14529SOL     OW47374  10.264   7.907   9.162 -0.5137 -0.2891  0.6810
14529SOL    HW147375  10.324   7.934   9.093 -0.1250 -3.3083 -0.3095
14529SOL    HW247376  10.321   7.893   9.238 -0.3495 -0.5894  0.5060
14530SOL     OW47377   6.939   7.560   7.012 -0.1217  0.3114  0.4245
14530SOL    HW147378   7.031   7.562   7.038  0.3355  1.3219 -1.1690
14530SOL    HW247379   6.915   7.651   6.998 -1.9490  0.2543  2.5752
14531SOL     OW47380   8.728   6.343   2.544 -0.0528  0.2420  0.2717
14531SOL    HW147381   8.796   6.287   2.581 -1.9841 -1.5125  1.3704
14531SOL    HW247382   8.696   6.295   2.467 -2.1497 -0.5838  1.5737
14532SOL     OW47383  10.314   2.264   7.981 -0.2878  0.0450  0.0610
14532SOL    HW147384  10.294   2.345   7.933 -1.8002 -0.2589  0.1264
14532SOL    HW247385  10.325   2.198   7.913 -3.0797 -0.5293  0.0462
14533SOL     OW47386   5.267   0.283   8.288 -0.1345 -0.2013  0.3967
14533SOL    HW147387   5.319   0.336   8.228  1.3529 -0.7795  1.1254
14533SOL    HW247388   5.273   0.328   8.372  1.3681 -1.5876  1.0914
14534SOL     OW47389   5.332   1.202   3.021  0.1876 -0.3264  0.2624
14534SOL    HW147390   5.363   1.292   3.033 -1.2475  0.1972  0.1689
14534SOL    HW247391   5.281   1.184   3.100 -1.7265 -0.1026 -0.8754
14535SOL     OW47392   5.160   0.470   7.646 -0.3892 -0.2220  0.0318
14535SOL    HW147393   5.161   0.506   7.734 -1.8722 -0.3019  0.1146
14535SOL    HW247394   5.184   0.543   7.589  2.2016 -0.5623  0.5664
14536SOL     OW47395   8.005   9.909   8.613 -0.3182 -0.3932 -0.3547
14536SOL    HW147396   8.010   9.834   8.672  0.5662 -0.2668 -0.2582
14536SOL    HW247397   8.083   9.961   8.632  1.0478 -1.3256 -2.9160
14537SOL     OW47398   8.495   5.685   4.461 -0.0547  0.5896 -0.1482
14537SOL    HW147399   8.564   5.631   4.499  1.1622  2.6167  0.6892
14537SOL    HW247400   8.436   5.623   4.418  1.4387 -1.3321  0.4681
14538SOL     OW47401   4.848   9.999   1.181  0.1394  0.2369 -0.1273
14538SOL    HW147402   4.928  10.046   1.158  0.4634  0.2054  0.8915
14538SOL    HW247403   4.853   9.987   1.276 -0.5801 -0.6835 -0.1878
14539SOL     OW47404   0.252   2.780  10.298  0.6238  0.3054 -0.2004
14539SOL    HW147405   0.157   2.793  10.296  0.7839  1.4903 -0.8584
14539SOL    HW247406   0.279   2.786  10.207  1.2641 -0.6850 -0.0877
14540SOL     OW47407  10.240   1.712   4.393 -0.4747 -0.0851  0.2465
14540SOL    HW147408  10.161   1.658   4.388 -0.4713 -0.0078 -0.9980
14540SOL    HW247409  10.303   1.669   4.335  0.6455 -0.4906  1.6984
14541SOL     OW47410   1.995   4.910   5.870  0.4255  0.2723 -0.2055
14541SOL    HW147411   1.971   4.882   5.782  0.0329  0.8910 -0.3021
14541SOL    HW247412   1.914   4.903   5.920  0.8054 -0.7570  0.2960
14542SOL     OW47413  10.274   2.639  10.000  0.5531  0.6089 -0.1492
14542SOL    HW147414  10.317   2.715   9.960 -1.0588  1.0724 -1.0628
14542SOL    HW247415  10.188   2.635   9.959 -0.1604 -0.5280  1.3485
14543SOL     OW47416   5.468  10.056   1.015 -0.4987 -0.0939  0.3557
14543SOL    HW147417   5.497   9.968   1.040 -1.6155 -1.4078 -2.5174
14543SOL    HW247418   5.409  10.041   0.940 -1.8579  3.0213  0.6630
14544SOL     OW47419   6.560  10.305   3.821  0.0933 -0.0945  0.7576
14544SOL    HW147420   6.498  10.246   3.778  0.5830 -0.7414  0.9391
14544SOL    HW247421   6.638  10.302   3.765 -0.4434  1.7077 -0.2044
14545SOL     OW47422   5.763   7.018   3.163  0.2123  0.7500  0.1894
14545SOL    HW147423   5.683   6.973   3.136 -1.1755  2.9170  0.5187
14545SOL    HW247424   5.786   6.979   3.247 -1.3409  1.0698  0.7951
14546SOL     OW47425   3.949   2.994   5.718  0.3058 -0.0486  0.1660
14546SOL    HW147426   3.907   2.914   5.748  0.5011  0.6015  2.2968
14546SOL    HW247427   4.011   2.964   5.651  0.3061 -1.6662  0.8380
14547SOL     OW47428   3.478   4.199   5.921 -0.1005  0.4302 -0.0495
14547SOL    HW147429   3.482   4.291   5.946 -0.2157  0.3957  0.1001
14547SOL    HW247430   3.384   4.179   5.918 -0.1184  0.5859 -1.0737
14548SOL     OW47431   0.435   9.189   4.383 -0.1921  0.5822  0.2225
14548SOL    HW147432   0.421   9.105   4.338  0.1650  0.1180  0.9483
14548SOL    HW247433   0.519   9.178   4.428 -0.6970  0.8932  1.2812
14549SOL     OW47434   9.732   0.381   0.490 -0.0479  0.2403 -0.0656
14549SOL    HW147435   9.681   0.357   0.567  0.7391  1.4714  0.8647
14549SOL    HW247436   9.813   0.331   0.499 -0.6758 -1.0215 -1.0770
14550SOL     OW47437   4.940   3.503   4.380 -0.2822 -0.6861  0.2924
14550SOL    HW147438   4.845   3.510   4.365 -0.3219 -0.0516  0.8003
14550SOL    HW247439   4.977   3.501   4.292 -0.6998  0.2140  0.0735
14551SOL     OW47440   4.961   0.540   6.800  0.1879  0.0108 -0.3710
14551SOL    HW147441   5.020   0.466   6.787 -0.3183 -0.7159  1.1881
14551SOL    HW247442   4.883   0.517   6.750  0.0131 -0.5522  0.1463
14552SOL     OW47443   8.201   9.619   3.297 -0.4354  0.0865 -0.7758
14552SOL    HW147444   8.262   9.672   3.348 -0.8553  0.6975 -0.8973
14552SOL    HW247445   8.231   9.627   3.207  0.7907 -1.6448 -0.5667
14553SOL     OW47446   7.175   6.316   1.589  0.6521  0.2846 -0.0564
14553SOL    HW147447   7.156   6.386   1.651  1.1243  0.6279 -0.2984
14553SOL    HW247448   7.269   6.322   1.573  0.6235 -0.1279 -0.4127
14554SOL     OW47449   6.954   3.682   1.466  0.0924 -0.0841  0.0756
14554SOL    HW147450   6.979   3.773   1.486  0.5106  0.5117 -2.8028
14554SOL    HW247451   6.904   3.688   1.385  0.0723 -2.4594 -0.1521
14555SOL     OW47452   3.619   0.567   3.144 -0.1322 -0.5841  0.0221
14555SOL    HW147453   3.576   0.641   3.101  0.7169  0.4139  0.8445
14555SOL    HW247454   3.551   0.530   3.201  0.0123  0.9085  1.2286
14556SOL     OW47455   5.282   3.301   3.536 -0.2288 -0.2118  0.0402
14556SOL    HW147456   5.272   3.206   3.536 -2.5428 -0.0418  0.2392
14556SOL    HW247457   5.229   3.330   3.611  2.6532  1.1070  1.7303
14557SOL     OW47458   8.178   4.735  10.143  0.3091 -0.7069  0.6319
14557SOL    HW147459   8.190   4.755  10.050  2.9534  0.4018  1.0976
14557SOL    HW247460   8.102   4.677  10.146 -0.0478 -0.5294 -2.1695
14558SOL     OW47461   7.149   8.704   2.861  0.1017 -1.3491  0.1282
14558SOL    HW147462   7.081   8.764   2.890 -1.0157 -2.6750  0.3776
14558SOL    HW247463   7.189   8.672   2.942  1.0581 -0.5667 -0.0169
14559SOL     OW47464   1.130   1.953   6.474  0.5853 -0.2698 -0.2612
14559SOL    HW147465   1.137   1.858   6.481  1.1110 -0.2069  0.1520
14559SOL    HW247466   1.154   1.973   6.384 -2.3823 -0.7629 -1.2989
14560SOL     OW47467   2.233   6.178   7.087 -0.4184  0.5323 -0.0377
14560SOL    HW147468   2.190   6.196   7.171 -2.2154 -0.7069 -0.6152
14560SOL    HW247469   2.161   6.154   7.029  0.7756  1.4756 -1.9864
14561SOL     OW47470   5.946   4.009   6.664 -0.0831 -0.2526 -0.2540
14561SOL    HW147471   6.041   4.008   6.676 -0.0769  0.7569 -0.1652
14561SOL    HW247472   5.911   4.026   6.751 -0.2733  0.9756 -0.5531
14562SOL     OW47473   4.174   1.663   4.875 -0.1576 -0.2736 -0.0026
14562SOL    HW147474   4.110   1.612   4.825  0.0455  1.0377 -1.6977
14562SOL    HW247475   4.232   1.597   4.912 -1.2957 -1.3858 -0.1303
14563SOL     OW47476   3.138   2.142   9.151  0.8329 -0.1749 -0.3154
14563SOL    HW147477   3.212   2.201   9.165  1.4872 -1.2300  0.8895
14563SOL    HW247478   3.075   2.194   9.101  0.9886  1.8648  1.4632
14564SOL     OW47479   9.730   3.184   2.111 -0.7973  0.6272 -0.8811
14564SOL    HW147480   9.801   3.120   2.120 -1.3029 -0.5760 -4.1413
14564SOL    HW247481   9.728   3.230   2.195  0.4636 -2.7437  1.1908
14565SOL     OW47482   4.315   0.010   6.420  0.6043 -0.2324 -0.2329
14565SOL    HW147483   4.237  -0.027   6.378  0.3624 -3.5958  2.6548
14565SOL    HW247484   4.281   0.071   6.486  0.5068 -0.3020 -0.2187
14566SOL     OW47485   5.122   1.047   1.327  0.6058  0.4499 -0.4763
14566SOL    HW147486   5.161   1.061   1.413 -1.5001  1.4400  0.3896
14566SOL    HW247487   5.075   0.964   1.336 -0.8349  1.2689 -0.1482
14567SOL     OW47488   0.831   2.833   3.292 -0.1486  0.4965 -0.4580
14567SOL    HW147489   0.839   2.769   3.363  1.5202  1.8293  0.6671
14567SOL    HW247490   0.897   2.806   3.228  0.2345  0.7933 -0.1983
14568SOL     OW47491   7.665   1.776   6.209  0.5679  0.2346 -0.2908
14568SOL    HW147492   7.665   1.783   6.114 -1.2725  0.3663 -0.3037
14568SOL    HW247493   7.726   1.705   6.228  0.6423 -0.0595 -1.5880
14569SOL     OW47494   1.417   3.866   6.434 -0.0259  0.8810  1.2113
14569SOL    HW147495   1.378   3.839   6.517 -0.7375 -0.9846  0.3337
14569SOL    HW247496   1.481   3.798   6.414 -1.5045 -0.0372 -0.8484
14570SOL     OW47497   9.051   4.166   5.302  0.0842 -0.4518 -0.2669
14570SOL    HW147498   8.985   4.205   5.359 -0.1915 -2.4485  0.8784
14570SOL    HW247499   9.105   4.112   5.360  0.7498 -1.3634 -1.6678
14571SOL     OW47500   2.383   5.176   7.442 -0.4286  0.2384 -0.0489
14571SOL    HW147501   2.396   5.234   7.517 -4.3290  0.3521  0.7550
14571SOL    HW247502   2.359   5.235   7.370  0.6988 -0.0521 -0.6719
14572SOL     OW47503   6.280   0.318   7.493 -0.0643  0.5243 -0.1088
14572SOL    HW147504   6.202   0.305   7.439  0.3673  1.3433 -0.9550
14572SOL    HW247505   6.290   0.413   7.498  0.8254  0.4295  0.0784
14573SOL     OW47506   3.832   9.699   1.701 -0.3128  0.5559 -0.0954
14573SOL    HW147507   3.775   9.706   1.778 -0.7567  0.1931 -0.3860
14573SOL    HW247508   3.774   9.667   1.631  0.4610 -0.7481 -0.1607
14574SOL     OW47509   5.521   6.179   4.687 -0.1800 -0.0513 -0.4194
14574SOL    HW147510   5.448   6.135   4.731 -0.2122  0.3786 -0.0299
14574SOL    HW247511   5.571   6.109   4.647  0.1308 -0.5131  0.7338
14575SOL     OW47512   3.755   7.072   9.484 -0.0207  0.1750  0.1731
14575SOL    HW147513   3.817   7.144   9.470  1.1509 -0.6450  0.9212
14575SOL    HW247514   3.797   6.996   9.443 -0.6310 -0.3503  0.5116
14576SOL     OW47515   8.914  10.146   8.925 -0.2222  0.0715  0.2869
14576SOL    HW147516   8.932  10.235   8.896 -0.0118 -0.2301 -0.5333
14576SOL    HW247517   8.823  10.147   8.954 -0.2395  0.5320  0.2127
14577SOL     OW47518   1.139   6.056   5.083 -0.1174 -0.2355 -0.3463
14577SOL    HW147519   1.206   6.049   5.152 -0.9372  1.8459  0.7261
14577SOL    HW247520   1.077   5.986   5.104  0.5755 -0.7938 -0.0819
14578SOL     OW47521   4.848   4.723   5.991 -0.4716  0.5312  0.2987
14578SOL    HW147522   4.847   4.696   5.899  0.5642  0.9448  0.1546
14578SOL    HW247523   4.756   4.725   6.016 -1.2463  4.3870 -1.9295
14579SOL     OW47524   9.861   3.178   3.501 -0.4816 -0.1680 -0.0025
14579SOL    HW147525   9.871   3.220   3.587 -0.0376 -0.4137  0.0665
14579SOL    HW247526   9.947   3.139   3.483  0.0235  1.4515 -1.3860
14580SOL     OW47527   6.888   2.478   0.935  0.3731  0.0216  0.3734
14580SOL    HW147528   6.882   2.531   0.855  0.3758  0.7363  0.8391
14580SOL    HW247529   6.806   2.428   0.936  1.7225 -2.4982 -1.7706
14581SOL     OW47530  10.218   0.574   6.234 -0.3871  0.3663  0.6139
14581SOL    HW147531  10.135   0.606   6.268  0.7352  0.3921  3.6359
14581SOL    HW247532  10.274   0.565   6.311  1.8297 -1.4843 -1.0547
14582SOL     OW47533   8.541   4.920   2.119 -0.1097 -0.3164 -0.2571
14582SOL    HW147534   8.603   4.990   2.142  1.9056 -1.0189 -3.0549
14582SOL    HW247535   8.573   4.843   2.167  0.0961 -0.2588 -0.3028
14583SOL     OW47536   8.316   0.493   6.621 -0.1327  0.5977 -0.1195
14583SOL    HW147537   8.236   0.445   6.644  0.2553 -0.8410 -1.5401
14583SOL    HW247538   8.338   0.543   6.700 -1.3437 -0.5095  0.9677
14584SOL     OW47539   8.488   1.939   2.078  0.0969  0.6486 -0.1236
14584SOL    HW147540   8.494   1.848   2.048  0.1377  0.3106  0.8727
14584SOL    HW247541   8.406   1.971   2.042 -0.6627 -0.2594  0.7167
14585SOL     OW47542   3.543   5.344   9.848 -0.0002 -0.3585  0.1923
14585SOL    HW147543   3.581   5.432   9.850  0.8161 -0.6618 -0.9174
14585SOL    HW247544   3.471   5.350   9.786 -1.1845 -0.0325  1.5462
14586SOL     OW47545   4.981   7.201   7.786  0.4725 -0.1266  0.5916
14586SOL    HW147546   5.071   7.169   7.780  0.3504 -0.4883  0.7160
14586SOL    HW247547   4.984   7.287   7.744  0.7279 -0.4370 -0.0396
14587SOL     OW47548   0.992   5.174   0.104 -0.1677  0.0690  0.3029
14587SOL    HW147549   1.011   5.261   0.069  0.7840  0.1755  1.0471
14587SOL    HW247550   0.896   5.170   0.108 -0.2344  0.8031 -0.4069
14588SOL     OW47551   2.228   2.358   4.565  0.1115 -0.2643  0.6576
14588SOL    HW147552   2.194   2.301   4.634  0.5198 -1.9134 -0.4605
14588SOL    HW247553   2.207   2.313   4.483  1.8289  0.4134 -0.2054
14589SOL     OW47554   3.876   1.610   9.274 -0.4573  0.2063  0.1863
14589SOL    HW147555   3.910   1.562   9.350 -1.8172 -1.4167 -0.1683
14589SOL    HW247556   3.954   1.642   9.229  0.4628 -0.8005  1.0030
14590SOL     OW47557   0.819   7.087   3.508  0.3896 -0.2555 -0.2389
14590SOL    HW147558   0.727   7.115   3.506  0.3217 -0.3741  0.7330
14590SOL    HW247559   0.830   7.037   3.428  0.2227  1.6229 -1.5048
14591SOL     OW47560   6.414   9.682   1.767  0.6495  0.2221 -0.1288
14591SOL    HW147561   6.506   9.708   1.763  0.1598  2.0502 -0.2998
14591SOL    HW247562   6.412   9.614   1.835  2.1031  0.2199 -0.0525
14592SOL     OW47563   8.079   7.436   9.641  0.1506  0.3089  0.3947
14592SOL    HW147564   8.093   7.510   9.581  0.8337  0.9018  1.2450
14592SOL    HW247565   8.082   7.476   9.728 -3.1729 -0.1312  0.8245
14593SOL     OW47566   3.659  10.149   6.714 -0.1393  0.2185 -0.5470
14593SOL    HW147567   3.599  10.111   6.778  0.8554  0.3901  0.5325
14593SOL    HW247568   3.611  10.147   6.632 -1.7969  0.7708  0.3537
14594SOL     OW47569   3.729   4.489   9.010  0.4563 -0.1879 -0.2839
14594SOL    HW147570   3.817   4.453   9.019  0.5708  0.2554  0.3619
14594SOL    HW247571   3.734   4.576   9.049 -0.9311 -1.1789  2.3136
14595SOL     OW47572   8.692   4.570  10.147 -0.2914  0.3078 -0.3296
14595SOL    HW147573   8.608   4.573  10.193 -0.4060 -3.4244 -0.0209
14595SOL    HW247574   8.669   4.552  10.056  0.1677  1.0246 -0.6010
14596SOL     OW47575   3.281   1.608   3.628 -0.0163 -0.0796 -0.0915
14596SOL    HW147576   3.295   1.553   3.552  0.8983 -0.5806  0.4257
14596SOL    HW247577   3.368   1.622   3.665 -0.3809  0.6253  0.5415
14597SOL     OW47578   1.176   6.807   1.883 -0.3569  0.0158  0.0292
14597SOL    HW147579   1.083   6.815   1.904 -0.3302  0.1421  0.0978
14597SOL    HW247580   1.184   6.720   1.843 -0.9477  0.9794 -2.3106
14598SOL     OW47581   9.173   8.804   6.674 -0.2371 -0.2907  0.4830
14598SOL    HW147582   9.263   8.830   6.693 -0.2051 -0.2249  0.2383
14598SOL    HW247583   9.119   8.867   6.722 -0.1565 -0.0239  0.2260
14599SOL     OW47584   7.721   0.455   6.178 -0.2983  0.4622  0.4405
14599SOL    HW147585   7.776   0.455   6.256 -0.8809  1.6665  0.8755
14599SOL    HW247586   7.683   0.543   6.175 -2.5265 -0.4241  0.4003
14600SOL     OW47587   8.718   5.577   7.697 -0.6011 -0.0797 -0.2531
14600SOL    HW147588   8.699   5.671   7.699 -0.8558 -0.1182 -0.8767
14600SOL    HW247589   8.739   5.555   7.788  0.5799  0.8125 -0.2823
14601SOL     OW47590   8.554   0.595   8.844 -0.8179  0.4210 -0.6241
14601SOL    HW147591   8.617   0.567   8.778 -0.8204 -0.3017 -0.3301
14601SOL    HW247592   8.567   0.533   8.916  0.3213  2.1481  0.7375
14602SOL     OW47593   9.992   2.220   0.957 -0.1541 -0.1328  0.2694
14602SOL    HW147594  10.000   2.125   0.947 -1.9689 -0.3479  0.5635
14602SOL    HW247595   9.958   2.250   0.872  3.0454  0.7056 -0.8753
14603SOL     OW47596   9.270   4.775   9.337  0.0547 -0.4508 -0.2661
14603SOL    HW147597   9.347   4.721   9.355 -0.6344 -1.6291 -0.7120
14603SOL    HW247598   9.247   4.754   9.246 -0.0013  0.9234 -0.5988
14604SOL     OW47599   8.821   3.268   9.927  0.3537  0.0216  0.1198
14604SOL    HW147600   8.827   3.206   9.854  1.8726  2.8278 -2.3564
14604SOL    HW247601   8.729   3.268   9.950 -0.2459 -0.7789 -2.0059
14605SOL     OW47602   2.492   4.759   0.853 -0.8316  0.3163 -0.4340
14605SOL    HW147603   2.573   4.740   0.901 -0.3981 -0.2499 -1.3341
14605SOL    HW247604   2.429   4.786   0.920 -0.1552 -0.1068  0.3958
14606SOL     OW47605   9.135   5.705   1.617 -0.2169 -0.2921  0.6110
14606SOL    HW147606   9.188   5.785   1.608  0.1803 -0.5114  0.9658
14606SOL    HW247607   9.046   5.734   1.597  0.1275 -0.0662 -0.6628
14607SOL     OW47608   6.183   9.336   1.513  0.8338  0.0552  0.3390
14607SOL    HW147609   6.217   9.423   1.530 -0.5098  0.7929 -0.5751
14607SOL    HW247610   6.168   9.299   1.600  0.7432  1.0070  0.7417
14608SOL     OW47611   3.434   8.291   6.892  0.0192  0.6224 -0.2727
14608SOL    HW147612   3.435   8.238   6.971  0.8422  1.6324  0.4189
14608SOL    HW247613   3.512   8.263   6.844 -1.1329 -0.8966 -1.4057
14609SOL     OW47614   4.866   9.605  10.257  0.0980  0.4128  0.2524
14609SOL    HW147615   4.877   9.655  10.176  2.0508 -0.1548  0.1263
14609SOL    HW247616   4.842   9.517  10.228 -0.2348  0.4682  0.3502
14610SOL     OW47617   6.773   0.081   2.147  0.4136  0.0601 -0.3541
14610SOL    HW147618   6.809   0.130   2.073  1.3379 -1.5982 -1.0676
14610SOL    HW247619   6.728   0.007   2.106 -0.5056  0.0101  0.7099
14611SOL     OW47620   7.443   6.418  10.159 -0.0194 -0.2539  0.0328
14611SOL    HW147621   7.504   6.385  10.092 -0.4742  0.0284 -0.5317
14611SOL    HW247622   7.374   6.352  10.163 -0.1108 -0.1583  0.0507
14612SOL     OW47623   2.502   6.050   2.364 -0.1426  0.2225  0.0669
14612SOL    HW147624   2.576   5.996   2.338 -0.0339  0.3531  0.1046
14612SOL    HW247625   2.523   6.137   2.330 -0.9226 -0.0303 -1.1563
14613SOL     OW47626   1.495   5.169   0.269  0.1777  0.1773 -0.4325
14613SOL    HW147627   1.400   5.161   0.259  0.3401  0.0349 -2.1911
14613SOL    HW247628   1.530   5.098   0.215  1.2884  0.5242 -0.1851
14614SOL     OW47629   7.321   6.685   3.151 -0.6237  0.3392 -0.3933
14614SOL    HW147630   7.406   6.671   3.193 -0.8654 -0.1625 -0.0574
14614SOL    HW247631   7.258   6.676   3.222 -1.1344 -1.7140 -1.0478
14615SOL     OW47632   3.576   3.692   4.593 -0.5917  0.4068 -0.1167
14615SOL    HW147633   3.503   3.748   4.567 -0.8829  0.7199  1.3317
14615SOL    HW247634   3.541   3.636   4.662  0.6685  0.9488  1.0022
14616SOL     OW47635   6.228   2.452   9.420 -0.1589  0.1174 -0.5797
14616SOL    HW147636   6.217   2.358   9.409  1.6003 -0.0244 -1.3498
14616SOL    HW247637   6.225   2.465   9.515 -1.9627 -0.4647 -0.5147
14617SOL     OW47638  10.016   7.337   0.383  0.4407  0.1389 -0.7449
14617SOL    HW147639   9.986   7.396   0.452 -3.3012 -0.2697 -1.7955
14617SOL    HW247640  10.021   7.392   0.304  0.8172 -0.1593 -0.9321
14618SOL     OW47641   1.042   9.158   9.585  0.0563  0.3009 -0.6087
14618SOL    HW147642   0.947   9.146   9.588  0.0054 -0.1222 -2.6847
14618SOL    HW247643   1.061   9.214   9.661 -2.1255  2.1972 -1.3372
14619SOL     OW47644   7.654   2.564   9.464  0.2248  0.1855 -0.1267
14619SOL    HW147645   7.598   2.503   9.417  1.2042  0.0710 -1.1891
14619SOL    HW247646   7.690   2.513   9.536  1.6037 -0.7584 -1.4173
14620SOL     OW47647   3.484   6.574   5.618  0.1142 -0.2308 -0.1495
14620SOL    HW147648   3.454   6.607   5.534 -0.3131  2.0419  0.8285
14620SOL    HW247649   3.440   6.489   5.628 -0.9117  0.1051 -1.5814
14621SOL     OW47650   3.718   5.628   1.206 -0.1804  0.2139  0.0937
14621SOL    HW147651   3.790   5.675   1.248 -0.7611  1.7364 -0.5478
14621SOL    HW247652   3.639   5.661   1.250 -0.7408  1.2439 -1.5841
14622SOL     OW47653   1.466   2.444   8.320 -0.4885  0.2002  0.2649
14622SOL    HW147654   1.415   2.388   8.261 -1.2038  0.7671  0.3317
14622SOL    HW247655   1.457   2.401   8.406 -1.3052  0.5753  0.3781
14623SOL     OW47656   3.992   7.782   1.114 -0.1328 -0.7759 -0.1792
14623SOL    HW147657   4.057   7.714   1.132 -0.0511 -0.4676  0.7193
14623SOL    HW247658   3.969   7.769   1.022  0.9689 -1.0882 -0.4205
14624SOL     OW47659   9.111   8.790   9.183  0.3144 -0.0916  0.1643
14624SOL    HW147660   9.040   8.735   9.217 -0.1684 -0.9882 -2.1013
14624SOL    HW247661   9.070   8.875   9.168 -0.2609 -0.5312 -0.8815
14625SOL     OW47662   2.233   3.884   1.664  0.2389 -0.0972  0.3121
14625SOL    HW147663   2.280   3.948   1.716 -0.4317  1.2548 -0.6947
14625SOL    HW247664   2.148   3.875   1.708  0.8585 -1.4781  1.3162
14626SOL     OW47665   2.275   2.835   2.952 -0.0345 -0.0911 -0.2763
14626SOL    HW147666   2.280   2.747   2.915 -3.8946 -0.3140 -0.6618
14626SOL    HW247667   2.231   2.888   2.886  0.9231  1.8271  0.5197
14627SOL     OW47668   6.184   4.684   0.736 -0.1520 -0.6119 -0.0840
14627SOL    HW147669   6.194   4.731   0.818  0.4866 -1.2411  0.2156
14627SOL    HW247670   6.091   4.665   0.729 -0.9268  2.9100 -1.4822
14628SOL     OW47671   8.489   1.315   5.998 -0.3222  0.2795 -0.4957
14628SOL    HW147672   8.559   1.379   5.999 -0.1491  0.1154 -1.2398
14628SOL    HW247673   8.534   1.230   5.993 -0.5276  0.0449  1.1687
14629SOL     OW47674   5.856   1.957   5.067  0.5750  0.2262 -0.1920
14629SOL    HW147675   5.824   1.910   5.144 -0.9910  0.6946 -0.5221
14629SOL    HW247676   5.849   1.893   4.995  1.8916 -0.1619 -0.0045
14630SOL     OW47677   1.007   5.847   6.916  0.1560 -0.1079 -0.2827
14630SOL    HW147678   0.940   5.782   6.894 -0.5879  0.6638 -0.3574
14630SOL    HW247679   0.958   5.925   6.940  0.9466 -0.4090  2.7269
14631SOL     OW47680   4.527   4.005   9.067 -0.4273 -0.7722 -0.3710
14631SOL    HW147681   4.561   4.076   9.121 -3.9258  0.0205  1.0234
14631SOL    HW247682   4.541   3.926   9.119  6.0375 -2.0081 -3.0263
14632SOL     OW47683   8.583   0.885   6.699 -0.4079  0.0815 -0.0799
14632SOL    HW147684   8.494   0.913   6.719 -0.7678 -1.4584  0.5816
14632SOL    HW247685   8.615   0.848   6.781  1.1842  1.4203 -0.0468
14633SOL     OW47686   8.219   2.675  10.206 -0.1080  0.3754  0.4811
14633SOL    HW147687   8.263   2.714  10.130  1.4173 -0.9936  0.6013
14633SOL    HW247688   8.189   2.590  10.174 -1.7213  0.8068  0.7407
14634SOL     OW47689   8.487   8.524   7.279  0.0203 -0.2027 -0.2279
14634SOL    HW147690   8.541   8.478   7.215 -0.1748 -2.2720  1.0128
14634SOL    HW247691   8.402   8.480   7.275 -0.5754  0.8748  0.1572
14635SOL     OW47692   6.294   3.683   8.519  0.0176 -0.0126 -0.1974
14635SOL    HW147693   6.250   3.603   8.489  1.3397 -0.5497 -0.7630
14635SOL    HW247694   6.387   3.661   8.518  0.3803  1.4381 -0.0305
14636SOL     OW47695   6.779   3.293   2.074 -0.4196  0.0513 -0.8434
14636SOL    HW147696   6.775   3.355   2.001  1.2560  1.1680 -0.0490
14636SOL    HW247697   6.872   3.273   2.083 -0.8228 -1.7988 -0.3920
14637SOL     OW47698   8.285   0.775   9.904  0.0022 -0.4017 -0.1541
14637SOL    HW147699   8.320   0.855   9.942  0.4741 -0.5367 -0.2964
14637SOL    HW247700   8.359   0.737   9.856  0.7307 -2.5340  2.4450
14638SOL     OW47701   9.706   7.528   3.286 -0.1314 -0.0161 -0.1275
14638SOL    HW147702   9.788   7.549   3.242  0.7130 -1.7796  0.5089
14638SOL    HW247703   9.732   7.500   3.374 -1.2662 -1.9419 -0.3484
14639SOL     OW47704   7.450   1.614   7.240  0.4862  0.1963 -0.5633
14639SOL    HW147705   7.501   1.636   7.161  0.0600 -1.1449 -1.2410
14639SOL    HW247706   7.495   1.660   7.311  2.5714 -0.7867 -1.1544
14640SOL     OW47707   4.756   0.143   8.432  0.6630  0.2157 -0.7107
14640SOL    HW147708   4.766   0.075   8.499  0.3107  1.3415  0.4997
14640SOL    HW247709   4.844   0.178   8.419  0.6081  0.5047 -0.2966
14641SOL     OW47710   2.366   6.287   2.489 -0.2221 -0.1506  0.4441
14641SOL    HW147711   2.450   6.284   2.443 -0.7067  1.7117 -0.6830
14641SOL    HW247712   2.309   6.230   2.438 -0.3620  0.7623 -0.4499
14642SOL     OW47713   3.722   7.748   1.737 -0.1524 -0.1030  0.5385
14642SOL    HW147714   3.754   7.805   1.668 -1.8803  0.3189  0.0377
14642SOL    HW247715   3.718   7.803   1.815 -1.1082  0.2948  0.2282
14643SOL     OW47716   1.828   2.443   8.261 -0.2653 -0.5266  0.5101
14643SOL    HW147717   1.780   2.361   8.255 -0.0671 -1.0318  3.7644
14643SOL    HW247718   1.885   2.432   8.338  2.7240  1.2274 -1.2418
14644SOL     OW47719   6.415   6.480   3.490 -0.2672 -0.2978 -0.2549
14644SOL    HW147720   6.490   6.431   3.458  1.5523  2.0161  0.2151
14644SOL    HW247721   6.391   6.437   3.572  1.8190  0.0615  0.5856
14645SOL     OW47722   8.989   0.886   9.666 -0.0325  0.5892  0.2491
14645SOL    HW147723   9.070   0.845   9.695  0.0797  0.2778 -0.4567
14645SOL    HW247724   8.984   0.969   9.713 -0.2093 -0.1820  1.6358
14646SOL     OW47725   0.486   8.314   2.599  0.2101 -0.3475 -0.2168
14646SOL    HW147726   0.454   8.281   2.683 -1.9656 -1.3755 -1.3549
14646SOL    HW247727   0.582   8.314   2.608  0.0465 -0.4895  2.1996
14647SOL     OW47728   2.987   0.884   5.328 -0.2890  0.0990 -0.0429
14647SOL    HW147729   3.032   0.802   5.307 -0.1175  0.0059  0.6524
14647SOL    HW247730   2.921   0.859   5.394 -0.0835  0.5539  0.3399
14648SOL     OW47731   7.951  10.199   0.427 -0.1611  0.1896 -0.4135
14648SOL    HW147732   7.945  10.285   0.384 -1.0843  0.1835 -0.3335
14648SOL    HW247733   8.042  10.191   0.453 -0.0665  1.1652 -0.4052
14649SOL     OW47734   0.607   3.020   9.865  0.3443  0.7344  0.1821
14649SOL    HW147735   0.568   2.933   9.860 -1.0121  1.3674 -1.4321
14649SOL    HW247736   0.597   3.046   9.956 -0.0672 -0.4285  0.4876
14650SOL     OW47737   0.524   1.378   4.245  0.2766  0.1398  0.2605
14650SOL    HW147738   0.606   1.406   4.286  0.9204  0.2404 -1.0434
14650SOL    HW247739   0.525   1.282   4.251 -0.6551  0.1950  2.3188
14651SOL     OW47740   3.109   9.297   0.426  0.1727 -0.9982 -0.2050
14651SOL    HW147741   3.183   9.356   0.438 -1.5079  1.1863 -0.1149
14651SOL    HW247742   3.129   9.222   0.483  1.0422  0.7781  1.9532
14652SOL     OW47743   2.444   1.752   4.000 -0.2749  0.0196 -0.0888
14652SOL    HW147744   2.536   1.764   3.980 -0.6081  1.2306 -0.9803
14652SOL    HW247745   2.409   1.841   4.008 -1.1827 -0.4114  1.1813
14653SOL     OW47746   7.134   1.249   0.916 -0.2895  0.2025  0.3274
14653SOL    HW147747   7.125   1.340   0.886  0.8974  0.4997  0.8179
14653SOL    HW247748   7.229   1.235   0.920 -0.4495 -0.6980  1.3327
14654SOL     OW47749   0.567   1.741   6.222 -0.0572  0.0362  0.0343
14654SOL    HW147750   0.517   1.684   6.280  1.1186 -0.0167  1.0229
14654SOL    HW247751   0.571   1.825   6.268  0.0139  0.3058 -0.4515
14655SOL     OW47752   4.889   0.847   2.609  0.2167 -0.0227  0.5712
14655SOL    HW147753   4.811   0.795   2.625 -1.0880  1.9483  1.0085
14655SOL    HW247754   4.896   0.852   2.513  0.0205 -0.5179  0.5309
14656SOL     OW47755   2.630   9.926   7.159  0.3849 -0.0839 -0.5278
14656SOL    HW147756   2.644   9.849   7.214 -0.6338  0.2753  0.2639
14656SOL    HW247757   2.543   9.912   7.121  0.7267  0.0822 -1.3909
14657SOL     OW47758   2.738   5.649   0.291 -0.8651  0.0024 -0.2639
14657SOL    HW147759   2.721   5.556   0.273 -1.4921  0.2174 -0.8484
14657SOL    HW247760   2.720   5.659   0.384  1.4987 -0.9470  0.3762
14658SOL     OW47761   6.738   8.423   2.645  0.2110 -0.1537  0.0303
14658SOL    HW147762   6.668   8.388   2.590 -0.1969 -0.9893  1.0359
14658SOL    HW247763   6.817   8.412   2.592 -0.2170 -0.5978 -0.5399
14659SOL     OW47764   7.650   3.543   2.095 -0.3288 -0.0618  0.2208
14659SOL    HW147765   7.739   3.509   2.105 -0.5540 -0.8035 -0.2592
14659SOL    HW247766   7.598   3.497   2.161 -0.3563  0.4003  0.5294
14660SOL     OW47767   3.052   4.570   3.655  0.0959  0.6666 -0.2995
14660SOL    HW147768   2.974   4.521   3.684  0.1273  1.3751  1.0381
14660SOL    HW247769   3.125   4.511   3.674  0.1091  1.0782  1.0623
14661SOL     OW47770   1.668   5.422   6.552  0.6493  0.1654  0.6712
14661SOL    HW147771   1.720   5.348   6.585  0.5203  0.3794  1.3756
14661SOL    HW247772   1.625   5.457   6.630  0.9614  1.1844  0.3942
14662SOL     OW47773   7.935   9.593   4.037  0.6748  0.5389  0.0587
14662SOL    HW147774   7.849   9.626   4.010  0.7650  0.4876 -0.3059
14662SOL    HW247775   7.932   9.500   4.015  1.3744  0.8331 -1.4343
14663SOL     OW47776   0.356   6.535   1.576 -0.1184 -0.5220  0.3548
14663SOL    HW147777   0.329   6.460   1.522 -1.0280 -0.3298  0.5258
14663SOL    HW247778   0.294   6.535   1.649  1.3321 -1.0196  1.6377
14664SOL     OW47779   4.646   3.645   5.874  0.4337 -0.1439  0.0766
14664SOL    HW147780   4.635   3.611   5.962  2.8261  0.4755  0.7028
14664SOL    HW247781   4.676   3.569   5.823 -3.7714 -1.2662 -1.0672
14665SOL     OW47782   1.158   7.311   4.763  0.2331  0.0760 -0.1185
14665SOL    HW147783   1.171   7.230   4.713  0.3832 -0.7318  1.1866
14665SOL    HW247784   1.122   7.373   4.699  0.7039 -0.8171 -1.2937
14666SOL     OW47785   7.118   1.761   8.604  0.7634  0.2148  0.0708
14666SOL    HW147786   7.059   1.836   8.611  0.5271  0.0473 -0.1287
14666SOL    HW247787   7.159   1.770   8.518  0.8714  0.2114  0.1206
14667SOL     OW47788   8.658   2.397   6.598 -0.3671 -0.5081 -0.0364
14667SOL    HW147789   8.753   2.403   6.605 -0.1009 -3.6808  0.8494
14667SOL    HW247790   8.639   2.413   6.505  1.4080 -2.4910 -0.8281
14668SOL     OW47791   6.105   1.245   7.326 -0.2331 -1.0677  0.0174
14668SOL    HW147792   6.059   1.182   7.380  0.3605 -1.7197 -0.2273
14668SOL    HW247793   6.193   1.250   7.364 -0.3372 -0.2234  0.1715
14669SOL     OW47794   9.683   5.087   9.613 -0.4526 -0.2947  0.2474
14669SOL    HW147795   9.746   5.141   9.661 -0.6004  0.9761 -0.9096
14669SOL    HW247796   9.697   5.111   9.521 -1.2392 -1.5028 -0.2065
14670SOL     OW47797   4.468   7.881  10.328  0.7908 -0.8430 -0.0603
14670SOL    HW147798   4.432   7.962  10.367  1.4182 -0.4014 -0.3847
14670SOL    HW247799   4.393   7.843  10.281  0.5955 -0.2086 -0.2852
14671SOL     OW47800   0.309   3.133   3.928  0.3601 -0.5048 -0.2219
14671SOL    HW147801   0.238   3.197   3.936 -0.8784 -1.8601  0.0918
14671SOL    HW247802   0.300   3.098   3.839 -0.2806 -1.6891  0.2915
14672SOL     OW47803   1.157   3.468   8.401 -0.0837  0.4906  0.1263
14672SOL    HW147804   1.090   3.403   8.380  1.3778 -0.6203 -1.2794
14672SOL    HW247805   1.232   3.417   8.431  1.2443  1.4685 -1.3865
14673SOL     OW47806   7.206   9.365   8.319  0.2303  0.1359 -0.2421
14673SOL    HW147807   7.189   9.343   8.411  0.2026  0.1268 -0.2488
14673SOL    HW247808   7.292   9.327   8.300  0.9937  1.5339  0.2477
14674SOL     OW47809   9.627   9.295   9.780  0.3533  0.8061 -0.3122
14674SOL    HW147810   9.582   9.230   9.726 -1.6313  3.7820 -2.5836
14674SOL    HW247811   9.708   9.315   9.731 -0.4106  1.9651 -1.1636
14675SOL     OW47812   8.312   1.519   7.021 -0.2117 -0.2724 -0.1444
14675SOL    HW147813   8.306   1.612   7.041 -2.2553  0.2550 -2.6990
14675SOL    HW247814   8.224   1.485   7.038 -0.1238 -1.2001 -1.4000
14676SOL     OW47815   3.017   4.722   9.358  0.2369  0.0434  0.0457
14676SOL    HW147816   2.994   4.731   9.451  0.6755  0.5816  0.1102
14676SOL    HW247817   3.105   4.758   9.352  1.1197 -2.0672 -0.1864
14677SOL     OW47818   4.482   8.773   3.235 -0.0868  0.2919 -0.3794
14677SOL    HW147819   4.548   8.704   3.236 -3.2285 -2.9503  0.0307
14677SOL    HW247820   4.448   8.773   3.145 -0.3457  1.1190 -0.2947
14678SOL     OW47821   6.647   1.276   1.120  0.5035  0.0231 -0.3759
14678SOL    HW147822   6.734   1.272   1.079  0.9880 -1.4786  0.7329
14678SOL    HW247823   6.655   1.222   1.198 -1.2496  0.4431  0.1253
14679SOL     OW47824   4.651   5.254   4.410 -0.0069 -0.3047 -0.2125
14679SOL    HW147825   4.741   5.284   4.404 -0.1694  0.0103 -1.3484
14679SOL    HW247826   4.620   5.254   4.319 -0.4523 -2.5661 -0.1159
14680SOL     OW47827   8.180   5.424   5.860 -0.1425 -0.0028  0.2339
14680SOL    HW147828   8.145   5.473   5.785 -0.2619  0.1759  0.4056
14680SOL    HW247829   8.189   5.490   5.929  0.7297 -0.0090  0.1283
14681SOL     OW47830   6.772   9.479   9.069  0.0768  0.5525 -0.0900
14681SOL    HW147831   6.850   9.443   9.113 -0.3124 -0.9564 -0.5733
14681SOL    HW247832   6.805   9.511   8.985  0.2476  0.3222 -0.1128
14682SOL     OW47833   1.678   6.027  10.334  0.1946  0.5710 -0.2602
14682SOL    HW147834   1.630   6.079  10.399  1.4395 -0.4115  1.5426
14682SOL    HW247835   1.680   5.939  10.372  0.6723 -0.1200 -1.8380
14683SOL     OW47836   3.832   4.727   4.698 -0.1803  0.2471  0.3959
14683SOL    HW147837   3.823   4.811   4.742  0.2738  0.7616 -0.4699
14683SOL    HW247838   3.793   4.664   4.758 -0.7331  1.1050  0.9478
14684SOL     OW47839   6.433   5.296   8.957  0.5011 -1.1400  0.1760
14684SOL    HW147840   6.410   5.232   9.025  0.5176 -2.2125 -0.8043
14684SOL    HW247841   6.370   5.279   8.887  2.5293 -2.3123 -1.4535
14685SOL     OW47842  10.187   6.475   8.729  0.0545  0.6669  0.0589
14685SOL    HW147843  10.128   6.400   8.735 -1.0163  1.5721  1.2176
14685SOL    HW247844  10.213   6.493   8.819  0.8242  1.3064 -0.2775
14686SOL     OW47845   5.471   1.323   3.812  0.3591  0.1432 -0.7675
14686SOL    HW147846   5.535   1.253   3.829 -0.0173  0.0368  0.2635
14686SOL    HW247847   5.386   1.282   3.828  0.1485  0.8909  0.0752
14687SOL     OW47848   2.567   1.773   4.784 -0.3146 -0.6370 -0.8585
14687SOL    HW147849   2.530   1.772   4.696 -0.0482  0.9589 -1.0223
14687SOL    HW247850   2.501   1.816   4.838 -0.2906 -1.2098 -0.3540
14688SOL     OW47851   4.713   2.535   2.280  0.2966 -0.0483 -0.1552
14688SOL    HW147852   4.809   2.531   2.271  0.1847 -0.2817 -1.3243
14688SOL    HW247853   4.697   2.504   2.370  1.2195 -1.4907 -0.4442
14689SOL     OW47854   2.286   3.514   5.638  0.1228  0.0257 -0.3048
14689SOL    HW147855   2.234   3.503   5.717 -0.3082 -2.2281 -0.8382
14689SOL    HW247856   2.366   3.559   5.668 -0.7429  0.7192  1.0706
14690SOL     OW47857   3.447   6.879   2.420 -0.3844 -0.8163 -0.0459
14690SOL    HW147858   3.505   6.897   2.347  1.5807 -0.3806  1.5452
14690SOL    HW247859   3.373   6.939   2.408  1.0610  0.9598 -0.4194
14691SOL     OW47860   1.005   2.955   4.415  0.2733  0.5108 -0.4345
14691SOL    HW147861   1.024   2.863   4.433  1.3800  0.9677  0.8469
14691SOL    HW247862   0.914   2.955   4.383  0.0153 -0.9291  0.2421
14692SOL     OW47863   7.938   2.324   4.831  0.1222 -0.0060 -0.4549
14692SOL    HW147864   7.878   2.344   4.759 -2.2281 -2.0827  0.7778
14692SOL    HW247865   7.965   2.234   4.816 -0.0042 -0.3074  0.9577
14693SOL     OW47866   7.360   0.864   6.111  0.3155  0.0138 -0.3759
14693SOL    HW147867   7.424   0.823   6.051  0.3196 -0.8264  0.1791
14693SOL    HW247868   7.281   0.811   6.101  0.6592 -0.8502  1.1694
14694SOL     OW47869   5.013   6.531   6.107 -0.2059 -0.0700 -0.9000
14694SOL    HW147870   5.013   6.626   6.101 -0.2032 -0.1396 -2.1243
14694SOL    HW247871   5.093   6.510   6.155 -0.3808  0.5504 -0.3191
14695SOL     OW47872   0.818   6.057   7.045  0.2561  0.0137 -0.0138
14695SOL    HW147873   0.823   6.054   7.141  1.0368 -2.0325 -0.0645
14695SOL    HW247874   0.737   6.011   7.024  0.8212 -0.8315 -0.3718
14696SOL     OW47875   6.331   6.875   9.289  1.0582 -0.2761  0.1420
14696SOL    HW147876   6.392   6.803   9.279  0.2888 -1.0296  0.6924
14696SOL    HW247877   6.333   6.920   9.204 -0.7084 -2.7725 -1.3974
14697SOL     OW47878   1.605   1.551   7.646  0.4194  0.2143  0.0587
14697SOL    HW147879   1.651   1.575   7.565  0.4936  0.9331  0.3071
14697SOL    HW247880   1.552   1.475   7.622  1.0337 -0.0562 -0.4686
14698SOL     OW47881   3.106   7.313   6.362  0.6972  0.5139 -0.0516
14698SOL    HW147882   3.115   7.354   6.276  2.0145 -1.0693 -0.7213
14698SOL    HW247883   3.012   7.296   6.370  0.2610  2.5575 -0.2190
14699SOL     OW47884   7.688   6.526   9.918  0.2851 -0.4610 -0.2161
14699SOL    HW147885   7.603   6.562   9.894 -0.1142 -0.3139  1.3291
14699SOL    HW247886   7.745   6.546   9.843  0.1428  3.5813  0.5358
14700SOL     OW47887   7.573   5.844   5.802 -0.1881 -0.0870  0.5173
14700SOL    HW147888   7.565   5.750   5.820  0.9833 -0.1493  0.7655
14700SOL    HW247889   7.617   5.879   5.879  0.3307  0.4916 -0.0373
14701SOL     OW47890   3.958   6.488   5.357  0.6995 -0.1766 -0.4788
14701SOL    HW147891   3.886   6.433   5.388  0.5430  0.5271  0.4443
14701SOL    HW247892   4.032   6.463   5.413  0.5352  0.7855  0.1918
14702SOL     OW47893   0.916   7.242   9.466  0.6323 -0.1826  0.2563
14702SOL    HW147894   0.965   7.307   9.416  0.0440  0.3894  0.4168
14702SOL    HW247895   0.915   7.164   9.410 -1.3528  0.9182 -1.3708
14703SOL     OW47896   7.614   3.923   1.738  0.2924 -0.2008 -0.1247
14703SOL    HW147897   7.690   3.919   1.796 -1.3772  1.1879  2.3212
14703SOL    HW247898   7.637   3.991   1.674  1.0993  0.2382  0.6136
14704SOL     OW47899   7.126   0.268   1.896 -0.1435 -0.2159  0.1129
14704SOL    HW147900   7.056   0.325   1.863 -1.3604 -1.0868  1.1046
14704SOL    HW247901   7.200   0.287   1.839 -0.4375  2.4602  0.4756
14705SOL     OW47902   1.631   3.347   9.117  0.1288  0.2412  0.3483
14705SOL    HW147903   1.721   3.313   9.118  0.2693  0.5847 -0.5312
14705SOL    HW247904   1.641   3.441   9.127 -0.1756  0.2074  0.9820
14706SOL     OW47905   9.718   7.647   8.223 -0.5892  0.3247 -0.1628
14706SOL    HW147906   9.730   7.554   8.241 -1.3259 -0.0085 -1.3049
14706SOL    HW247907   9.792   7.672   8.169 -0.4525  0.3751  0.0473
14707SOL     OW47908   9.382   5.858   9.801  0.3952  0.5151 -0.1304
14707SOL    HW147909   9.332   5.831   9.724 -0.2735 -0.6378  0.6740
14707SOL    HW247910   9.454   5.796   9.806  1.3540  1.5501 -0.7012
14708SOL     OW47911   3.827   6.667   9.910 -0.6550  0.2399 -0.0942
14708SOL    HW147912   3.738   6.686   9.878 -0.3165  1.3829 -0.3857
14708SOL    HW247913   3.840   6.728   9.983 -0.3884 -0.4642  0.4620
14709SOL     OW47914   3.952   5.485   4.426  0.3916 -0.1890 -0.0476
14709SOL    HW147915   3.877   5.492   4.367  2.5136  0.2165 -2.9710
14709SOL    HW247916   3.980   5.394   4.419  0.1537 -0.3522  1.0609
14710SOL     OW47917   0.812   3.713   3.123  0.2039 -0.1033 -0.0471
14710SOL    HW147918   0.846   3.746   3.207  0.0483 -0.6001  0.2116
14710SOL    HW247919   0.737   3.659   3.147  0.8819 -1.2493 -0.3972
14711SOL     OW47920   4.635   8.058   2.020 -0.1477 -0.3658  0.2650
14711SOL    HW147921   4.653   8.065   1.926  0.3890  2.8887  0.5064
14711SOL    HW247922   4.573   8.128   2.038  0.3580 -0.4306  2.4895
14712SOL     OW47923  10.324   7.405   1.965 -0.6336 -0.5243  0.4851
14712SOL    HW147924  10.342   7.447   2.050  1.4118 -2.3356  1.0481
14712SOL    HW247925  10.244   7.355   1.980 -0.9003  0.0326  0.9970
14713SOL     OW47926   6.593   4.540   2.378  0.1862  0.4756 -0.1890
14713SOL    HW147927   6.655   4.539   2.452  0.7994  1.7308 -0.6530
14713SOL    HW247928   6.648   4.530   2.301 -0.3056  0.5796 -0.5566
14714SOL     OW47929   1.181   9.126   9.284 -0.1617 -0.1530 -0.6010
14714SOL    HW147930   1.216   9.038   9.275 -0.2718 -0.2277 -0.3036
14714SOL    HW247931   1.136   9.126   9.369  0.0887  0.2724 -0.4629
14715SOL     OW47932   0.534   6.859   4.306  0.4970  0.0977 -0.3277
14715SOL    HW147933   0.567   6.949   4.300  0.0004  0.3207  0.2584
14715SOL    HW247934   0.495   6.842   4.220 -1.1052  1.1204  0.1503
14716SOL     OW47935   3.587   4.784   5.289  0.0597  0.0893 -0.1603
14716SOL    HW147936   3.534   4.735   5.353  0.6655  0.4373  0.6216
14716SOL    HW247937   3.674   4.790   5.329  0.5259  0.0822 -1.1448
14717SOL     OW47938   3.258   8.232   1.615 -0.0357  0.3152  0.0679
14717SOL    HW147939   3.311   8.233   1.535  0.1618 -1.5298  0.1532
14717SOL    HW247940   3.318   8.200   1.683 -0.4928  0.9008  0.7682
14718SOL     OW47941   8.981   2.881   4.029  0.0165 -0.5354  0.2716
14718SOL    HW147942   9.040   2.908   4.099 -0.7582 -0.0815  0.7523
14718SOL    HW247943   8.962   2.789   4.048 -0.0430 -0.4656  0.5487
14719SOL     OW47944  10.260   6.107   4.934  0.2441  0.5766  0.2119
14719SOL    HW147945  10.177   6.060   4.925  0.3340  0.1168  1.5403
14719SOL    HW247946  10.325   6.046   4.899  0.2430  0.1280  0.9861
14720SOL     OW47947   0.896   4.094   5.664 -0.0132 -0.3587  0.0659
14720SOL    HW147948   0.959   4.022   5.659 -0.1995 -0.6347  1.3028
14720SOL    HW247949   0.950   4.172   5.681  0.0549 -0.4992  0.5181
14721SOL     OW47950   2.502   5.037   9.545  0.1713 -0.7018  0.2909
14721SOL    HW147951   2.566   5.010   9.480  0.5927 -0.1389  0.4736
14721SOL    HW247952   2.434   4.969   9.541 -0.5715  0.0753 -1.7885
14722SOL     OW47953   8.904   2.193   4.543 -0.3447  0.1337 -0.7689
14722SOL    HW147954   8.996   2.202   4.522 -0.3999 -0.2686 -1.1983
14722SOL    HW247955   8.859   2.248   4.479 -0.4979 -0.9276 -1.6091
14723SOL     OW47956   1.315   4.224   9.799 -0.6340 -0.1059 -0.0234
14723SOL    HW147957   1.354   4.312   9.799 -1.6898  0.3863  1.2049
14723SOL    HW247958   1.258   4.225   9.722  2.4926 -1.2626 -2.6263
14724SOL     OW47959   4.400   8.185   9.441  0.3532 -1.1203 -0.6200
14724SOL    HW147960   4.444   8.117   9.492 -0.3881 -0.4896  0.9154
14724SOL    HW247961   4.342   8.137   9.382  0.8624 -1.8500 -0.5385
14725SOL     OW47962   7.943   5.296   9.088 -0.5654 -0.2212  0.7695
14725SOL    HW147963   7.881   5.235   9.047 -0.9012  2.0646 -2.4724
14725SOL    HW247964   8.026   5.279   9.044 -0.2620  0.5425  1.0275
14726SOL     OW47965   4.594   5.581   2.584  0.2144  0.6029  0.6286
14726SOL    HW147966   4.505   5.590   2.550  0.2885  1.9979  0.7641
14726SOL    HW247967   4.622   5.494   2.555 -2.6246 -1.6846  4.0038
14727SOL     OW47968   9.774   5.534  10.018 -0.4513 -0.6844 -0.4021
14727SOL    HW147969   9.683   5.516   9.994 -0.9235 -0.1672  0.9145
14727SOL    HW247970   9.771   5.619  10.062  0.5831 -0.9142  0.1432
14728SOL     OW47971   5.623   9.257   9.347  0.1174 -0.4828  0.2421
14728SOL    HW147972   5.608   9.173   9.391 -0.2736 -0.5421 -0.0005
14728SOL    HW247973   5.553   9.314   9.379  1.6672  0.4744  2.1881
14729SOL     OW47974   9.552   6.797  10.290 -0.1723 -0.2785  0.0894
14729SOL    HW147975   9.629   6.816  10.344  0.9014  0.0466 -1.4814
14729SOL    HW247976   9.586   6.741  10.220 -1.5106 -0.6348 -0.2951
14730SOL     OW47977   8.204   3.519   2.983  0.1225 -0.0136  0.4703
14730SOL    HW147978   8.280   3.462   2.976  1.0716  1.1563  0.9765
14730SOL    HW247979   8.191   3.553   2.894  2.3943  2.4843  0.9578
14731SOL     OW47980   7.398   1.183   0.911  0.5042  0.0890 -0.2233
14731SOL    HW147981   7.423   1.116   0.974 -0.5525 -0.2022 -0.1013
14731SOL    HW247982   7.435   1.152   0.828 -0.7608 -1.1480 -0.3578
14732SOL     OW47983   2.304   7.470   2.986 -0.4147  0.1145 -0.2664
14732SOL    HW147984   2.353   7.455   3.066 -0.1318 -1.0292 -0.6334
14732SOL    HW247985   2.330   7.398   2.928 -3.7210 -1.5531  0.1012
14733SOL     OW47986   4.173   1.097   4.042 -0.1421  0.0888  0.5519
14733SOL    HW147987   4.098   1.084   4.101 -0.5370  1.1948  0.3169
14733SOL    HW247988   4.248   1.100   4.100 -0.1718 -1.6945  0.7391
14734SOL     OW47989   5.340   6.393   0.006 -0.2927  0.2697 -0.3420
14734SOL    HW147990   5.365   6.468   0.060 -0.3623  0.5650 -0.7126
14734SOL    HW247991   5.409   6.386  -0.060  0.0033 -0.3436  0.0347
14735SOL     OW47992   6.107   8.723   9.260 -0.0422 -0.0007 -0.1192
14735SOL    HW147993   6.083   8.669   9.335 -0.0893  0.2898  0.0786
14735SOL    HW247994   6.138   8.661   9.194 -3.7475 -0.7413 -1.3907
14736SOL     OW47995   4.700  10.098   0.562  0.1618  0.0940 -0.1993
14736SOL    HW147996   4.689  10.003   0.573  0.9924 -0.1976 -1.5957
14736SOL    HW247997   4.620  10.136   0.598 -1.2098 -1.2826 -1.6105
14737SOL     OW47998   6.948   2.685   8.364 -0.2952  0.4709  0.3175
14737SOL    HW147999   6.985   2.604   8.327 -0.2994  0.4358  0.3899
14737SOL    HW248000   6.949   2.670   8.458 -0.0735  0.6501  0.3451
14738SOL     OW48001   1.488   6.117   8.497 -0.2570  0.2663 -0.1646
14738SOL    HW148002   1.559   6.073   8.543  0.3866 -0.3648 -1.6976
14738SOL    HW248003   1.510   6.108   8.404 -1.3226  1.7979 -0.6083
14739SOL     OW48004   5.672   8.402   9.886 -0.3950 -0.2336  0.6575
14739SOL    HW148005   5.751   8.427   9.838  0.0187 -2.6307 -0.0875
14739SOL    HW248006   5.652   8.477   9.941  1.6289  0.9599 -0.1156
14740SOL     OW48007   9.864   7.286   4.692 -0.7362  0.7707  0.3119
14740SOL    HW148008   9.865   7.376   4.660  0.3454  1.0682  1.1405
14740SOL    HW248009   9.800   7.287   4.764 -0.7743  0.8515  0.2768
14741SOL     OW48010   2.326   9.910   9.319 -0.6709 -0.6356 -0.1987
14741SOL    HW148011   2.314   9.905   9.414  1.9183  1.1201  0.3332
14741SOL    HW248012   2.274   9.985   9.292  2.1000  1.7953  0.7126
14742SOL     OW48013   7.560   5.030   0.679  1.0197  0.2519  0.1834
14742SOL    HW148014   7.545   4.992   0.766  0.0466 -1.7035 -0.7677
14742SOL    HW248015   7.648   5.001   0.655  2.1488  2.5430  1.3079
14743SOL     OW48016   7.751   4.482   2.709  0.3613 -0.3701 -0.2053
14743SOL    HW148017   7.791   4.533   2.638 -0.4268  1.8366  0.8420
14743SOL    HW248018   7.726   4.548   2.774 -1.2377 -2.0714  0.9937
14744SOL     OW48019   2.043   9.603   0.985 -0.1219  0.5263 -0.5876
14744SOL    HW148020   2.014   9.689   0.956  0.6478  0.6285 -1.0889
14744SOL    HW248021   2.084   9.564   0.907 -0.9419 -0.5065 -0.5193
14745SOL     OW48022   7.391   2.122   5.318  0.0761  0.7698 -0.6071
14745SOL    HW148023   7.341   2.203   5.304  1.2822  1.6921  0.2410
14745SOL    HW248024   7.327   2.052   5.305 -1.8285  1.9240  1.7556
14746SOL     OW48025   1.158   6.441   0.694  0.3083  0.2830  0.7956
14746SOL    HW148026   1.225   6.397   0.747  1.3686  0.9408  0.0513
14746SOL    HW248027   1.174   6.409   0.605  0.6792  1.6540  0.3540
14747SOL     OW48028   2.671   8.634   9.987  0.3320  0.1532 -0.0981
14747SOL    HW148029   2.637   8.677   9.908 -0.3388  0.3222  0.2753
14747SOL    HW248030   2.725   8.701  10.029  0.5332  0.1252 -0.3080
14748SOL     OW48031   8.100   0.843   4.086 -0.4687  0.2342  0.1907
14748SOL    HW148032   8.046   0.771   4.118 -1.1053  0.3338 -0.6347
14748SOL    HW248033   8.160   0.803   4.022 -1.4805  0.5695 -1.0048
14749SOL     OW48034   8.755  10.299   6.307  0.3374 -0.0300 -0.1402
14749SOL    HW148035   8.820  10.239   6.344  0.3659 -0.2327 -0.5127
14749SOL    HW248036   8.678  10.245   6.290 -0.7218  0.6062  2.2681
14750SOL     OW48037   5.678   1.943   3.617  0.3014  0.4983  0.6973
14750SOL    HW148038   5.740   1.870   3.621 -0.5233 -0.5010 -1.9338
14750SOL    HW248039   5.608   1.918   3.677 -0.3869 -1.4163 -0.7842
14751SOL     OW48040   6.956   5.667   0.537  0.1189  0.0317  0.4564
14751SOL    HW148041   6.906   5.588   0.520 -1.0823  0.6578  0.9913
14751SOL    HW248042   7.037   5.655   0.486 -0.9194 -0.6208 -1.1233
14752SOL     OW48043   6.609   7.349   5.781 -0.0219 -0.1419  0.1219
14752SOL    HW148044   6.537   7.411   5.793  0.4894  0.2122  1.6128
14752SOL    HW248045   6.575   7.283   5.721 -1.5932  0.0129  0.7888
14753SOL     OW48046   2.459   7.098   3.203  0.0861  0.1843  0.3141
14753SOL    HW148047   2.518   7.031   3.168 -1.0312 -0.4884 -0.3310
14753SOL    HW248048   2.517   7.171   3.224  1.2216 -0.6517  0.2093
14754SOL     OW48049   2.893   6.885   5.914 -0.7099  0.7210 -0.1682
14754SOL    HW148050   2.886   6.803   5.864 -3.0226  0.4625  0.4736
14754SOL    HW248051   2.929   6.948   5.852 -1.8947 -0.0194 -1.6780
14755SOL     OW48052   5.827   0.416   0.015 -0.6342  0.1116 -0.3412
14755SOL    HW148053   5.769   0.339   0.015 -1.1916  0.5282 -0.5066
14755SOL    HW248054   5.772   0.488  -0.015 -0.2208  0.6572  0.1743
14756SOL     OW48055   8.556   3.969   8.908  0.1297 -0.3593  0.0070
14756SOL    HW148056   8.574   3.919   8.987  0.8924 -1.0026 -0.5513
14756SOL    HW248057   8.514   4.049   8.938 -0.8237 -1.1988  0.9484
14757SOL     OW48058   1.197   4.809   4.022  0.0764  0.2411  0.6721
14757SOL    HW148059   1.283   4.816   4.063  0.7559 -0.5845 -0.5507
14757SOL    HW248060   1.135   4.831   4.092  1.2023 -0.6264  1.9859
14758SOL     OW48061   7.589   2.093   8.921  0.2902  0.5306  0.2027
14758SOL    HW148062   7.560   2.091   9.012  1.0219  0.9544  0.4576
14758SOL    HW248063   7.550   2.015   8.881  2.6688 -1.5837  1.7150
14759SOL     OW48064   8.907   7.044   1.549 -0.1456  0.4884  0.0745
14759SOL    HW148065   8.826   7.093   1.539  1.3645  3.1927  0.1925
14759SOL    HW248066   8.904   6.979   1.478 -1.8360  1.3096 -0.6652
14760SOL     OW48067   9.125   4.720   0.635 -0.0631 -0.5581 -0.5931
14760SOL    HW148068   9.193   4.787   0.642  1.5843 -2.2650  0.9697
14760SOL    HW248069   9.146   4.673   0.554  0.5581 -0.9634 -0.2103
14761SOL     OW48070   5.694   5.353   7.493  0.0667 -0.1157 -0.2517
14761SOL    HW148071   5.785   5.381   7.494 -0.0516  0.3422 -1.2856
14761SOL    HW248072   5.699   5.258   7.479  0.3730  0.0346 -1.2311
14762SOL     OW48073   5.718   6.561   5.977 -0.2438 -0.3697 -0.3552
14762SOL    HW148074   5.630   6.565   5.940 -0.7797 -2.8196  0.4821
14762SOL    HW248075   5.729   6.469   6.004  2.8052 -0.2949 -1.0030
14763SOL     OW48076   9.964   4.065   7.188  0.0194  0.8029  0.4338
14763SOL    HW148077   9.975   4.140   7.248  0.1430 -0.3012  1.8474
14763SOL    HW248078   9.927   3.996   7.243 -0.4739 -0.0571 -0.9472
14764SOL     OW48079   4.982   3.487   2.365 -0.3899  0.8920  0.4496
14764SOL    HW148080   4.982   3.533   2.449 -1.5467 -0.6956  1.3706
14764SOL    HW248081   5.003   3.396   2.387 -0.2401  0.5294 -1.0584
14765SOL     OW48082   5.437   0.410   8.110 -0.4425 -0.1651 -0.0585
14765SOL    HW148083   5.484   0.493   8.100 -2.3506  0.9986 -0.0516
14765SOL    HW248084   5.505   0.343   8.110  1.2065  1.4256  0.3507
14766SOL     OW48085   8.875   7.859   9.122  0.5303  0.0137 -0.1399
14766SOL    HW148086   8.849   7.787   9.063  3.6231  0.3851 -2.1724
14766SOL    HW248087   8.862   7.938   9.070  2.4414  0.4324 -0.0388
14767SOL     OW48088   0.596   9.966   4.465 -0.2821  0.0524 -0.6343
14767SOL    HW148089   0.684   9.995   4.488 -0.6930  2.0540 -1.3551
14767SOL    HW248090   0.610   9.906   4.391  0.4856  0.2231 -0.6398
14768SOL     OW48091   8.904   6.786   1.974 -0.7027 -0.8320  0.1227
14768SOL    HW148092   8.965   6.713   1.965 -1.8540 -1.7597 -0.4380
14768SOL    HW248093   8.879   6.785   2.067  0.7347  0.1016  0.5670
14769SOL     OW48094   7.014   1.800   0.538  0.3125  0.1855 -0.1155
14769SOL    HW148095   6.941   1.860   0.551 -0.0855 -0.1637 -0.7008
14769SOL    HW248096   7.001   1.731   0.604 -1.4169 -1.3128 -1.8780
14770SOL     OW48097  10.300   1.112   9.524  0.0142 -0.2801  0.3178
14770SOL    HW148098  10.340   1.160   9.596  1.4482 -1.2260  0.1791
14770SOL    HW248099  10.346   1.144   9.446 -1.6338  0.8627 -0.2604
14771SOL     OW48100   6.372   8.406   3.589 -0.7985  0.0626  0.3322
14771SOL    HW148101   6.442   8.348   3.619  1.0568  0.2819 -3.0369
14771SOL    HW248102   6.309   8.348   3.546 -0.3501  0.2433 -0.5946
14772SOL     OW48103   9.803   3.590   0.103 -0.0467 -0.0709  0.4061
14772SOL    HW148104   9.859   3.570   0.178  0.6889  0.2188 -0.0660
14772SOL    HW248105   9.748   3.512   0.093  1.1137 -0.8811  0.1071
14773SOL     OW48106   3.883   5.654   2.269  0.0774  0.1019 -0.6944
14773SOL    HW148107   3.852   5.743   2.250  1.6076  1.3898  2.1208
14773SOL    HW248108   3.805   5.599   2.262 -1.2024  1.8708 -1.1921
14774SOL     OW48109   3.387   4.073   2.761  0.6922 -0.1293  0.1926
14774SOL    HW148110   3.313   4.034   2.808  0.5298  0.8350  0.7857
14774SOL    HW248111   3.439   3.999   2.731  1.4735 -0.8286  2.9480
14775SOL     OW48112   5.523   1.764   9.657  0.0759 -0.3649 -0.0205
14775SOL    HW148113   5.476   1.750   9.740  0.2414 -0.0442  0.1293
14775SOL    HW248114   5.491   1.694   9.600 -1.4885  0.5478 -0.3200
14776SOL     OW48115   5.573   3.287   1.708 -0.2933 -0.4604 -0.0325
14776SOL    HW148116   5.588   3.203   1.665  0.9614  0.2400 -1.0137
14776SOL    HW248117   5.524   3.339   1.644 -1.4381 -0.5721  0.7321
14777SOL     OW48118   1.745   4.435  10.157 -0.0442 -0.4812  0.4336
14777SOL    HW148119   1.825   4.382  10.152  0.1062 -0.1731 -0.4848
14777SOL    HW248120   1.776   4.523  10.179  0.2642  0.4752 -3.2733
14778SOL     OW48121   5.831   1.788   8.918 -0.1737 -0.4614  0.1508
14778SOL    HW148122   5.776   1.748   8.985 -0.1364 -0.0931  0.4055
14778SOL    HW248123   5.902   1.829   8.968 -0.8008  0.8697 -0.0181
14779SOL     OW48124   3.882   7.022   4.165 -0.3115  0.1207  0.6597
14779SOL    HW148125   3.969   7.047   4.134 -0.8105  0.2403 -0.7223
14779SOL    HW248126   3.886   6.928   4.176  0.0685  0.1590  0.8443
14780SOL     OW48127   6.253   5.543   3.310 -0.3039  0.0789 -0.0368
14780SOL    HW148128   6.206   5.604   3.254  0.8268  0.9009 -0.1221
14780SOL    HW248129   6.288   5.597   3.381  0.1029 -0.5829  0.2804
14781SOL     OW48130   9.551   0.203   3.438  0.3877  0.3994 -0.2256
14781SOL    HW148131   9.508   0.118   3.431  0.3344  0.3665  0.4724
14781SOL    HW248132   9.644   0.183   3.434  0.4480  0.0960  1.8175
14782SOL     OW48133   6.477   0.193   3.879  0.3177  0.0720  0.0622
14782SOL    HW148134   6.490   0.099   3.866 -4.5831 -0.6186 -2.0763
14782SOL    HW248135   6.501   0.232   3.796  1.3319  0.6245  0.5991
14783SOL     OW48136   6.312   4.817   4.551  0.0578 -0.1151 -0.0876
14783SOL    HW148137   6.377   4.785   4.614 -2.2347 -0.1581  2.4636
14783SOL    HW248138   6.345   4.790   4.466  0.9036 -4.6557  1.4200
14784SOL     OW48139   8.473   9.387  10.149  0.3560  0.0654  0.2585
14784SOL    HW148140   8.498   9.332  10.223 -1.5714  1.6847  2.2405
14784SOL    HW248141   8.379   9.372  10.138  0.0900  1.7570 -0.1195
14785SOL     OW48142   0.197   3.574   7.531 -0.5909  0.0290 -0.0978
14785SOL    HW148143   0.135   3.636   7.568  0.4799 -0.0255  1.9291
14785SOL    HW248144   0.229   3.616   7.451 -3.0274  0.1335 -1.0875
14786SOL     OW48145   5.155   7.030   9.676  0.4029  0.5939 -0.1744
14786SOL    HW148146   5.161   7.017   9.770 -1.5274 -0.4709 -0.1331
14786SOL    HW248147   5.157   7.125   9.664  2.1043  0.7080  0.7780
14787SOL     OW48148   4.824   1.690   0.517  0.3882  0.0408 -0.0776
14787SOL    HW148149   4.754   1.626   0.534  0.7585  0.0546  1.7244
14787SOL    HW248150   4.904   1.645   0.542  0.6967  1.0419  0.8012
14788SOL     OW48151   5.373   9.166   1.548  0.1322  0.1272  0.1033
14788SOL    HW148152   5.364   9.097   1.615  0.3729 -0.9794 -0.9566
14788SOL    HW248153   5.283   9.184   1.521  0.1297 -0.7349 -0.5258
14789SOL     OW48154   0.540   4.435   6.756 -0.1465  0.5717  0.5048
14789SOL    HW148155   0.546   4.348   6.717  1.3423  0.9190 -0.1002
14789SOL    HW248156   0.475   4.425   6.825 -0.7593 -0.7611 -0.2239
14790SOL     OW48157   2.468   6.233   1.754 -0.5261  0.2068  0.4936
14790SOL    HW148158   2.458   6.238   1.849  0.3012 -1.1776  0.6778
14790SOL    HW248159   2.532   6.301   1.734 -0.3306  0.1748  0.9931
14791SOL     OW48160   0.216   3.484   1.277 -0.0447 -0.1092 -0.3784
14791SOL    HW148161   0.282   3.418   1.298  0.8266  0.4856 -1.1796
14791SOL    HW248162   0.260   3.568   1.292 -1.0715  0.3088  0.4430
14792SOL     OW48163   6.455   8.137  10.109 -0.0410  0.6326 -0.4504
14792SOL    HW148164   6.389   8.188  10.155  0.6808 -0.0744  1.4460
14792SOL    HW248165   6.538   8.166  10.144  0.5177 -0.1890 -1.0449
14793SOL     OW48166   1.511   3.700   1.187 -0.2377  0.4648  0.1221
14793SOL    HW148167   1.536   3.776   1.134 -0.2483  0.2503 -0.1904
14793SOL    HW248168   1.563   3.708   1.267  1.3549 -0.3503 -0.7936
14794SOL     OW48169   1.686   4.065   8.961 -0.3028 -0.3942  0.2426
14794SOL    HW148170   1.662   3.981   9.000  1.1403 -0.6300  0.7072
14794SOL    HW248171   1.645   4.064   8.875  0.1011 -1.8172  0.0417
14795SOL     OW48172   5.338   0.033   4.559 -0.3916  0.4344  0.1490
14795SOL    HW148173   5.378   0.119   4.548 -0.9927  0.6203 -0.7427
14795SOL    HW248174   5.289   0.019   4.477 -1.9337  0.1217  1.0822
14796SOL     OW48175   2.026   1.347   0.937  0.0387 -0.5605  0.2705
14796SOL    HW148176   2.063   1.280   0.994  1.2565  0.5743  0.8813
14796SOL    HW248177   2.036   1.312   0.848  0.5071 -1.2499  0.5887
14797SOL     OW48178   1.824   4.268   5.244  0.5929  0.2318 -0.4310
14797SOL    HW148179   1.812   4.362   5.234  1.3814  0.2687 -1.1549
14797SOL    HW248180   1.740   4.236   5.277  0.5934  1.2928  0.6368
14798SOL     OW48181   5.245   7.556   8.415  0.0904 -0.6338 -0.4876
14798SOL    HW148182   5.292   7.637   8.395 -0.7850  0.2955  1.0331
14798SOL    HW248183   5.284   7.491   8.357  2.0335  0.4723 -0.4984
14799SOL     OW48184   5.366   3.018   7.263  0.2037 -0.4765 -0.2123
14799SOL    HW148185   5.319   2.968   7.330  1.5117 -1.6368 -0.1181
14799SOL    HW248186   5.450   3.040   7.304 -0.0838  1.2906 -0.4859
14800SOL     OW48187   1.243  10.011   6.695 -0.1334 -0.0136  0.0529
14800SOL    HW148188   1.175  10.071   6.666 -0.3695 -0.9133 -1.3844
14800SOL    HW248189   1.196   9.939   6.736 -0.0656 -0.5781 -0.8299
14801SOL     OW48190   9.768   9.284   6.188  0.3036 -0.0886  0.2673
14801SOL    HW148191   9.739   9.193   6.193  2.4668 -0.8955 -0.4017
14801SOL    HW248192   9.827   9.286   6.112  0.9860  1.6570  0.7915
14802SOL     OW48193  10.227   9.147   1.340  0.1059 -0.3012 -0.1687
14802SOL    HW148194  10.134   9.150   1.316  0.2342 -0.4682 -0.7191
14802SOL    HW248195  10.253   9.239   1.346  0.6724 -0.1361 -3.2398
14803SOL     OW48196   9.956   3.403   2.630  0.6575 -0.0813  0.0026
14803SOL    HW148197   9.878   3.348   2.629 -0.4080  1.2888 -2.8027
14803SOL    HW248198   9.951   3.449   2.714 -0.9940 -0.7553  0.3194
14804SOL     OW48199   4.924   8.810   4.486 -0.0315 -0.1449 -0.1770
14804SOL    HW148200   4.989   8.816   4.556 -0.5467  2.8451  0.1696
14804SOL    HW248201   4.926   8.896   4.444 -3.1659 -0.2434 -0.7219
14805SOL     OW48202   2.901   3.830   7.138  0.1239  0.2051 -0.0936
14805SOL    HW148203   2.856   3.911   7.163 -0.6463  0.1313 -1.1579
14805SOL    HW248204   2.861   3.805   7.054  0.5333 -1.1367  0.0828
14806SOL     OW48205   7.782   0.896   2.790  0.5022 -0.5960  0.0007
14806SOL    HW148206   7.727   0.972   2.773  0.7101 -0.3557  0.3927
14806SOL    HW248207   7.769   0.877   2.883 -0.9972 -2.1849 -0.4782
14807SOL     OW48208   0.910   8.619   4.738 -0.3996  0.0061  0.5078
14807SOL    HW148209   0.990   8.646   4.784 -0.2903 -1.0151  0.9569
14807SOL    HW248210   0.842   8.619   4.806 -0.2020 -1.6840  0.7658
14808SOL     OW48211   7.068   9.210   2.746 -0.1137  0.4732  0.1177
14808SOL    HW148212   7.043   9.300   2.724 -2.4208  0.0006  0.5128
14808SOL    HW248213   7.073   9.210   2.842 -1.2414 -0.0659  0.1844
14809SOL     OW48214  10.202   1.436   4.112  0.1871 -0.3725  0.2720
14809SOL    HW148215  10.269   1.419   4.179  0.0685  0.1199  0.5219
14809SOL    HW248216  10.133   1.483   4.158 -0.0301 -0.2866 -0.1347
14810SOL     OW48217   4.683   8.477  10.100  0.1838  0.0183 -0.2052
14810SOL    HW148218   4.638   8.560  10.113  0.2352 -0.1390  1.1360
14810SOL    HW248219   4.734   8.490  10.020 -2.8290 -0.0923 -2.3213
14811SOL     OW48220   2.838   9.485   4.718 -0.7196  0.1005 -0.3895
14811SOL    HW148221   2.862   9.565   4.671 -1.7707  1.1576  0.8051
14811SOL    HW248222   2.748   9.467   4.691 -0.8087 -0.1381  0.0553
14812SOL     OW48223   0.939   2.999   5.714 -0.3344  0.1691  0.0647
14812SOL    HW148224   0.918   3.011   5.807  1.1384 -0.8789  0.5678
14812SOL    HW248225   1.016   3.054   5.699 -0.1891 -0.1485 -0.3828
14813SOL     OW48226   6.710   2.903   6.117 -0.1589  0.3414 -0.1866
14813SOL    HW148227   6.784   2.908   6.177  0.6331  0.1627 -1.1283
14813SOL    HW248228   6.691   2.809   6.110 -0.9966  0.4273  0.6489
14814SOL     OW48229   1.170   3.625   2.128 -0.0083  0.0891 -0.4956
14814SOL    HW148230   1.202   3.715   2.134  0.8535 -0.2220 -0.4246
14814SOL    HW248231   1.130   3.607   2.213  1.6523 -0.2883  0.2327
14815SOL     OW48232   5.879   0.035   0.174 -0.2303  0.0755 -0.2069
14815SOL    HW148233   5.804   0.003   0.224  0.6029  1.3711  1.9673
14815SOL    HW248234   5.864   0.002   0.085 -2.2359 -1.5216  0.6572
14816SOL     OW48235   0.572   3.824   9.775  0.0917  0.2005  0.0355
14816SOL    HW148236   0.583   3.763   9.848 -0.6823  0.5779  0.4778
14816SOL    HW248237   0.662   3.843   9.746  0.4909  0.9835  1.6811
14817SOL     OW48238   4.998   2.817   4.379  0.6190 -0.7488  0.3947
14817SOL    HW148239   4.997   2.788   4.287 -0.1536  1.7402 -0.4605
14817SOL    HW248240   4.908   2.809   4.408  0.8589 -1.5125  0.9610
14818SOL     OW48241   4.652   0.751   6.671  0.0438  0.3255  0.2983
14818SOL    HW148242   4.713   0.826   6.669 -1.9310  2.0489  0.9904
14818SOL    HW248243   4.631   0.735   6.579  2.2774 -1.0384 -0.0700
14819SOL     OW48244   8.146   9.361   3.395  0.2625  0.0040 -0.1743
14819SOL    HW148245   8.087   9.302   3.347  0.6537  0.1219 -0.8210
14819SOL    HW248246   8.146   9.442   3.343 -1.1163  0.9974  1.2771
14820SOL     OW48247   5.346   4.182  10.306  0.3725 -0.2789  0.5209
14820SOL    HW148248   5.297   4.247  10.257  2.0202 -0.4483 -1.4936
14820SOL    HW248249   5.414   4.152  10.245  1.1800 -2.1062  2.2042
14821SOL     OW48250   7.086   8.421   0.791  0.3665 -0.3500 -0.3180
14821SOL    HW148251   7.080   8.413   0.887  0.4790  0.0121 -0.2810
14821SOL    HW248252   7.119   8.509   0.776 -2.1768  0.5995 -0.7824
14822SOL     OW48253   3.747   1.261   0.311 -0.0922 -1.0159 -0.4221
14822SOL    HW148254   3.661   1.299   0.294  0.6109  0.4373 -0.8707
14822SOL    HW248255   3.759   1.269   0.405  0.7521  1.5773 -0.6705
14823SOL     OW48256   8.199   1.259   5.461  0.3510  0.3625  0.4970
14823SOL    HW148257   8.176   1.305   5.542  2.1622  1.2607  0.5412
14823SOL    HW248258   8.230   1.328   5.402  1.0423 -0.5400 -0.2207
14824SOL     OW48259   3.367   5.361   2.207 -0.1912  0.5575 -0.7568
14824SOL    HW148260   3.372   5.413   2.287 -2.0129  0.8635 -0.8127
14824SOL    HW248261   3.312   5.287   2.229  0.3031 -0.0111 -1.3896
14825SOL     OW48262   0.980   5.679   7.555  0.0681  0.5607  0.3790
14825SOL    HW148263   0.988   5.694   7.649  0.1882 -1.3722  0.7246
14825SOL    HW248264   0.889   5.655   7.542 -0.0344  1.1667 -0.0677
14826SOL     OW48265   5.947   1.122   0.465  0.4130  0.6305 -0.7338
14826SOL    HW148266   6.035   1.112   0.502 -0.8660 -2.2711  1.9891
14826SOL    HW248267   5.931   1.039   0.420 -0.3547  1.8119 -2.7295
14827SOL     OW48268   3.290   5.849   0.526 -0.0344 -0.5099 -0.0448
14827SOL    HW148269   3.273   5.767   0.481 -0.8319 -0.0021 -0.7080
14827SOL    HW248270   3.368   5.884   0.484 -1.0282  0.1782 -1.4017
14828SOL     OW48271   2.350   4.815   6.128 -0.3412  0.0826  0.1518
14828SOL    HW148272   2.342   4.855   6.214 -0.9944 -0.9569  0.6023
14828SOL    HW248273   2.425   4.858   6.087  1.4077 -0.9772  2.1084
14829SOL     OW48274   1.075   6.694   4.594  0.1556  0.4705  0.2260
14829SOL    HW148275   1.170   6.708   4.600  0.0611  0.5932  2.9610
14829SOL    HW248276   1.057   6.632   4.665 -2.1616  2.7345  1.7646
14830SOL     OW48277   8.858   6.405   0.022 -0.6625 -0.1234  0.1872
14830SOL    HW148278   8.878   6.497   0.007 -0.8302 -0.2110 -0.6113
14830SOL    HW248279   8.934   6.371   0.069 -0.2215  0.2219 -0.2624
14831SOL     OW48280   8.272   0.071   9.309  0.6809  0.1449 -0.4788
14831SOL    HW148281   8.229   0.155   9.291  0.0350 -0.1175 -0.1821
14831SOL    HW248282   8.346   0.069   9.248  0.0491  0.4380 -1.2773
14832SOL     OW48283   7.910   8.454   3.133 -0.2173  0.1657  0.1002
14832SOL    HW148284   7.913   8.544   3.101 -0.1281 -0.2311 -1.0310
14832SOL    HW248285   7.823   8.423   3.110 -0.6452  0.2940  1.4550
14833SOL     OW48286   7.074   7.469   9.313  0.3949 -0.3785 -0.3428
14833SOL    HW148287   7.030   7.406   9.256  1.1297 -0.8145 -0.4462
14833SOL    HW248288   7.005   7.529   9.341 -0.0599 -0.4063 -1.3540
14834SOL     OW48289   8.216   0.009   3.961 -0.2411 -0.2028  0.1785
14834SOL    HW148290   8.200   0.045   4.048  0.6154 -0.2609  0.3678
14834SOL    HW248291   8.239  -0.083   3.977  1.1584  0.0944  0.0142
14835SOL     OW48292   5.692   8.023   0.181 -0.0325 -0.1462  1.0057
14835SOL    HW148293   5.725   8.088   0.243 -0.3024  0.5437  0.4440
14835SOL    HW248294   5.642   8.074   0.117  0.8970 -0.7240 -0.2444
14836SOL     OW48295   8.905   9.700   6.809  0.6112  0.1871 -0.4412
14836SOL    HW148296   8.947   9.706   6.895  0.1786  1.2927 -0.2842
14836SOL    HW248297   8.847   9.776   6.806  1.3479  0.7257 -2.0958
14837SOL     OW48298   9.674   1.751   0.434 -0.3708 -0.3916 -0.2370
14837SOL    HW148299   9.616   1.675   0.442  0.1949 -1.1262 -2.3738
14837SOL    HW248300   9.653   1.789   0.349  1.0602  0.3437 -0.3011
14838SOL     OW48301   3.480   4.585   9.588  0.0184 -0.0868  0.0003
14838SOL    HW148302   3.385   4.571   9.594  0.1001 -0.3727  0.7836
14838SOL    HW248303   3.495   4.670   9.629  0.1919 -0.4121  0.6123
14839SOL     OW48304   7.497   7.414   6.176 -0.1047  0.1169  0.1504
14839SOL    HW148305   7.423   7.365   6.141  0.1965  0.3724 -0.8820
14839SOL    HW248306   7.489   7.405   6.271 -0.7043 -0.9575  0.0172
14840SOL     OW48307   6.209   1.236   9.225 -0.5288  0.1427 -0.0380
14840SOL    HW148308   6.247   1.311   9.271  4.3583 -1.8961 -0.1706
14840SOL    HW248309   6.174   1.180   9.294  1.5785 -0.2606  0.7720
14841SOL     OW48310   4.685   4.484   0.803 -0.0138 -0.2666  0.0708
14841SOL    HW148311   4.711   4.392   0.799  0.9615  0.0249 -0.6753
14841SOL    HW248312   4.765   4.533   0.782 -0.8807  0.7009 -1.1368
14842SOL     OW48313   2.932   7.759   3.398  0.4341  0.0167 -0.5854
14842SOL    HW148314   2.951   7.698   3.470  0.0692 -0.0454 -0.5413
14842SOL    HW248315   2.936   7.704   3.319 -1.0814 -0.3358 -0.4511
14843SOL     OW48316   0.552   3.707   7.524  0.2856 -0.3305  0.0898
14843SOL    HW148317   0.495   3.631   7.509 -0.7504  0.1654  1.2859
14843SOL    HW248318   0.639   3.670   7.533 -0.2668 -1.4660  1.1286
14844SOL     OW48319  10.282   7.605   5.268  0.2798 -0.3976 -0.1296
14844SOL    HW148320  10.299   7.659   5.346 -0.1396 -1.0011  0.3946
14844SOL    HW248321  10.192   7.574   5.280  0.0957 -0.2390 -1.0236
14845SOL     OW48322   9.685   9.287  10.074 -0.1497  0.3576 -0.0559
14845SOL    HW148323   9.665   9.254   9.987  0.5601  0.8087 -0.3922
14845SOL    HW248324   9.780   9.280  10.082 -0.2976 -0.7445  1.1137
14846SOL     OW48325   7.438   3.244   4.676 -0.2240 -0.1832  0.6322
14846SOL    HW148326   7.469   3.207   4.593 -0.6338  0.0222  0.3791
14846SOL    HW248327   7.397   3.170   4.721  0.9119 -0.5307  1.1204
14847SOL     OW48328   3.273   5.771   0.182  0.3355 -0.3336  0.2955
14847SOL    HW148329   3.255   5.708   0.252  1.0433  1.0814  1.8013
14847SOL    HW248330   3.188   5.789   0.143 -0.1710 -0.5860  1.2673
14848SOL     OW48331   9.478   8.023   6.138 -0.2602 -0.0414 -0.8021
14848SOL    HW148332   9.425   8.101   6.121  0.0221  0.2507 -0.3572
14848SOL    HW248333   9.460   8.001   6.229  0.8013  0.4026 -0.4643
14849SOL     OW48334   8.249   1.819   8.543  0.3094 -0.5858 -0.3796
14849SOL    HW148335   8.275   1.738   8.588  0.2934 -0.1126  0.5062
14849SOL    HW248336   8.307   1.823   8.467  0.0331 -1.6381 -0.6706
14850SOL     OW48337   7.399   9.083   9.458  0.7057 -0.0745  0.2906
14850SOL    HW148338   7.325   9.056   9.512 -0.5248 -0.6281 -1.5687
14850SOL    HW248339   7.426   9.167   9.494 -1.9171  0.9749  0.0579
14851SOL     OW48340   9.129   8.892   7.324  0.4146 -0.3655 -0.2825
14851SOL    HW148341   9.215   8.932   7.311 -0.4587  1.3804 -1.1101
14851SOL    HW248342   9.135   8.807   7.280  1.9940 -0.6972  0.5090
14852SOL     OW48343   8.208   9.874   1.057 -0.0977  0.0791 -0.0001
14852SOL    HW148344   8.135   9.839   1.004  1.9409  0.0692 -3.0681
14852SOL    HW248345   8.167   9.936   1.116 -2.7122 -0.5898 -0.9600
14853SOL     OW48346   1.306   8.140   2.099 -0.3617 -0.2877  0.5499
14853SOL    HW148347   1.358   8.209   2.057  0.6872 -0.3011  1.7685
14853SOL    HW248348   1.357   8.116   2.176 -1.6592 -1.1046  1.1741
14854SOL     OW48349   0.256   9.590   5.347  0.0066 -0.5822 -0.2886
14854SOL    HW148350   0.321   9.631   5.291  0.8684 -1.4515  0.0625
14854SOL    HW248351   0.193   9.552   5.287 -0.5592  0.8053 -0.6275
14855SOL     OW48352   0.613   7.113   6.173  0.3131  0.1306 -0.0764
14855SOL    HW148353   0.698   7.156   6.164  1.2068 -1.5593 -0.2310
14855SOL    HW248354   0.562   7.146   6.099  1.9222 -1.1071 -1.8680
14856SOL     OW48355   0.391   4.175   6.636  0.1579 -0.2276 -0.2223
14856SOL    HW148356   0.364   4.195   6.726  0.5911 -1.6812  0.2604
14856SOL    HW248357   0.479   4.139   6.645  0.3275 -0.0993 -1.2656
14857SOL     OW48358   2.589   5.913   3.317  0.1742 -0.1003 -0.3312
14857SOL    HW148359   2.643   5.883   3.390 -1.0766 -1.8417 -0.0667
14857SOL    HW248360   2.535   5.838   3.294 -1.7454  1.3813 -0.9413
14858SOL     OW48361   9.772   8.019   6.596  0.4268 -0.3804  0.1682
14858SOL    HW148362   9.687   8.014   6.638  0.3464  0.7847  0.1817
14858SOL    HW248363   9.835   8.011   6.667  0.3070  0.0232  0.3230
14859SOL     OW48364   0.729   3.741   3.780 -0.0882 -0.0067  0.6402
14859SOL    HW148365   0.798   3.794   3.740 -0.8032 -0.4653 -1.3049
14859SOL    HW248366   0.776   3.680   3.837  1.0860 -0.0456 -0.3380
14860SOL     OW48367   7.274   5.575   2.673  0.1372 -0.0326  0.0326
14860SOL    HW148368   7.321   5.541   2.597 -0.7440 -0.1727 -0.4617
14860SOL    HW248369   7.190   5.606   2.638  0.5199  1.8117  0.5995
14861SOL     OW48370   0.417   3.090   8.036  0.2319 -0.7726 -0.3660
14861SOL    HW148371   0.386   3.140   7.960 -1.3838  0.5046  1.0728
14861SOL    HW248372   0.391   3.142   8.112  2.8098 -1.4352  1.0913
14862SOL     OW48373   9.648   6.907   6.453  0.2600  0.3644 -0.4495
14862SOL    HW148374   9.556   6.906   6.480  0.0364  0.1791 -1.1931
14862SOL    HW248375   9.650   6.859   6.370  1.2019 -0.5356  0.0724
14863SOL     OW48376   9.066   8.379   5.427  0.1905  0.3082 -0.3131
14863SOL    HW148377   9.052   8.473   5.413  2.3875  0.7090 -0.2479
14863SOL    HW248378   9.070   8.369   5.522 -2.2826 -0.2893 -0.2103
14864SOL     OW48379   9.491   4.855   6.141  0.5116  0.3412 -0.2376
14864SOL    HW148380   9.560   4.792   6.161  0.0015 -0.5469 -1.1885
14864SOL    HW248381   9.522   4.902   6.063 -0.0282 -0.2049 -0.7934
14865SOL     OW48382   7.793   9.248   3.648 -0.1672 -0.1154  0.2256
14865SOL    HW148383   7.885   9.223   3.636 -0.2467  0.3390 -1.6961
14865SOL    HW248384   7.795   9.344   3.651 -0.5914 -0.0936 -0.1040
14866SOL     OW48385   7.175   5.739   5.628  0.0557 -0.1814 -0.2615
14866SOL    HW148386   7.264   5.769   5.609  0.1613 -0.8584 -0.8695
14866SOL    HW248387   7.184   5.683   5.705  0.1793 -0.3694 -0.4128
14867SOL     OW48388   4.824   3.762   8.620 -0.3707  0.6409  0.5068
14867SOL    HW148389   4.868   3.687   8.581 -2.2625 -0.0843 -0.3381
14867SOL    HW248390   4.800   3.734   8.708 -0.4904  0.4892  0.4262
14868SOL     OW48391   7.022   4.321   8.897 -0.1745 -0.3989  0.0052
14868SOL    HW148392   7.088   4.263   8.936  0.6498  0.6231  0.1883
14868SOL    HW248393   7.074   4.388   8.852 -1.1104 -0.4163 -1.1353
14869SOL     OW48394   0.970   2.461   7.501  0.2421 -0.6333 -0.2102
14869SOL    HW148395   0.885   2.422   7.480  0.2504 -2.1612  2.2111
14869SOL    HW248396   1.033   2.390   7.485  0.3890 -1.4324  3.1104
14870SOL     OW48397   1.302   9.976   3.422 -0.3647 -0.5666 -0.1380
14870SOL    HW148398   1.373  10.006   3.478 -1.5615 -0.5034  1.4319
14870SOL    HW248399   1.309   9.880   3.423  0.6209 -0.5202 -1.2802
14871SOL     OW48400   4.203   4.006   1.064 -0.1788  0.2079  0.3565
14871SOL    HW148401   4.278   4.066   1.063  0.7678 -0.9306  0.4862
14871SOL    HW248402   4.127   4.063   1.072  0.4167  1.6453 -2.7108
14872SOL     OW48403   1.738   5.516   4.303  0.2320  0.0093  0.0227
14872SOL    HW148404   1.792   5.449   4.347 -0.6570 -0.2257  0.7816
14872SOL    HW248405   1.649   5.497   4.331 -0.5749 -0.8177 -2.7427
14873SOL     OW48406   0.004   4.959   8.325  0.2486  0.4123  0.0956
14873SOL    HW148407   0.099   4.966   8.315  0.5040 -0.3360  1.7183
14873SOL    HW248408  -0.029   5.040   8.286  1.3553 -0.2966 -2.5177
14874SOL     OW48409   6.453   9.034   7.804  0.0450  0.3098 -0.0677
14874SOL    HW148410   6.467   8.992   7.889  0.4075  1.5885  0.5272
14874SOL    HW248411   6.391   8.977   7.759  0.4274 -0.7861  0.7475
14875SOL     OW48412   1.568   7.678   4.016  0.2916  0.2003 -0.3199
14875SOL    HW148413   1.557   7.595   3.969 -0.3483  0.9457 -1.5213
14875SOL    HW248414   1.647   7.716   3.978  1.0545 -0.2050  0.8004
14876SOL     OW48415   6.711   2.365   9.764 -0.1770  0.2937  0.4196
14876SOL    HW148416   6.633   2.311   9.763  0.3322 -0.4712 -0.6997
14876SOL    HW248417   6.760   2.338   9.841 -1.0018  0.7770  1.1190
14877SOL     OW48418   3.424   6.062   8.405 -0.0307  0.5307  0.2634
14877SOL    HW148419   3.506   6.112   8.402 -0.6402  1.5416 -0.4149
14877SOL    HW248420   3.448   5.979   8.445  1.7183  0.0493 -1.6184
14878SOL     OW48421   1.145   5.859   0.799 -0.2530  0.1619  0.1976
14878SOL    HW148422   1.081   5.923   0.767  0.6513  1.0026  0.0623
14878SOL    HW248423   1.134   5.860   0.894 -0.6045  0.1137  0.1623
14879SOL     OW48424   9.167   7.564   0.698 -0.6077 -0.4456 -0.4322
14879SOL    HW148425   9.207   7.570   0.784 -0.6635  0.5534 -0.4671
14879SOL    HW248426   9.217   7.495   0.653  0.8251  0.4845 -0.3303
14880SOL     OW48427   0.737   6.888   8.680  0.3699 -0.1718 -0.1506
14880SOL    HW148428   0.783   6.813   8.642 -0.7274 -0.9060 -0.0721
14880SOL    HW248429   0.761   6.888   8.772  1.6263  0.5405 -0.4605
14881SOL     OW48430   6.659   5.830   0.259  0.7248 -0.0485  0.5307
14881SOL    HW148431   6.570   5.824   0.294  0.2894 -0.8762 -0.6642
14881SOL    HW248432   6.701   5.898   0.312 -1.0004  1.2745  0.2908
14882SOL     OW48433   2.057   0.270   9.520 -0.5727  0.2146 -0.2525
14882SOL    HW148434   1.981   0.258   9.463 -0.5031  1.9516 -0.7581
14882SOL    HW248435   2.092   0.356   9.496 -0.0736  0.6635  1.8558
14883SOL     OW48436   8.690   7.818   9.816  0.3114  0.0738 -0.4160
14883SOL    HW148437   8.688   7.913   9.824  0.4924 -0.0446  1.5652
14883SOL    HW248438   8.770   7.799   9.767  1.0024  0.9039  0.3621
14884SOL     OW48439  10.310   8.189   4.765  0.2214  0.2964  0.5480
14884SOL    HW148440  10.320   8.123   4.834  0.4287  0.2696  0.4950
14884SOL    HW248441  10.228   8.166   4.722 -0.1621  0.6162  1.1073
14885SOL     OW48442   0.470   9.560  10.146 -0.0638  0.5892 -0.3912
14885SOL    HW148443   0.518   9.551  10.064  0.4493 -0.1724 -0.0252
14885SOL    HW248444   0.526   9.614  10.201  0.3341 -0.1979 -0.0067
14886SOL     OW48445   6.272   9.699   9.613  0.0290 -0.1882  0.1006
14886SOL    HW148446   6.280   9.772   9.675 -0.3627  0.5747 -0.7243
14886SOL    HW248447   6.201   9.726   9.554  0.0023 -1.1604 -0.3238
14887SOL     OW48448   6.784   5.811   9.546 -0.6536  0.8211  0.0082
14887SOL    HW148449   6.694   5.809   9.513  0.0314  1.2427 -2.0856
14887SOL    HW248450   6.817   5.897   9.519  0.6203  0.3424 -0.0014
14888SOL     OW48451   7.827   8.554   4.653 -0.1812  0.6069 -0.6497
14888SOL    HW148452   7.854   8.618   4.719 -1.0506  1.5624 -1.1922
14888SOL    HW248453   7.815   8.472   4.701 -0.9969  1.3391  0.4158
14889SOL     OW48454   7.557   9.121   8.446  0.1316 -0.6275  0.2480
14889SOL    HW148455   7.517   9.041   8.478  0.2435 -0.1708  1.6076
14889SOL    HW248456   7.648   9.117   8.477  0.0463  0.1657  0.6385
14890SOL     OW48457   4.502   1.805   7.555  0.6662  0.2718 -0.1600
14890SOL    HW148458   4.415   1.780   7.585  0.2359 -0.3982 -1.8691
14890SOL    HW248459   4.562   1.750   7.605  0.2205  1.4698  1.7945
14891SOL     OW48460   2.820   4.303   9.054  0.1620  0.3082 -0.5538
14891SOL    HW148461   2.790   4.212   9.059  0.0419  0.4040  0.6023
14891SOL    HW248462   2.914   4.296   9.036  0.1280 -0.0471 -0.5987
14892SOL     OW48463   8.088   5.196   8.282  0.7129 -0.1735  0.1414
14892SOL    HW148464   8.148   5.270   8.294  0.2502  0.1227  0.6953
14892SOL    HW248465   8.014   5.215   8.341 -0.1522 -0.2939 -0.8753
14893SOL     OW48466   6.497   8.569   8.857 -0.4998  0.9169 -0.2730
14893SOL    HW148467   6.461   8.481   8.858 -0.5465  0.9375  0.1404
14893SOL    HW248468   6.588   8.559   8.883 -1.0430  1.2083  1.8866
14894SOL     OW48469   3.815   4.312   5.971  0.3357  0.4190  0.0595
14894SOL    HW148470   3.892   4.325   6.026  0.2153  0.1328  0.2981
14894SOL    HW248471   3.776   4.230   6.002 -2.5049  2.5724  2.8627
14895SOL     OW48472   3.327   1.344   6.514 -0.1112  0.1803 -0.0013
14895SOL    HW148473   3.338   1.252   6.490  0.0281  0.2988 -0.4091
14895SOL    HW248474   3.296   1.342   6.605 -0.9610 -0.2964 -0.2848
14896SOL     OW48475   9.968   4.398   5.732  0.0559  0.4305  0.1189
14896SOL    HW148476   9.982   4.311   5.694 -4.9329  0.0516 -1.6730
14896SOL    HW248477  10.013   4.458   5.672  0.7326 -0.7541 -0.5871
14897SOL     OW48478   6.666   2.057   3.989  0.3509  0.5571  0.3878
14897SOL    HW148479   6.687   2.087   3.901  0.3748  3.0780  1.1751
14897SOL    HW248480   6.603   1.986   3.976  2.2362 -0.8943 -1.6917
14898SOL     OW48481   3.133   2.383  10.244  0.0918 -0.5051  0.5085
14898SOL    HW148482   3.090   2.302  10.216  1.3530 -2.0193  2.6340
14898SOL    HW248483   3.082   2.412  10.320 -0.2630  0.6739 -0.1454
14899SOL     OW48484   3.613   6.685   2.553 -0.1902  0.5641 -0.3021
14899SOL    HW148485   3.561   6.665   2.630  0.7240  0.9669  0.4375
14899SOL    HW248486   3.575   6.765   2.518 -0.0618  0.8538  0.2274
14900SOL     OW48487   3.488   6.570   5.338 -0.5807  0.8282 -0.0796
14900SOL    HW148488   3.518   6.483   5.313 -2.5230  0.1527 -0.2541
14900SOL    HW248489   3.444   6.604   5.260 -1.4843  1.1663  0.5631
14901SOL     OW48490   3.346   8.569   5.363 -0.0883  0.3780  0.0950
14901SOL    HW148491   3.296   8.592   5.441 -1.5015 -1.6542 -0.1422
14901SOL    HW248492   3.309   8.486   5.334  3.0331 -0.9810 -0.4372
14902SOL     OW48493   4.296   4.403   9.198 -0.1314  0.2048 -0.7480
14902SOL    HW148494   4.379   4.451   9.201  0.3364 -0.6062 -0.2647
14902SOL    HW248495   4.300   4.355   9.115 -0.5857  0.9742 -1.2173
14903SOL     OW48496   8.110   2.064   8.357  0.1584  0.0897  0.3087
14903SOL    HW148497   8.059   2.096   8.431 -0.2158 -0.4169  0.2763
14903SOL    HW248498   8.196   2.104   8.368  0.1006  0.0309  1.0125
14904SOL     OW48499   0.952   4.224   5.087  0.2618  0.3099  0.1481
14904SOL    HW148500   0.925   4.304   5.132  0.2769 -0.5786  1.8349
14904SOL    HW248501   0.984   4.254   5.002  0.5488  2.1270  0.8468
14905SOL     OW48502   8.205   1.421   3.216  0.2883 -0.3563 -0.4383
14905SOL    HW148503   8.112   1.421   3.196  0.0014 -0.3991  0.8272
14905SOL    HW248504   8.246   1.463   3.140 -0.6938 -0.8025 -1.2384
14906SOL     OW48505   2.639   2.414   5.953  0.1310 -0.2584 -0.2524
14906SOL    HW148506   2.724   2.443   5.921  0.7867 -2.0664 -0.2639
14906SOL    HW248507   2.611   2.346   5.891 -1.7951  0.9430 -0.8000
14907SOL     OW48508   7.083   4.050   4.775 -0.0955 -0.2804 -0.2716
14907SOL    HW148509   7.011   4.069   4.715 -0.6030 -2.3406 -0.4045
14907SOL    HW248510   7.040   4.019   4.855  0.5568 -3.0510 -0.8847
14908SOL     OW48511   0.458   8.419   1.235  0.6992  0.0201 -0.6044
14908SOL    HW148512   0.424   8.503   1.206 -2.4471 -0.9588 -0.1457
14908SOL    HW248513   0.448   8.361   1.159  0.6192 -0.4738 -0.2276
14909SOL     OW48514   9.570   7.138   2.166 -0.3076 -0.0956 -0.6487
14909SOL    HW148515   9.584   7.044   2.154 -3.8402 -0.6244 -1.8430
14909SOL    HW248516   9.583   7.153   2.259 -0.7974 -2.0400 -0.2327
14910SOL     OW48517   4.068   3.575   3.751  0.3280 -0.4154 -0.5307
14910SOL    HW148518   3.994   3.607   3.802  1.0617  1.5481 -0.6447
14910SOL    HW248519   4.031   3.559   3.664 -0.1459 -0.3110 -0.3534
14911SOL     OW48520   2.844   4.769   6.672  0.2263  0.0281  0.1575
14911SOL    HW148521   2.896   4.804   6.600 -1.1527  1.0467 -0.3890
14911SOL    HW248522   2.794   4.698   6.633  0.5819 -0.4157  0.4915
14912SOL     OW48523   2.298   5.835   8.185 -0.4174  0.0137 -0.3920
14912SOL    HW148524   2.235   5.866   8.120 -0.8862  0.3716  0.2206
14912SOL    HW248525   2.306   5.741   8.168 -2.4319 -0.3884  0.5888
14913SOL     OW48526   1.856   9.739   6.990  0.0060  0.0381 -0.0552
14913SOL    HW148527   1.915   9.803   6.951 -1.1158  0.6403 -0.8050
14913SOL    HW248528   1.909   9.660   6.999  1.0622  0.7103 -0.2457
14914SOL     OW48529   4.174   0.185   1.970  0.8023 -0.8895 -0.3010
14914SOL    HW148530   4.250   0.159   1.917  0.6179 -0.2657 -0.8730
14914SOL    HW248531   4.204   0.174   2.060  2.3353  1.3496 -0.4528
14915SOL     OW48532   7.019   0.979   6.395  0.2334 -0.6116  0.2942
14915SOL    HW148533   6.982   1.067   6.394  0.5022 -0.4990 -0.1558
14915SOL    HW248534   7.026   0.957   6.487 -0.6933 -0.5291  0.3899
14916SOL     OW48535   7.069   3.171   7.572 -0.2596  0.3008  0.2951
14916SOL    HW148536   7.106   3.143   7.656  1.0789 -1.3763 -0.8040
14916SOL    HW248537   7.118   3.123   7.506 -2.0319  0.7203 -1.4297
14917SOL     OW48538   9.726   1.904   3.026  0.6818  0.2623 -0.1865
14917SOL    HW148539   9.678   1.968   3.079 -0.0072 -1.0691  0.8738
14917SOL    HW248540   9.680   1.822   3.042  0.7369 -0.2769 -2.5491
14918SOL     OW48541   3.826   5.661   8.057 -0.2934  0.0613  0.5251
14918SOL    HW148542   3.840   5.720   8.131  0.6024  0.2202  0.2387
14918SOL    HW248543   3.735   5.633   8.066 -0.4525  0.7569  1.1907
14919SOL     OW48544   7.645   1.777   5.942  0.3283 -0.1208  0.0614
14919SOL    HW148545   7.718   1.819   5.897 -1.4854  0.7009 -2.2890
14919SOL    HW248546   7.633   1.694   5.897 -0.6413  0.0768 -0.0595
14920SOL     OW48547   5.329   0.991   9.195  0.1589  0.3993  0.2909
14920SOL    HW148548   5.408   1.029   9.157  0.5787 -1.3601 -0.7186
14920SOL    HW248549   5.259   1.052   9.172  0.6217  0.0959 -2.2161
14921SOL     OW48550   2.986  10.207   5.372  0.5352  0.2415  0.8593
14921SOL    HW148551   2.971  10.294   5.336  0.5663 -0.5257 -1.1348
14921SOL    HW248552   2.902  10.162   5.360  1.3102 -0.8698 -0.8404
14922SOL     OW48553   5.217   2.441   7.619  0.0910 -0.2056 -0.0765
14922SOL    HW148554   5.297   2.447   7.567 -0.4893  1.2388 -0.8516
14922SOL    HW248555   5.159   2.384   7.568  0.8334 -1.8916  0.8487
14923SOL     OW48556   2.431   8.883   0.377 -1.2111  0.1164 -0.0991
14923SOL    HW148557   2.362   8.945   0.399 -2.1817 -0.1682 -2.1076
14923SOL    HW248558   2.407   8.803   0.423 -2.2337  0.0214 -0.7757
14924SOL     OW48559   7.030   8.739  10.302 -0.1646  0.1620  0.2531
14924SOL    HW148560   6.990   8.687  10.371 -0.9603 -1.1004 -1.0847
14924SOL    HW248561   7.031   8.828  10.336 -1.9910 -0.1602  1.2738
14925SOL     OW48562   8.665   8.715   8.997 -0.3269  0.0054  0.2480
14925SOL    HW148563   8.605   8.789   8.992  0.7136  0.8965  0.4715
14925SOL    HW248564   8.649   8.666   8.917 -0.6066  0.8303 -0.2198
14926SOL     OW48565   2.888   0.887   8.030  0.3527  0.1968  0.2859
14926SOL    HW148566   2.864   0.795   8.045 -0.3299  0.1256 -1.0420
14926SOL    HW248567   2.911   0.890   7.937  0.8569  1.2760  0.4354
14927SOL     OW48568   7.756   4.970   4.789 -0.4041 -0.1638 -0.2664
14927SOL    HW148569   7.734   4.905   4.855 -0.6268  0.9268  0.7667
14927SOL    HW248570   7.832   4.933   4.743 -1.0079 -1.4966 -0.2550
14928SOL     OW48571   2.636   6.184   3.440  0.1153  0.5036 -0.0058
14928SOL    HW148572   2.613   6.131   3.516 -1.6919 -1.2158 -1.6447
14928SOL    HW248573   2.556   6.188   3.388  1.8709 -0.5498 -3.0634
14929SOL     OW48574   2.291   9.357   7.793 -0.4939  0.5989  0.2557
14929SOL    HW148575   2.203   9.393   7.803  0.0317  2.2305 -0.7018
14929SOL    HW248576   2.348   9.422   7.832  0.2339 -1.2376  2.4759
14930SOL     OW48577   7.303   7.505   2.762 -0.5494  0.5161  0.0578
14930SOL    HW148578   7.281   7.552   2.843 -2.3101 -0.6733  0.3407
14930SOL    HW248579   7.286   7.413   2.783  1.1492 -0.0677 -1.0044
14931SOL     OW48580   0.689   7.617   6.682  0.3477 -0.8600 -0.4423
14931SOL    HW148581   0.645   7.670   6.616 -0.9684 -2.2603 -0.7380
14931SOL    HW248582   0.641   7.636   6.763  1.9413  0.8372  0.1949
14932SOL     OW48583   0.303   5.413   1.382  0.2119  0.0106 -0.2004
14932SOL    HW148584   0.268   5.326   1.401 -0.5138  0.2290 -0.5400
14932SOL    HW248585   0.373   5.424   1.447  0.9842 -1.2234 -0.7866
14933SOL     OW48586   9.164   5.799   7.613  0.1849 -0.0496  0.6743
14933SOL    HW148587   9.173   5.708   7.584 -0.9905  0.7319 -2.5886
14933SOL    HW248588   9.081   5.801   7.660 -0.5424 -0.4048 -0.5633
14934SOL     OW48589   0.803   5.037   4.109  0.4226  0.1055  0.2722
14934SOL    HW148590   0.777   5.107   4.048 -1.1809 -0.9171 -0.2916
14934SOL    HW248591   0.733   5.035   4.174 -0.4754 -2.0295 -0.6556
14935SOL     OW48592   2.671   3.892   3.603 -1.1727  0.4665 -0.2676
14935SOL    HW148593   2.716   3.814   3.572  1.2768  1.0215  1.5809
14935SOL    HW248594   2.658   3.945   3.525 -0.7183 -0.7551 -1.1989
14936SOL     OW48595   4.753   6.001   2.723  0.1839 -0.1837  0.3295
14936SOL    HW148596   4.690   5.954   2.668  0.3340  1.0691 -0.9612
14936SOL    HW248597   4.733   6.093   2.709  1.5928  0.2067  0.7653
14937SOL     OW48598   4.583   1.233   4.656  0.1351 -0.5260  0.5774
14937SOL    HW148599   4.638   1.157   4.675 -0.2542 -1.0842 -0.4334
14937SOL    HW248600   4.617   1.266   4.573 -0.3112 -0.1709  0.5378
14938SOL     OW48601   4.319   6.890   9.607 -0.2660 -0.0705 -0.0289
14938SOL    HW148602   4.320   6.806   9.653  0.3786  0.0743  0.2282
14938SOL    HW248603   4.246   6.938   9.647 -0.3171 -0.3092  0.1688
14939SOL     OW48604   2.192   9.200   4.263  0.5578 -0.8908  0.0065
14939SOL    HW148605   2.173   9.122   4.316 -0.2472 -1.2766 -0.8285
14939SOL    HW248606   2.287   9.195   4.249  0.5292 -1.6988  0.0069
14940SOL     OW48607   6.537   2.879   1.129  0.0044  0.1788  0.0520
14940SOL    HW148608   6.497   2.792   1.134 -1.4638  0.5299 -3.1528
14940SOL    HW248609   6.469   2.939   1.159 -0.5077  0.4582 -1.5531
14941SOL     OW48610   6.218   3.945   8.597 -0.2604 -0.5811 -0.3902
14941SOL    HW148611   6.123   3.946   8.583 -0.2107  0.6210 -0.7118
14941SOL    HW248612   6.244   3.855   8.578 -1.5826 -1.4091  1.4550
14942SOL     OW48613   5.360   4.234   6.384  0.2723  0.5748 -0.3855
14942SOL    HW148614   5.408   4.204   6.462  0.7415  1.7294 -0.2097
14942SOL    HW248615   5.279   4.270   6.418  0.3603  0.8405 -0.4575
14943SOL     OW48616   4.244   1.518   4.085 -0.3227 -0.0891  0.2171
14943SOL    HW148617   4.241   1.502   3.990 -0.5544 -0.6310  0.3108
14943SOL    HW248618   4.153   1.518   4.112 -0.2953  0.8237  0.3249
14944SOL     OW48619   4.073   5.419   5.094 -0.0504  0.1706  0.1928
14944SOL    HW148620   4.119   5.470   5.028  0.2724  1.8879  1.6863
14944SOL    HW248621   4.100   5.328   5.077  0.3371  0.6039 -1.7333
14945SOL     OW48622   9.881   2.656   3.177 -0.5734  0.2045  0.5528
14945SOL    HW148623   9.897   2.563   3.193 -0.4929  0.2142  0.5248
14945SOL    HW248624   9.903   2.699   3.259  0.8990  0.3856  0.0828
14946SOL     OW48625   6.518   5.920   1.880  0.5828  0.1053  0.4774
14946SOL    HW148626   6.531   5.900   1.972  0.6439 -0.4000  0.3608
14946SOL    HW248627   6.541   5.839   1.834 -0.3160  0.0687  0.0767
14947SOL     OW48628   1.471   0.944   1.682 -0.0557  0.0933 -0.3152
14947SOL    HW148629   1.525   0.901   1.748 -0.3352  1.3518  0.7526
14947SOL    HW248630   1.440   0.872   1.626  1.0009 -0.8703  0.3076
14948SOL     OW48631   1.765   1.316   3.732  0.0761 -0.8645  0.0761
14948SOL    HW148632   1.684   1.365   3.711  0.7604  0.1971 -0.1695
14948SOL    HW248633   1.752   1.285   3.821 -0.7901 -1.0829 -0.1167
14949SOL     OW48634   8.565   0.088   4.442 -0.0638  0.2128  0.3702
14949SOL    HW148635   8.652   0.126   4.455  0.2797 -0.0115 -1.0985
14949SOL    HW248636   8.553   0.089   4.347 -1.0415 -1.1322  0.4598
14950SOL     OW48637   1.670   3.673   1.423  0.1921  0.1695  0.2050
14950SOL    HW148638   1.759   3.693   1.391  0.2342 -1.5856 -0.9700
14950SOL    HW248639   1.666   3.712   1.510  2.1374  0.2827  0.2927
14951SOL     OW48640   6.399   0.002   5.335 -0.2296  0.0171  0.5701
14951SOL    HW148641   6.493   0.011   5.345 -0.1766 -0.6584  0.7568
14951SOL    HW248642   6.388  -0.075   5.279 -0.6621  0.3472  0.1837
14952SOL     OW48643   5.926   4.201   7.228  0.3417  0.2586  0.2411
14952SOL    HW148644   5.856   4.153   7.272  0.9917  0.1312  1.1743
14952SOL    HW248645   5.949   4.271   7.290  0.8364  0.4689 -0.1772
14953SOL     OW48646   1.350   2.012   4.268 -0.3089  0.1504 -0.7920
14953SOL    HW148647   1.272   2.034   4.319 -1.0318 -1.1591 -1.2860
14953SOL    HW248648   1.387   1.937   4.313 -1.9414 -2.1999 -3.0259
14954SOL     OW48649   3.825   1.961   4.464 -0.7025 -0.1250  0.0159
14954SOL    HW148650   3.899   1.926   4.513 -0.3757  0.4957 -0.0184
14954SOL    HW248651   3.847   1.944   4.372 -1.5708 -1.7834  0.0812
14955SOL     OW48652   4.398   2.104   8.367  0.5418  0.3291 -0.0875
14955SOL    HW148653   4.418   2.017   8.400 -0.6034 -0.9643 -2.5709
14955SOL    HW248654   4.462   2.119   8.298  0.8712  1.5940  0.4618
14956SOL     OW48655   1.172   2.495   2.321  0.2765 -0.1186  0.7044
14956SOL    HW148656   1.169   2.405   2.289 -0.2334  0.1117  0.0748
14956SOL    HW248657   1.234   2.493   2.394  1.6778 -0.6086 -0.4692
14957SOL     OW48658   4.341   4.856  10.266  0.4688  0.1343 -0.2619
14957SOL    HW148659   4.403   4.928  10.258 -2.0683  2.3084 -2.0058
14957SOL    HW248660   4.307   4.864  10.356  2.1976 -0.7401  0.5155
14958SOL     OW48661   8.968   9.746   9.091  0.4421  0.0489 -0.4624
14958SOL    HW148662   8.890   9.743   9.147  1.0272 -0.8211  0.3329
14958SOL    HW248663   8.935   9.727   9.003 -0.3477  0.4605 -0.2712
14959SOL     OW48664  10.177   3.440   9.442  0.3448  0.2707 -0.9771
14959SOL    HW148665  10.082   3.431   9.447  0.3599 -0.0161 -1.1918
14959SOL    HW248666  10.209   3.351   9.425  0.8542 -0.1551  1.7237
14960SOL     OW48667   2.287   7.800   5.866 -0.0404 -0.3995 -0.3688
14960SOL    HW148668   2.364   7.743   5.864 -1.0671 -1.8242 -1.1858
14960SOL    HW248669   2.243   7.783   5.783 -1.3936  0.1500  0.2165
14961SOL     OW48670  10.073   0.154   4.790  0.8315 -0.2843  0.1269
14961SOL    HW148671  10.111   0.113   4.868  0.5799 -0.7814 -0.0099
14961SOL    HW248672  10.052   0.081   4.732 -1.3112 -0.1473  0.6224
14962SOL     OW48673   7.241   2.263   2.213  0.4499 -0.2093  0.3165
14962SOL    HW148674   7.151   2.278   2.184  0.2071 -0.8706  0.6907
14962SOL    HW248675   7.239   2.176   2.253  1.3228 -0.3497  0.0799
14963SOL     OW48676   8.862   4.878  10.075 -0.1921 -0.3161 -0.4799
14963SOL    HW148677   8.948   4.903  10.109 -0.7848 -0.6995  1.4187
14963SOL    HW248678   8.869   4.892   9.980  1.8013  0.0812 -0.3267
14964SOL     OW48679   8.292   7.367   0.880 -0.3423 -0.1429 -0.1134
14964SOL    HW148680   8.292   7.457   0.846 -1.6346 -0.8056 -2.0436
14964SOL    HW248681   8.382   7.337   0.868 -0.3441  0.2743 -1.2553
14965SOL     OW48682   1.521   1.169   9.231 -0.2905 -0.2684  0.2302
14965SOL    HW148683   1.510   1.260   9.205  0.1469  0.0110  0.9955
14965SOL    HW248684   1.553   1.173   9.321  0.3313 -1.1653  0.0664
14966SOL     OW48685   9.506   9.837   3.971  0.2101  0.2420 -0.2052
14966SOL    HW148686   9.526   9.915   3.919  1.4074 -0.0711 -0.2419
14966SOL    HW248687   9.445   9.786   3.917 -0.4747  1.0702 -0.2384
14967SOL     OW48688   6.481   4.363   3.415  0.2596 -0.3878 -0.4406
14967SOL    HW148689   6.538   4.322   3.351  0.0068  1.3026 -1.8367
14967SOL    HW248690   6.496   4.315   3.496  0.4607 -2.7286 -1.7850
14968SOL     OW48691   8.640   3.170   4.341 -0.0101 -0.2549  0.0807
14968SOL    HW148692   8.715   3.111   4.329  0.2508  0.0088  0.4035
14968SOL    HW248693   8.584   3.152   4.266  1.0811  0.6021 -0.9834
14969SOL     OW48694   6.773   9.220   0.811 -0.1199  0.2669  0.3210
14969SOL    HW148695   6.693   9.247   0.857 -0.2276  0.5271 -0.0087
14969SOL    HW248696   6.784   9.128   0.833  0.1380  0.5187  1.3139
14970SOL     OW48697   3.632   3.722   7.812  0.6323  0.1829  0.4808
14970SOL    HW148698   3.635   3.677   7.897 -0.5883 -0.3096  0.2843
14970SOL    HW248699   3.624   3.652   7.748 -0.3325  0.6129  0.1058
14971SOL     OW48700   8.199   6.372   1.589  0.3869 -0.0001 -0.0184
14971SOL    HW148701   8.252   6.308   1.542 -0.4320 -1.7192  1.2636
14971SOL    HW248702   8.113   6.368   1.548  0.9363  2.1430 -1.5254
14972SOL     OW48703   0.344   0.033   8.186 -0.3324  0.1739 -0.0056
14972SOL    HW148704   0.426   0.077   8.162 -0.1037 -0.5309 -0.5502
14972SOL    HW248705   0.340   0.040   8.282  0.7608 -0.4431  0.1086
14973SOL     OW48706   0.102   5.977   6.710  0.0350  0.0133  0.1256
14973SOL    HW148707   0.014   5.980   6.748 -0.9992  3.1551 -2.1545
14973SOL    HW248708   0.156   6.029   6.770 -0.0551 -0.3872  0.5630
14974SOL     OW48709  10.078   6.873   7.666  0.6599 -0.1608  0.2775
14974SOL    HW148710  10.037   6.901   7.748 -2.1605 -0.9054 -0.7618
14974SOL    HW248711  10.097   6.780   7.679 -1.0816 -0.6389 -0.3100
14975SOL     OW48712   6.940   3.297   4.663 -0.1706 -0.6572  0.3630
14975SOL    HW148713   7.028   3.335   4.658  0.4995 -2.0795  1.0142
14975SOL    HW248714   6.945   3.218   4.610 -0.2398 -2.2208  2.5615
14976SOL     OW48715   7.386   1.367   2.913 -0.1574 -0.0271 -0.0217
14976SOL    HW148716   7.476   1.357   2.944  0.0653 -1.1340 -0.9351
14976SOL    HW248717   7.371   1.461   2.911  1.6024  0.2732 -1.4611
14977SOL     OW48718   9.231   0.303   6.876  0.5923 -0.7127 -0.2025
14977SOL    HW148719   9.215   0.396   6.890  1.1412 -0.5911 -0.3789
14977SOL    HW248720   9.157   0.260   6.919 -1.0443 -0.1371 -2.2699
14978SOL     OW48721   3.774   6.357   1.958  0.2933 -0.1604 -0.1869
14978SOL    HW148722   3.743   6.303   2.031  1.0560 -0.3774 -0.0143
14978SOL    HW248723   3.701   6.417   1.940 -0.3764 -0.9057 -0.0513
14979SOL     OW48724   0.695   1.805   4.668 -0.2295 -0.0239 -0.1670
14979SOL    HW148725   0.775   1.761   4.696 -0.7824  0.2266  2.0101
14979SOL    HW248726   0.713   1.898   4.680 -0.3013  0.1535 -1.2986
14980SOL     OW48727   1.805   0.370   2.540 -0.1085  0.7313  0.1847
14980SOL    HW148728   1.833   0.450   2.495 -2.8360  0.8300 -1.5594
14980SOL    HW248729   1.712   0.384   2.560  0.3382 -0.3003  3.8744
14981SOL     OW48730   0.092   2.310   6.262  0.3857 -0.7242  0.5132
14981SOL    HW148731   0.093   2.381   6.326  0.6050 -0.2122 -0.0578
14981SOL    HW248732   0.152   2.338   6.193 -1.5696 -0.2107 -1.0811
14982SOL     OW48733   6.540   7.418   8.354 -0.4288  0.0483  0.7019
14982SOL    HW148734   6.480   7.384   8.421 -0.0555 -0.0681  0.9763
14982SOL    HW248735   6.547   7.511   8.374 -0.6316  0.0924  0.5779
14983SOL     OW48736   4.229   6.341   3.567 -0.2158 -0.6209  0.1722
14983SOL    HW148737   4.272   6.261   3.600  0.1440 -0.9653 -1.0962
14983SOL    HW248738   4.266   6.354   3.480 -0.7989  0.5457  0.0879
14984SOL     OW48739   5.003   9.234   0.858  0.1817  0.0881  0.8520
14984SOL    HW148740   5.021   9.248   0.951 -0.6083  1.4268  0.8260
14984SOL    HW248741   5.001   9.322   0.820 -0.0926 -0.4005 -0.3316
14985SOL     OW48742   8.177   7.832   6.014  0.0494  0.0066  0.0793
14985SOL    HW148743   8.266   7.797   6.004  0.2658  0.8578 -1.2617
14985SOL    HW248744   8.128   7.792   5.942 -0.1870  0.9465 -0.2917
14986SOL     OW48745   8.181   2.256   6.594 -0.5620 -0.6380 -0.0463
14986SOL    HW148746   8.272   2.257   6.624 -0.8826 -2.1172  1.1021
14986SOL    HW248747   8.137   2.194   6.652 -1.9156 -1.3325 -1.7074
14987SOL     OW48748   2.149   2.904   3.591 -0.1871  0.1018 -0.3998
14987SOL    HW148749   2.084   2.887   3.660 -0.4047  0.8197 -0.4213
14987SOL    HW248750   2.178   2.994   3.607  1.5475 -0.5128  0.2228
14988SOL     OW48751   3.570   0.260   5.221 -0.5629 -0.0196  0.1802
14988SOL    HW148752   3.482   0.295   5.220 -0.6279 -0.0701  1.5392
14988SOL    HW248753   3.595   0.261   5.314  0.6707 -0.4642 -0.1239
14989SOL     OW48754   4.280   6.964   1.008 -0.1099 -0.0028 -0.5872
14989SOL    HW148755   4.357   6.907   1.011  1.1928  1.4578 -2.9197
14989SOL    HW248756   4.226   6.926   0.939  0.1911  0.8672 -1.3140
14990SOL     OW48757   7.405   0.117   8.865 -0.0977 -0.4143 -0.0277
14990SOL    HW148758   7.391   0.189   8.926 -0.8883 -0.4398 -0.1665
14990SOL    HW248759   7.394   0.038   8.917  1.6665 -0.4628  0.3256
14991SOL     OW48760   0.518   4.602   2.240 -0.0055  0.6251  0.5335
14991SOL    HW148761   0.536   4.695   2.247 -1.1897  0.8372  1.0049
14991SOL    HW248762   0.446   4.587   2.301  0.6067 -0.7270  0.9793
14992SOL     OW48763   2.431   4.329   8.058  0.1463  0.2517 -0.0410
14992SOL    HW148764   2.379   4.251   8.077 -0.1607  0.3278 -0.5276
14992SOL    HW248765   2.477   4.349   8.139  1.5119 -1.3875 -0.3560
14993SOL     OW48766   0.836   7.400   7.711  0.4550  0.1614  0.0085
14993SOL    HW148767   0.882   7.460   7.769  1.5952 -0.2670 -0.4084
14993SOL    HW248768   0.817   7.323   7.765  1.0604 -0.0282 -0.0338
14994SOL     OW48769   4.647   3.728   0.585 -0.4242 -0.1312  0.6205
14994SOL    HW148770   4.560   3.734   0.545 -0.1289 -1.2697 -0.2184
14994SOL    HW248771   4.685   3.649   0.548 -0.1423 -1.2922  3.1616
14995SOL     OW48772   2.264   1.883   6.522  0.6027  0.0643 -0.2862
14995SOL    HW148773   2.295   1.959   6.572 -0.1549  0.1205  0.1173
14995SOL    HW248774   2.221   1.828   6.588  2.4177 -1.4519 -0.2838
14996SOL     OW48775   8.680   0.293   7.866 -0.2252 -0.5535 -0.2091
14996SOL    HW148776   8.609   0.233   7.843  1.3338 -2.4505 -0.3011
14996SOL    HW248777   8.670   0.306   7.960 -1.9261  0.9335 -0.5450
14997SOL     OW48778   1.782   6.727   2.110  0.4485  0.5499  0.4057
14997SOL    HW148779   1.731   6.645   2.112 -0.2193  0.9288 -0.4172
14997SOL    HW248780   1.716   6.796   2.108  0.9742  1.2079  2.5416
14998SOL     OW48781   9.823  10.037  10.066  0.1250 -0.3423 -0.8176
14998SOL    HW148782   9.746   9.988  10.037 -1.5293  0.6277  1.6003
14998SOL    HW248783   9.792  10.128  10.072  0.0455 -0.4115  3.9732
14999SOL     OW48784   0.972   6.167   4.741 -0.3545 -0.1858  0.1756
14999SOL    HW148785   0.903   6.207   4.688 -0.0926  1.2468  0.8693
14999SOL    HW248786   0.926   6.126   4.814 -0.4556  1.3846  1.0262
15000SOL     OW48787   1.099   8.967   9.898 -0.4286  0.1449 -0.1540
15000SOL    HW148788   1.101   9.063   9.890  0.4137  0.2827  1.4849
15000SOL    HW248789   1.016   8.942   9.857  0.8004  1.2113 -3.6696
15001SOL     OW48790   2.329   2.768   1.140 -0.4118  0.5934 -0.5178
15001SOL    HW148791   2.399   2.833   1.142  1.9937 -1.8238  0.0491
15001SOL    HW248792   2.310   2.751   1.233  0.4686 -0.8920 -0.5701
15002SOL     OW48793   1.913   9.897   5.982 -0.3300  1.0954  0.4429
15002SOL    HW148794   1.842   9.851   6.027  0.5418  1.3086  2.1101
15002SOL    HW248795   1.929   9.975   6.035  1.1186  1.0701  0.0815
15003SOL     OW48796   6.970   3.119   8.061  0.3180  0.4659  0.1860
15003SOL    HW148797   7.063   3.142   8.059  0.6030 -0.4941  1.2378
15003SOL    HW248798   6.956   3.084   8.149 -0.3672 -2.0703 -0.8475
15004SOL     OW48799   5.377   1.452   8.416  0.0874  0.0727 -0.0783
15004SOL    HW148800   5.312   1.493   8.360  0.4906 -1.4016 -1.6997
15004SOL    HW248801   5.455   1.508   8.407 -0.4236  0.9168  0.5778
15005SOL     OW48802   7.548   2.479   2.427 -0.0132 -0.1162  0.5182
15005SOL    HW148803   7.541   2.569   2.394 -1.5264  0.6317  2.6598
15005SOL    HW248804   7.489   2.428   2.370  1.6479 -0.0424 -1.3851
15006SOL     OW48805   0.044   7.856   1.106 -0.3637 -0.6170  0.1142
15006SOL    HW148806  -0.021   7.922   1.081 -0.5704 -0.3543  1.2871
15006SOL    HW248807   0.086   7.892   1.184  0.3663 -1.3310  0.0599
15007SOL     OW48808   8.665   9.126   0.224  0.7243 -0.1695 -0.3227
15007SOL    HW148809   8.707   9.190   0.282  0.6995 -0.7559  0.3587
15007SOL    HW248810   8.659   9.047   0.277 -3.2759  0.4546  0.4527
15008SOL     OW48811   5.021   3.351   8.279 -0.0241 -0.0188  0.3540
15008SOL    HW148812   4.932   3.352   8.312 -0.5133 -0.5252 -0.8757
15008SOL    HW248813   5.076   3.370   8.355 -1.1492 -0.1113  1.2067
15009SOL     OW48814   9.005   4.356   8.144  0.8657 -0.2721 -0.2054
15009SOL    HW148815   8.985   4.344   8.051 -1.0752  0.9598 -0.0060
15009SOL    HW248816   8.981   4.447   8.162  2.2923 -0.1445  1.2719
15010SOL     OW48817   6.792   7.919   1.862  0.0260  0.2411  0.0919
15010SOL    HW148818   6.756   7.876   1.784 -0.9845  1.0513  0.0910
15010SOL    HW248819   6.774   7.858   1.933 -0.8928  0.3855 -0.0009
15011SOL     OW48820   4.932   3.547   1.746 -0.4081 -0.1704 -0.1832
15011SOL    HW148821   4.859   3.542   1.808 -1.0734 -0.1903 -0.9622
15011SOL    HW248822   4.969   3.458   1.746 -0.9232 -0.3879 -0.4307
15012SOL     OW48823   4.046   3.670   6.417 -0.1980 -0.1462 -0.0007
15012SOL    HW148824   4.114   3.621   6.464 -1.5581 -0.7707  1.3898
15012SOL    HW248825   4.091   3.748   6.385  0.7356  0.5140  2.6693
15013SOL     OW48826   8.612   6.118   0.570 -0.6185  0.2557 -0.3210
15013SOL    HW148827   8.586   6.208   0.551 -0.4758  0.5504  0.8500
15013SOL    HW248828   8.589   6.104   0.661 -1.6321 -1.2684 -0.7794
15014SOL     OW48829   9.481   7.098   4.676 -0.6405  1.0059 -0.1143
15014SOL    HW148830   9.411   7.033   4.673  0.5969 -0.3780 -0.1396
15014SOL    HW248831   9.451   7.162   4.741 -0.0247 -1.9392  3.3788
15015SOL     OW48832   6.971   9.536   1.764 -0.1201  0.1206 -0.5585
15015SOL    HW148833   6.912   9.551   1.690  0.7205  1.3941 -1.0036
15015SOL    HW248834   7.059   9.543   1.726  0.3351 -0.8171  0.2652
15016SOL     OW48835   0.606   8.171   5.430  0.1575 -0.0407  0.5223
15016SOL    HW148836   0.579   8.083   5.404  0.2792 -0.2161  0.9804
15016SOL    HW248837   0.559   8.188   5.511 -0.9204  0.8624 -0.2602
15017SOL     OW48838   3.156   4.553   2.788  0.1048 -0.1514  0.9103
15017SOL    HW148839   3.106   4.590   2.716  2.7764  0.1185 -0.9361
15017SOL    HW248840   3.173   4.462   2.762 -1.0085 -0.8642  2.4496
15018SOL     OW48841   1.808   4.993   4.771  0.5246  0.5013 -0.2829
15018SOL    HW148842   1.853   4.982   4.688  1.7889  0.7395  0.3343
15018SOL    HW248843   1.715   4.996   4.749  0.8486  0.7190 -1.6911
15019SOL     OW48844   2.581   6.545   5.047  0.6898  0.5909  0.1880
15019SOL    HW148845   2.542   6.515   5.129  0.2265  0.0037 -0.2320
15019SOL    HW248846   2.571   6.640   5.048 -0.1380  0.5081  0.3986
15020SOL     OW48847   9.435   9.025   2.453 -0.0322 -0.2048 -0.0982
15020SOL    HW148848   9.460   9.095   2.514 -1.3838  0.6682 -0.4753
15020SOL    HW248849   9.501   9.028   2.384  0.7331 -0.2739  0.6205
15021SOL     OW48850   7.965   8.435   0.903  0.1090  0.0270  0.3391
15021SOL    HW148851   7.876   8.421   0.871  0.3025  1.0473 -0.6789
15021SOL    HW248852   8.019   8.377   0.850  0.2672  0.7358 -0.2790
15022SOL     OW48853   5.943   9.903   8.723 -0.3305 -0.1178 -0.1304
15022SOL    HW148854   5.910   9.984   8.763 -1.4537 -0.1830 -0.8762
15022SOL    HW248855   5.910   9.906   8.633 -0.6977 -1.5698 -0.0625
15023SOL     OW48856   7.583   8.212   1.390 -0.5111  0.0999  0.0903
15023SOL    HW148857   7.575   8.252   1.477 -1.6509 -0.4822  0.2702
15023SOL    HW248858   7.537   8.129   1.398 -0.8992  0.1784 -1.1651
15024SOL     OW48859   3.799   5.307   1.712  0.3638 -0.5288 -0.1268
15024SOL    HW148860   3.838   5.219   1.713  1.3351 -0.1450 -1.3409
15024SOL    HW248861   3.827   5.344   1.629  0.0940  0.9998  0.4347
15025SOL     OW48862   8.209   1.955   6.278  0.1137  0.3474  0.0587
15025SOL    HW148863   8.206   2.039   6.324 -0.1561 -1.1272  2.9625
15025SOL    HW248864   8.296   1.952   6.239 -0.4996  2.6916 -1.6907
15026SOL     OW48865   3.722   3.846   9.267  0.6750 -0.3686  0.0823
15026SOL    HW148866   3.812   3.869   9.245  0.0131  1.3978 -0.9660
15026SOL    HW248867   3.684   3.817   9.184 -0.3201  1.0710 -0.0038
15027SOL     OW48868   8.206   8.676   3.034 -0.6708 -0.4779  0.4756
15027SOL    HW148869   8.201   8.739   3.105 -0.8369  1.4485 -1.1554
15027SOL    HW248870   8.116   8.672   3.000 -0.2857 -0.1105 -0.6282
15028SOL     OW48871   1.062   6.979   8.583 -0.5846 -0.6457  0.6350
15028SOL    HW148872   1.000   7.042   8.618 -0.0320  1.0778 -1.2503
15028SOL    HW248873   1.009   6.916   8.535 -1.0523 -0.9120  1.4860
15029SOL     OW48874   0.542   6.962   8.476  0.4745  0.2905 -0.0386
15029SOL    HW148875   0.599   6.910   8.534  0.9947  0.9227  0.0306
15029SOL    HW248876   0.481   6.898   8.440  0.3768 -0.1807  0.9235
15030SOL     OW48877   3.586   7.267  10.199  0.2419  1.0151 -0.1439
15030SOL    HW148878   3.542   7.256  10.114  0.9789  0.4334 -0.4667
15030SOL    HW248879   3.675   7.292  10.176  0.6101  0.2751  0.4363
15031SOL     OW48880   6.266   5.904   5.182 -0.1776  0.3919 -0.2357
15031SOL    HW148881   6.270   5.939   5.271 -1.7688  0.2833 -0.0822
15031SOL    HW248882   6.333   5.952   5.134 -0.1679  1.3734  0.7167
15032SOL     OW48883   9.067   6.254   5.937 -0.0783 -0.6939  0.1068
15032SOL    HW148884   9.083   6.172   5.890 -0.1169 -0.4468 -0.3452
15032SOL    HW248885   9.010   6.230   6.010  0.1228 -1.1124  0.1245
15033SOL     OW48886   4.903   8.616   0.798  0.2116  0.3639 -0.4307
15033SOL    HW148887   4.809   8.603   0.781 -0.1709  0.3316  1.4506
15033SOL    HW248888   4.929   8.684   0.736 -1.3021  1.0654 -0.3454
15034SOL     OW48889   7.646   4.652   6.407  0.0540  0.0148  0.0303
15034SOL    HW148890   7.691   4.571   6.382  0.3068  0.4978 -1.1145
15034SOL    HW248891   7.575   4.623   6.465 -0.2374 -1.0998 -0.8434
15035SOL     OW48892   2.693   4.257   9.929  0.1278  0.5943  0.1068
15035SOL    HW148893   2.640   4.293   9.999 -0.8534  0.0486 -0.3342
15035SOL    HW248894   2.641   4.271   9.850  0.7502  0.2692 -0.3697
15036SOL     OW48895   3.864   4.879   2.188  0.2061 -0.1298  0.2244
15036SOL    HW148896   3.860   4.803   2.130 -0.1889 -0.0494  0.1464
15036SOL    HW248897   3.943   4.927   2.160  0.0827 -0.1529 -0.1679
15037SOL     OW48898   2.563   9.809   1.292  0.2770 -0.0860 -0.6463
15037SOL    HW148899   2.513   9.786   1.214 -0.6896  0.7751 -0.3240
15037SOL    HW248900   2.541   9.902   1.307  0.0185 -0.3663  0.9146
15038SOL     OW48901   7.616   5.663   9.436 -0.0343 -0.6506  0.4928
15038SOL    HW148902   7.549   5.611   9.391  0.6856 -1.0893 -0.0889
15038SOL    HW248903   7.609   5.750   9.396  1.8620 -1.5050 -1.8977
15039SOL     OW48904   0.833   8.938   1.318  0.0731  0.4227 -0.3740
15039SOL    HW148905   0.826   8.850   1.281 -1.4597 -0.2688  1.3779
15039SOL    HW248906   0.784   8.993   1.257 -1.3462 -0.4580 -0.0900
15040SOL     OW48907   9.130   9.020   4.079 -0.0793 -0.1253 -0.2135
15040SOL    HW148908   9.106   9.111   4.095 -1.5014 -0.5463  0.1196
15040SOL    HW248909   9.150   9.017   3.985  2.3323  1.0095  0.1769
15041SOL     OW48910   7.624   1.396   5.311 -0.5230 -0.5206  0.1306
15041SOL    HW148911   7.715   1.387   5.339 -0.2326  0.3345 -0.4975
15041SOL    HW248912   7.622   1.359   5.223 -0.5339  0.4125 -0.2751
15042SOL     OW48913   3.567   1.057   4.093  0.2179  0.1363 -0.1542
15042SOL    HW148914   3.478   1.092   4.105  0.1391 -0.2979  0.5910
15042SOL    HW248915   3.557   0.963   4.108  0.9225  0.1755  0.5649
15043SOL     OW48916   6.358   4.380   4.663 -0.3543  0.3684  0.1616
15043SOL    HW148917   6.284   4.397   4.722 -0.4949  2.7603 -0.6170
15043SOL    HW248918   6.326   4.312   4.604 -1.0678 -0.3191  1.2855
15044SOL     OW48919   0.926   7.971   6.564 -0.1675  0.6362  0.1579
15044SOL    HW148920   0.992   8.003   6.504 -1.0997 -1.0507 -1.8895
15044SOL    HW248921   0.960   7.887   6.595 -0.1025  1.0769  1.3548
15045SOL     OW48922   0.672   5.351   5.526 -0.2393  0.2541 -0.0028
15045SOL    HW148923   0.732   5.288   5.486 -1.3263 -0.4176 -0.6104
15045SOL    HW248924   0.701   5.356   5.618  0.1783 -0.7402 -0.0633
15046SOL     OW48925   5.343   0.940   0.933 -0.1184 -0.2363  0.3527
15046SOL    HW148926   5.364   0.849   0.913  0.5894 -0.1414  0.6327
15046SOL    HW248927   5.306   0.937   1.022 -1.2337 -0.3873 -0.0926
15047SOL     OW48928   3.487   8.889   4.776 -0.1492  0.1564 -0.2300
15047SOL    HW148929   3.445   8.834   4.843  0.4309 -0.2305 -0.1755
15047SOL    HW248930   3.414   8.922   4.723 -0.4234 -3.2073 -2.2754
15048SOL     OW48931   4.365  10.317   9.262  0.2305  0.2753 -0.2788
15048SOL    HW148932   4.282  10.294   9.219 -0.2462  0.2372  0.6443
15048SOL    HW248933   4.340  10.355   9.346  1.1727 -1.2208  0.7301
15049SOL     OW48934   7.219  10.112   1.250  0.1790 -0.2930  0.4311
15049SOL    HW148935   7.189  10.200   1.226 -0.1483 -0.4204  0.3633
15049SOL    HW248936   7.301  10.127   1.297  1.6919 -0.1039 -2.0627
15050SOL     OW48937   3.904   3.994   8.197 -0.1275 -0.6438  0.4769
15050SOL    HW148938   3.830   4.008   8.258  1.5012 -1.3830  2.7699
15050SOL    HW248939   3.965   4.065   8.217  1.3336 -2.0394  1.2069
15051SOL     OW48940   8.414   3.549   3.729  0.0734  0.0461 -0.3767
15051SOL    HW148941   8.468   3.620   3.693 -0.2363 -0.1906 -1.3387
15051SOL    HW248942   8.337   3.546   3.672  0.1751 -1.1876 -0.4672
15052SOL     OW48943   4.135   5.596   3.378 -0.2866 -0.0423 -0.2731
15052SOL    HW148944   4.207   5.642   3.422 -0.4081 -1.8335  1.9581
15052SOL    HW248945   4.057   5.645   3.404 -0.2297 -0.3442  0.4931
15053SOL     OW48946   9.516  10.004   8.822  0.1461  0.3617 -0.2339
15053SOL    HW148947   9.497  10.047   8.906 -1.5280  1.6832 -1.2259
15053SOL    HW248948   9.550  10.074   8.767  1.4526 -0.5505 -0.6144
15054SOL     OW48949   4.552   6.974   3.061  0.2662 -0.3013 -0.0592
15054SOL    HW148950   4.525   6.999   3.149  0.2617  2.8110 -0.8267
15054SOL    HW248951   4.646   6.991   3.058 -0.1900  2.5337 -1.4062
15055SOL     OW48952   0.930   4.903   8.133  0.0964 -0.8883  0.0509
15055SOL    HW148953   0.995   4.848   8.176  0.0471 -0.1682  1.0722
15055SOL    HW248954   0.969   4.924   8.048  1.9836  0.9276  1.2923
15056SOL     OW48955   3.095   0.449   6.560  0.3342 -0.1045 -0.5730
15056SOL    HW148956   3.190   0.460   6.573  0.5446 -1.8657 -0.2819
15056SOL    HW248957   3.062   0.427   6.647 -0.2328 -0.1925 -0.8113
15057SOL     OW48958   3.985   0.009   9.587  0.6465 -0.6032 -0.1393
15057SOL    HW148959   4.009   0.101   9.597  2.0721 -0.9140 -0.4624
15057SOL    HW248960   3.908   0.010   9.530  2.6613  0.2658 -3.1036
15058SOL     OW48961   2.886   6.253   2.397  0.2556 -0.3595 -0.2191
15058SOL    HW148962   2.981   6.249   2.380  0.3136 -0.7604  0.2107
15058SOL    HW248963   2.859   6.162   2.405 -0.2805 -0.2702 -0.9350
15059SOL     OW48964   0.294   4.278   0.286  0.1128 -0.0355 -0.1010
15059SOL    HW148965   0.387   4.254   0.283  0.2681  0.5948 -1.3672
15059SOL    HW248966   0.290   4.361   0.238 -0.8592  0.8607  1.4483
15060SOL     OW48967   3.170   2.242   8.427 -0.3693 -0.2660 -0.1951
15060SOL    HW148968   3.250   2.191   8.412 -0.0013 -0.3279  1.6864
15060SOL    HW248969   3.100   2.191   8.386  0.5495 -0.1325 -1.9983
15061SOL     OW48970   4.141   4.513   3.035 -0.1484 -0.2205 -0.1650
15061SOL    HW148971   4.130   4.596   3.080  0.3151  0.0541 -0.5475
15061SOL    HW248972   4.149   4.536   2.942 -1.2067 -0.7849 -0.4120
15062SOL     OW48973   2.144   3.351   1.880 -0.2960  0.0529 -0.3099
15062SOL    HW148974   2.207   3.281   1.863  0.5859  0.7136  0.1449
15062SOL    HW248975   2.107   3.372   1.793  0.6850  0.1829 -0.7069
15063SOL     OW48976   6.912   4.997   4.476 -0.0257  0.3111 -0.0284
15063SOL    HW148977   6.842   5.042   4.523 -0.8021 -0.7558 -0.1190
15063SOL    HW248978   6.992   5.037   4.509 -0.6687  3.5858 -1.9340
15064SOL     OW48979   6.256   4.303   1.593  0.3376  0.2720  0.1077
15064SOL    HW148980   6.194   4.279   1.662 -0.8378  0.0326 -0.9847
15064SOL    HW248981   6.210   4.371   1.543  0.8516 -0.0966 -0.8797
15065SOL     OW48982   9.852   5.246   7.809  0.1124  0.2307 -0.7047
15065SOL    HW148983   9.911   5.318   7.830 -1.2126  0.7449  1.7191
15065SOL    HW248984   9.784   5.286   7.754 -1.0493  1.1619  1.2650
15066SOL     OW48985   6.368   4.308   9.393 -0.1679  0.4525 -0.5127
15066SOL    HW148986   6.355   4.261   9.311  3.5487 -0.0461 -0.9698
15066SOL    HW248987   6.433   4.256   9.441 -0.7742  1.7715  1.9143
15067SOL     OW48988   2.766   4.246   8.543 -0.5033  0.1225  0.9584
15067SOL    HW148989   2.743   4.298   8.620  0.3039 -1.2206  2.1442
15067SOL    HW248990   2.861   4.255   8.535 -0.2806 -1.5746  1.5055
15068SOL     OW48991  10.091   1.128   7.905 -0.0663  0.1780  0.1245
15068SOL    HW148992  10.027   1.092   7.967 -0.9163  0.6354 -0.4708
15068SOL    HW248993  10.135   1.051   7.869 -3.3104 -0.5845 -2.7363
15069SOL     OW48994   2.196  10.111   5.230 -0.4609 -0.3004  0.3909
15069SOL    HW148995   2.271  10.067   5.271  1.3134  1.1782 -1.0888
15069SOL    HW248996   2.119  10.067   5.267  1.0463 -0.5235  3.5537
15070SOL     OW48997   4.676   5.425   1.033  0.2231 -0.4755 -0.3176
15070SOL    HW148998   4.726   5.500   1.066  0.2710 -0.4180 -0.5196
15070SOL    HW248999   4.704   5.417   0.941 -1.1102  0.3782 -0.8255
15071SOL     OW49000   5.232   0.347   5.333  0.0981 -0.3605 -0.6526
15071SOL    HW149001   5.247   0.264   5.377  1.1254 -0.1303 -0.5341
15071SOL    HW249002   5.211   0.324   5.243  0.3254 -0.7548 -0.6065
15072SOL     OW49003   2.956   3.338   3.825  0.4087 -0.7480  0.0766
15072SOL    HW149004   2.913   3.285   3.892 -0.7302  0.4952  0.3665
15072SOL    HW249005   2.963   3.280   3.749  0.3912 -1.7089  0.7864
15073SOL     OW49006   9.244   3.421   3.293 -0.0355 -0.1432  0.0644
15073SOL    HW149007   9.250   3.475   3.214 -1.2666  0.5586  0.4056
15073SOL    HW249008   9.304   3.348   3.278 -0.6787 -0.3445 -1.7681
15074SOL     OW49009   2.231   5.809   0.601 -0.3241  0.3331 -0.0105
15074SOL    HW149010   2.244   5.740   0.667 -2.7445  0.5513  0.8002
15074SOL    HW249011   2.294   5.789   0.532 -0.2799 -2.1220  0.6557
15075SOL     OW49012   6.505   2.531   4.821  0.6490  0.0480 -0.0603
15075SOL    HW149013   6.525   2.442   4.850  1.0825  0.3969  0.7566
15075SOL    HW249014   6.514   2.584   4.900  0.0112  0.7630 -0.4575
15076SOL     OW49015   8.528   9.211   5.803  0.5086  0.1828 -0.3062
15076SOL    HW149016   8.581   9.134   5.783  0.5214 -0.2348  1.1968
15076SOL    HW249017   8.538   9.268   5.727 -0.0089 -1.5613 -1.7379
15077SOL     OW49018   8.413   1.214   6.799  0.4299 -0.4740 -0.2462
15077SOL    HW149019   8.360   1.158   6.742  0.8255 -1.4001  0.2756
15077SOL    HW249020   8.494   1.164   6.813 -0.5246 -1.3457  2.9483
15078SOL     OW49021   9.333   7.292   0.800 -0.2713 -0.9615  0.0625
15078SOL    HW149022   9.286   7.270   0.881 -1.4041 -0.3550 -0.4015
15078SOL    HW249023   9.274   7.262   0.730  0.3104 -0.7049 -0.5404
15079SOL     OW49024   8.346   0.571   1.200  0.7386 -0.3750 -1.3080
15079SOL    HW149025   8.332   0.485   1.240  0.3481 -0.2443 -1.1549
15079SOL    HW249026   8.357   0.552   1.107 -1.6424 -0.4342 -1.6525
15080SOL     OW49027   6.276   6.216   2.543  0.9362 -0.3513  0.1519
15080SOL    HW149028   6.307   6.265   2.467  2.7313 -0.5467  0.7155
15080SOL    HW249029   6.200   6.266   2.574  2.1437  1.5871  0.1618
15081SOL     OW49030   7.613   1.656   1.269 -0.4147 -0.2251  0.1459
15081SOL    HW149031   7.610   1.742   1.227 -0.7035  0.3735  1.3520
15081SOL    HW249032   7.575   1.671   1.356 -1.0798 -1.7119  0.1341
15082SOL     OW49033   1.988   6.482   8.930 -0.1273 -0.5134  0.0181
15082SOL    HW149034   1.893   6.484   8.939 -0.0529 -0.8177  0.9612
15082SOL    HW249035   2.007   6.399   8.885 -0.2895 -0.6280  0.1605
15083SOL     OW49036   3.127   2.481   5.801  0.0234  0.4954 -0.2856
15083SOL    HW149037   3.148   2.558   5.747  2.5929  1.3006  1.6397
15083SOL    HW249038   3.112   2.517   5.888 -1.2333 -1.0167  0.1574
15084SOL     OW49039   9.293   9.092   3.361 -0.4123 -0.2584  0.6614
15084SOL    HW149040   9.264   9.114   3.450 -0.8950 -1.3767  0.7859
15084SOL    HW249041   9.231   9.138   3.304  0.4289  1.2038  0.8584
15085SOL     OW49042   9.681  10.073   2.401 -0.2972 -0.0650 -0.2071
15085SOL    HW149043   9.714  10.075   2.491 -0.2826  1.1026 -0.2201
15085SOL    HW249044   9.599  10.023   2.407  0.9520 -2.1900 -0.0230
15086SOL     OW49045   2.105   1.807   8.702 -0.3223  0.1739  0.1222
15086SOL    HW149046   2.159   1.736   8.737  0.4124  0.1669 -0.9956
15086SOL    HW249047   2.074   1.774   8.618  0.6992  1.4682 -0.8058
15087SOL     OW49048   5.387   8.285   4.700  0.4253 -0.3408 -0.6139
15087SOL    HW149049   5.304   8.290   4.654 -0.3911  1.2015  0.9370
15087SOL    HW249050   5.375   8.216   4.765 -0.0334  0.5780  0.2991
15088SOL     OW49051   4.432   6.341   1.148 -0.2299  0.1016  0.3236
15088SOL    HW149052   4.462   6.407   1.087  0.0361  0.4915  0.8722
15088SOL    HW249053   4.478   6.360   1.229 -1.8736  0.6869  1.1735
15089SOL     OW49054   9.432   8.153   0.429 -0.6668  0.6122  0.2278
15089SOL    HW149055   9.472   8.106   0.502 -1.9895  1.5069  1.5934
15089SOL    HW249056   9.505   8.178   0.373  0.2069 -1.7144  0.2377
15090SOL     OW49057   8.240   0.081   9.593  0.2873  0.0742 -0.0882
15090SOL    HW149058   8.229   0.085   9.498  1.6944 -1.3170 -0.3620
15090SOL    HW249059   8.202   0.163   9.625  0.1069  0.7458 -1.8773
15091SOL     OW49060   8.159   2.957   6.520 -0.1929  0.4333  0.6331
15091SOL    HW149061   8.241   2.972   6.566  0.0851  2.0196 -0.2970
15091SOL    HW249062   8.152   3.031   6.459 -2.6742  0.7357  1.1943
15092SOL     OW49063   0.739   9.013   2.429  0.4087  0.2960  0.3500
15092SOL    HW149064   0.821   9.061   2.416  1.1812  0.1816  3.8719
15092SOL    HW249065   0.760   8.922   2.406  0.6074  0.6176 -0.8037
15093SOL     OW49066   4.102   2.569   9.349 -0.1364 -0.0256 -0.1725
15093SOL    HW149067   4.063   2.493   9.305 -1.1510 -0.3679  1.2192
15093SOL    HW249068   4.165   2.603   9.287  0.8640 -2.4246 -0.5966
15094SOL     OW49069   7.518   2.025   3.992 -0.1996 -0.0951 -0.3903
15094SOL    HW149070   7.528   2.115   4.024  0.0281  0.1286 -1.0509
15094SOL    HW249071   7.424   2.012   3.985 -0.2630 -0.2892  0.7208
15095SOL     OW49072   0.880   8.449   0.296  0.2063  0.5286 -0.9614
15095SOL    HW149073   0.885   8.437   0.391 -0.9792  1.1600 -0.8093
15095SOL    HW249074   0.789   8.473   0.279  0.4254  0.5283 -2.2552
15096SOL     OW49075   9.315   3.042   1.924 -0.2456  0.2593  0.1618
15096SOL    HW149076   9.400   3.074   1.892  0.0236 -1.4902 -1.0213
15096SOL    HW249077   9.336   2.991   2.003 -0.2290  0.1199  0.0684
15097SOL     OW49078   0.652   4.850   2.231  0.1817  0.2868  0.0727
15097SOL    HW149079   0.734   4.882   2.270  0.4240  1.6198 -1.4243
15097SOL    HW249080   0.663   4.864   2.137 -0.9470 -1.5033 -0.3828
15098SOL     OW49081  10.063   4.855   9.981 -0.1944  0.2103  0.3371
15098SOL    HW149082  10.086   4.940  10.017  0.4296  0.3179 -0.2975
15098SOL    HW249083  10.025   4.874   9.895  0.3842 -0.1720 -0.0137
15099SOL     OW49084   0.916   5.804   9.685 -0.2044 -0.2155  0.2960
15099SOL    HW149085   1.001   5.762   9.671  0.5185  1.8781 -2.5197
15099SOL    HW249086   0.858   5.762   9.621 -0.5463  0.2945  0.2726
15100SOL     OW49087   6.907   0.569   6.562 -0.0288  0.1022 -0.0916
15100SOL    HW149088   6.932   0.552   6.471  0.1665 -1.5971  0.2437
15100SOL    HW249089   6.879   0.661   6.562 -2.0744 -0.4161 -2.3095
15101SOL     OW49090   9.045   4.227   6.191 -0.4633 -0.5292  0.3999
15101SOL    HW149091   8.994   4.305   6.171  1.2780  0.3741 -0.8335
15101SOL    HW249092   9.101   4.253   6.264  0.7885 -0.2506 -0.6106
15102SOL     OW49093   8.938   7.468   8.364 -0.2544  0.1983 -0.2053
15102SOL    HW149094   8.910   7.516   8.286 -0.3652  1.3856  0.5429
15102SOL    HW249095   9.030   7.493   8.375  0.0557 -0.7808 -0.5453
15103SOL     OW49096   6.101   5.179   2.936  0.1943  0.4635 -0.1916
15103SOL    HW149097   6.074   5.088   2.952  2.1402 -0.5351 -2.1092
15103SOL    HW249098   6.020   5.229   2.941 -1.0843 -1.5130 -0.0325
15104SOL     OW49099   8.120   6.215   0.218  0.6692  0.3041 -0.0032
15104SOL    HW149100   8.131   6.310   0.219  0.7793  0.3162  1.9585
15104SOL    HW249101   8.123   6.189   0.310 -1.2656 -1.3754 -0.3238
15105SOL     OW49102   5.613   3.890   2.951 -0.6188  0.2334 -0.3953
15105SOL    HW149103   5.644   3.823   3.013 -0.9948 -1.4287 -1.9272
15105SOL    HW249104   5.530   3.920   2.989  1.1064  2.3550  2.0294
15106SOL     OW49105   6.370   5.457   6.509  0.8281  0.0619 -0.0632
15106SOL    HW149106   6.434   5.515   6.551 -0.2102  1.1925  0.0002
15106SOL    HW249107   6.285   5.486   6.542  0.2171 -1.0535 -0.5763
15107SOL     OW49108   1.216   6.323   0.448 -0.1486  0.3196 -0.3178
15107SOL    HW149109   1.290   6.335   0.389 -0.0214  0.3634 -0.1513
15107SOL    HW249110   1.146   6.287   0.393 -0.0174  0.3202 -0.4841
15108SOL     OW49111   0.556   6.197   7.392 -0.2387 -0.0819  0.0464
15108SOL    HW149112   0.539   6.103   7.385 -0.0912 -0.1263  0.2967
15108SOL    HW249113   0.548   6.229   7.302 -1.3810 -0.1445  0.1091
15109SOL     OW49114   3.861   9.086   8.206  0.2815 -0.1777 -0.1723
15109SOL    HW149115   3.900   9.171   8.190  2.8631 -0.2575  4.0602
15109SOL    HW249116   3.801   9.100   8.279  2.2210 -2.1036  1.9610
15110SOL     OW49117   0.368   7.615   0.773  0.0466 -0.0861  0.5913
15110SOL    HW149118   0.387   7.663   0.692 -0.0913 -0.7158  0.1717
15110SOL    HW249119   0.294   7.662   0.812 -0.2821 -0.1299  0.0342
15111SOL     OW49120   9.042   9.353   2.062 -0.5955  0.0306 -0.2456
15111SOL    HW149121   8.960   9.333   2.108 -1.1574 -1.1482 -1.6706
15111SOL    HW249122   9.020   9.346   1.969  0.6896  1.5525 -0.7195
15112SOL     OW49123   8.296   0.549   4.891 -0.4567 -0.1196 -0.1971
15112SOL    HW149124   8.354   0.552   4.967 -1.0928 -0.2414  0.3015
15112SOL    HW249125   8.246   0.467   4.902 -0.3719 -0.2696 -0.8783
15113SOL     OW49126   4.322   1.697   0.799  0.0008 -0.0882  0.0968
15113SOL    HW149127   4.384   1.770   0.795 -0.9798  0.8531  1.4588
15113SOL    HW249128   4.367   1.632   0.853  0.9333 -0.5936 -1.2287
15114SOL     OW49129   7.206   4.184   7.765  0.1009  0.0971 -0.8693
15114SOL    HW149130   7.194   4.099   7.721 -0.0584  0.2282 -1.0797
15114SOL    HW249131   7.119   4.205   7.799  0.6780 -1.1563  1.6325
15115SOL     OW49132   3.307   6.116   3.767 -0.3546  0.2037  0.0057
15115SOL    HW149133   3.341   6.086   3.683 -1.1433 -0.1252 -0.2143
15115SOL    HW249134   3.380   6.160   3.809  0.2690 -0.3160 -0.5197
15116SOL     OW49135   6.946   4.700   7.265  0.2538 -0.0527 -0.7755
15116SOL    HW149136   7.020   4.728   7.318 -1.8523  0.4992  2.0885
15116SOL    HW249137   6.898   4.781   7.245 -1.1217 -0.6551 -0.0447
15117SOL     OW49138   3.456   7.879   1.510  0.8616  0.0098 -0.1539
15117SOL    HW149139   3.396   7.888   1.585  1.3876  1.2817  0.1439
15117SOL    HW249140   3.500   7.796   1.525  0.7562  0.1131  0.8062
15118SOL     OW49141   2.354   3.576   9.415 -0.0761 -0.2870  0.2847
15118SOL    HW149142   2.381   3.663   9.386 -0.0287 -0.2675  0.3876
15118SOL    HW249143   2.403   3.561   9.496 -1.5903  0.4286  1.3863
15119SOL     OW49144   1.378   5.366   8.997 -0.5388 -0.7365  0.1842
15119SOL    HW149145   1.306   5.423   8.972 -1.1848 -1.4059  0.4618
15119SOL    HW249146   1.374   5.293   8.935  1.3565  0.3169 -1.2774
15120SOL     OW49147   3.139   1.160  10.067  0.3463  0.6918 -0.1931
15120SOL    HW149148   3.198   1.228  10.100 -0.1679  0.6025  0.9738
15120SOL    HW249149   3.152   1.086  10.128 -2.0553  1.2073  1.0709
15121SOL     OW49150   9.279   5.783   4.538  0.3334 -0.2619 -0.1422
15121SOL    HW149151   9.329   5.760   4.616  1.1720 -1.0356 -0.8913
15121SOL    HW249152   9.273   5.879   4.540 -1.1181 -0.3276  1.7377
15122SOL     OW49153   1.951   8.311   2.021  0.9630  0.3813  0.4534
15122SOL    HW149154   1.982   8.240   2.077 -1.7402 -0.2031  1.3449
15122SOL    HW249155   1.990   8.390   2.058  0.4613 -0.1737  2.2630
15123SOL     OW49156   6.893   2.448   0.556  0.1061  0.5655  0.2510
15123SOL    HW149157   6.859   2.509   0.620 -2.0473 -1.1726  0.8934
15123SOL    HW249158   6.828   2.447   0.486  0.7792 -0.0102 -0.3918
15124SOL     OW49159   9.918   5.525   2.900 -0.1972  0.2063 -0.7649
15124SOL    HW149160   9.825   5.546   2.908 -0.1098  0.2177  0.3990
15124SOL    HW249161   9.962   5.590   2.954  0.4206 -0.3270 -0.6231
15125SOL     OW49162   1.123   6.933   3.333 -0.2972 -0.6597  0.0560
15125SOL    HW149163   1.127   6.841   3.357 -1.6729 -1.1881 -1.5349
15125SOL    HW249164   1.052   6.938   3.269 -0.8847  1.6660  0.7821
15126SOL     OW49165   6.609   0.058   1.331 -0.0372 -0.5718  0.1642
15126SOL    HW149166   6.657   0.022   1.257 -0.2245  0.3529 -0.4327
15126SOL    HW249167   6.664   0.131   1.362 -0.1016 -0.7649  0.7532
15127SOL     OW49168   6.896   8.743   9.644  0.3522 -0.1038  0.8558
15127SOL    HW149169   6.899   8.838   9.654  0.6218  0.2286 -1.7220
15127SOL    HW249170   6.814   8.717   9.685  0.4861  1.1732  1.9927
15128SOL     OW49171   8.425   3.365  10.208  0.2142 -0.4149  0.6855
15128SOL    HW149172   8.331   3.373  10.196  0.1928 -0.3532  0.8900
15128SOL    HW249173   8.436   3.334  10.298  0.4267  0.6871  1.0552
15129SOL     OW49174   8.593   2.349   2.922  0.0778 -0.0246 -0.3038
15129SOL    HW149175   8.573   2.442   2.932 -0.9231 -0.3695  1.0543
15129SOL    HW249176   8.550   2.306   2.996 -0.2374 -1.6859 -1.3915
15130SOL     OW49177   4.220   6.930   8.071  0.4303  0.6206  0.5158
15130SOL    HW149178   4.270   7.007   8.042  2.4367 -1.4056 -1.8793
15130SOL    HW249179   4.264   6.902   8.151  3.1967 -0.9276 -1.3720
15131SOL     OW49180   3.775   1.712   0.313 -0.4445 -0.3603  0.1449
15131SOL    HW149181   3.786   1.671   0.228 -1.9792 -1.1100  0.2875
15131SOL    HW249182   3.747   1.802   0.293  1.0406  0.0689 -0.1353
15132SOL     OW49183   3.463   7.663   3.603  0.0801  0.5368  0.0505
15132SOL    HW149184   3.484   7.756   3.608  0.4413  0.4264  0.7616
15132SOL    HW249185   3.465   7.642   3.510  0.4550  1.1404 -0.0808
15133SOL     OW49186   0.312   1.373   7.535 -0.0937  0.1271  0.3473
15133SOL    HW149187   0.342   1.462   7.554 -4.7546  2.0555 -0.0080
15133SOL    HW249188   0.266   1.345   7.614 -2.0985 -0.2450 -0.8851
15134SOL     OW49189   4.580   6.844   2.593  0.6505 -0.1184  0.3160
15134SOL    HW149190   4.571   6.806   2.506  0.4365 -1.1401  0.7724
15134SOL    HW249191   4.618   6.931   2.578 -0.6903  0.2896 -0.8972
15135SOL     OW49192   7.032   1.197   4.153  0.2071  0.3834  0.4769
15135SOL    HW149193   6.990   1.123   4.196  4.5913 -1.9867  1.1914
15135SOL    HW249194   7.067   1.250   4.225  2.9013 -0.6524  0.0328
15136SOL     OW49195   1.695   8.230   9.938 -0.4913 -0.1077 -0.5597
15136SOL    HW149196   1.783   8.196   9.955  0.3607  1.4808 -1.5837
15136SOL    HW249197   1.645   8.154   9.908  0.2868 -1.1891  0.7643
15137SOL     OW49198   3.358   2.374   5.173 -0.2267  0.5201 -0.1584
15137SOL    HW149199   3.450   2.382   5.198 -0.3775 -0.8824  0.9941
15137SOL    HW249200   3.337   2.457   5.131  0.7535  2.1069  2.2450
15138SOL     OW49201  10.046   1.807   2.263 -0.0373  0.2023  0.0133
15138SOL    HW149202  10.035   1.805   2.168  0.2518  2.6028 -0.1493
15138SOL    HW249203  10.140   1.792   2.276 -0.3562 -1.9646  0.0929
15139SOL     OW49204   6.543   3.006   5.199 -0.7987 -0.2918  0.3204
15139SOL    HW149205   6.584   2.963   5.123 -1.0984  0.2976 -0.1832
15139SOL    HW249206   6.569   3.098   5.192  0.0593 -0.4153  1.5411
15140SOL     OW49207   6.637   7.260   3.482  0.5481  0.0939 -0.1688
15140SOL    HW149208   6.600   7.338   3.524  0.4665 -0.2763  0.4583
15140SOL    HW249209   6.720   7.245   3.527  0.0554 -0.8080  0.4745
15141SOL     OW49210   6.891   8.938   9.360 -0.0927  0.6362  0.1709
15141SOL    HW149211   6.821   8.974   9.415  0.2641 -2.1352  2.6673
15141SOL    HW249212   6.845   8.900   9.285 -1.3164 -0.6492  1.4911
15142SOL     OW49213   6.522   2.107   4.763  0.3760 -0.1410 -0.5117
15142SOL    HW149214   6.599   2.135   4.713  0.7704  2.3220  1.3065
15142SOL    HW249215   6.524   2.161   4.843 -3.2955  0.0901 -0.4149
15143SOL     OW49216   9.471   6.437   4.346 -0.6056  0.3435 -0.3578
15143SOL    HW149217   9.477   6.395   4.432  0.3989 -0.2619 -0.7049
15143SOL    HW249218   9.513   6.522   4.358  2.4610 -0.9202 -0.9211
15144SOL     OW49219   7.940   8.828   1.819 -0.2546 -0.0999  0.0490
15144SOL    HW149220   7.859   8.860   1.780  1.0503  0.1724 -2.6644
15144SOL    HW249221   7.985   8.907   1.850  1.2162  0.4738 -3.1597
15145SOL     OW49222   3.496   6.292   0.065 -0.0162  1.0515  0.5829
15145SOL    HW149223   3.515   6.285   0.159 -0.0804 -0.1908  0.5169
15145SOL    HW249224   3.448   6.212   0.044  1.8694  0.2466 -0.9524
15146SOL     OW49225   1.203   6.773   9.068  0.0013 -0.1895 -0.6404
15146SOL    HW149226   1.171   6.713   9.000  0.7052 -0.7076 -0.5283
15146SOL    HW249227   1.149   6.851   9.058  0.7678  0.1539 -2.4817
15147SOL     OW49228   2.090   1.344   9.600 -0.2211 -0.1354  0.0318
15147SOL    HW149229   2.073   1.322   9.508 -1.6291 -1.6041  0.5943
15147SOL    HW249230   2.007   1.324   9.645  0.2241  1.1964  1.5209
15148SOL     OW49231   4.672   3.241   6.974 -0.7156 -0.3326 -0.3174
15148SOL    HW149232   4.712   3.325   6.951 -0.5251 -0.6400 -1.1615
15148SOL    HW249233   4.600   3.231   6.911 -0.3957 -1.0525 -0.5802
15149SOL     OW49234   0.849   1.845   9.353 -0.1282  0.0993  0.0571
15149SOL    HW149235   0.812   1.928   9.385 -1.4576 -0.4166 -0.0974
15149SOL    HW249236   0.826   1.781   9.420  1.6119 -0.0319  0.5844
15150SOL     OW49237   9.057   1.785   5.150 -0.1475  0.1315  0.1850
15150SOL    HW149238   9.002   1.832   5.213 -0.8466  1.4833 -1.3713
15150SOL    HW249239   9.079   1.850   5.083 -0.6060 -1.5652 -1.7194
15151SOL     OW49240   9.286   0.606   8.798  0.3247  0.1209 -0.4028
15151SOL    HW149241   9.337   0.553   8.859 -0.5020 -1.0108 -0.6633
15151SOL    HW249242   9.286   0.694   8.836  3.1680  0.3849 -0.8364
15152SOL     OW49243   0.349  10.003   8.249 -0.5272 -0.0809 -0.0977
15152SOL    HW149244   0.396  10.043   8.176 -1.6207  0.6769 -0.4044
15152SOL    HW249245   0.283   9.947   8.207 -0.4288 -0.5189  0.3236
15153SOL     OW49246   2.321   6.513  10.123 -0.0618  0.5768  1.1709
15153SOL    HW149247   2.316   6.516  10.219  0.9032  3.1421  1.2098
15153SOL    HW249248   2.233   6.533  10.093 -0.4309 -0.4949  1.4778
15154SOL     OW49249   2.544   6.462   9.656 -0.7593 -0.2831  0.4669
15154SOL    HW149250   2.549   6.406   9.578  0.2977 -0.3771  0.5850
15154SOL    HW249251   2.626   6.445   9.703 -1.1018  0.2448  1.2795
15155SOL     OW49252   6.318  10.191   3.683  0.0901 -0.4063  0.1958
15155SOL    HW149253   6.271  10.147   3.754  0.3382 -0.7280  0.1674
15155SOL    HW249254   6.276  10.276   3.675  0.4556 -0.1272  1.1374
15156SOL     OW49255   1.031   4.425   9.187  0.2532  0.3012 -0.0449
15156SOL    HW149256   0.984   4.356   9.140  0.3350  1.4383 -1.8971
15156SOL    HW249257   0.986   4.506   9.162 -0.2514  0.9520  2.5756
15157SOL     OW49258   3.572   7.576   2.588 -0.1528  0.3131  0.3076
15157SOL    HW149259   3.577   7.517   2.513 -1.7395 -0.8283  1.0361
15157SOL    HW249260   3.564   7.518   2.664 -1.9919  1.4256  1.0265
15158SOL     OW49261   3.983   9.755   4.010  0.0792  0.0034 -0.3106
15158SOL    HW149262   3.920   9.720   3.947 -2.4990  1.4333  1.3213
15158SOL    HW249263   3.930   9.801   4.074  2.7400  0.2920  1.8570
15159SOL     OW49264   2.244   0.688   2.746 -0.3652  0.0208 -0.0032
15159SOL    HW149265   2.211   0.611   2.793  2.8178 -0.9674  0.8580
15159SOL    HW249266   2.297   0.651   2.675  1.2630  1.3452  0.4508
15160SOL     OW49267   4.610   8.641   0.755  0.4238 -0.1328 -0.8835
15160SOL    HW149268   4.554   8.665   0.681 -0.0652 -1.5982 -1.0174
15160SOL    HW249269   4.557   8.580   0.807  1.4866 -0.6667 -0.3895
15161SOL     OW49270   0.570   2.466   4.550  0.0461  0.1036 -0.1618
15161SOL    HW149271   0.511   2.471   4.475  0.1697  0.5863 -0.2272
15161SOL    HW249272   0.522   2.508   4.622  0.1171  0.0639 -0.0910
15162SOL     OW49273   7.218   7.646   7.063 -0.3393  0.0332 -0.2902
15162SOL    HW149274   7.271   7.586   7.010  2.3769  0.5134  1.6846
15162SOL    HW249275   7.265   7.729   7.058  0.6332 -0.1271  3.5338
15163SOL     OW49276   8.222   9.925   0.013 -0.1759 -0.1196  0.2010
15163SOL    HW149277   8.242   9.907  -0.079 -1.3767 -0.1315 -0.0712
15163SOL    HW249278   8.238   9.841   0.057 -1.5696 -0.7008 -0.3516
15164SOL     OW49279   0.241   0.283   2.566  0.0513  0.9334  0.2122
15164SOL    HW149280   0.300   0.357   2.582  2.1955 -0.8223  0.9824
15164SOL    HW249281   0.254   0.261   2.474 -1.1605  1.9301 -0.2219
15165SOL     OW49282   1.013   0.174   3.583  0.4318  0.3681 -0.5821
15165SOL    HW149283   1.062   0.107   3.631 -0.0661  0.3162 -0.1367
15165SOL    HW249284   0.931   0.183   3.631 -0.2072  0.1179 -1.5968
15166SOL     OW49285   9.615   1.755   3.664  0.2174 -0.0757 -0.0643
15166SOL    HW149286   9.558   1.681   3.642  0.7913 -1.3996  2.5833
15166SOL    HW249287   9.698   1.735   3.622 -0.6440  1.0186 -2.4947
15167SOL     OW49288   6.679   6.791   2.622 -0.3194 -0.2350 -0.3786
15167SOL    HW149289   6.656   6.870   2.671  0.4813  0.6418 -1.3581
15167SOL    HW249290   6.605   6.732   2.635  0.1155 -0.3286  2.3886
15168SOL     OW49291   3.886   0.402   8.867 -0.0310  0.0704 -0.0432
15168SOL    HW149292   3.882   0.493   8.838 -0.9415  0.0359 -0.0489
15168SOL    HW249293   3.979   0.386   8.883  0.4736  0.2690 -2.3805
15169SOL     OW49294   7.755   4.931   3.873 -0.0867  0.5027  0.6548
15169SOL    HW149295   7.675   4.934   3.926  0.2507  0.2862  1.1840
15169SOL    HW249296   7.784   5.022   3.869  1.2984  0.2407  3.0454
15170SOL     OW49297   6.089   5.344   6.179 -0.0981 -0.4285 -0.1821
15170SOL    HW149298   6.024   5.291   6.133 -0.0067 -1.4952  0.8894
15170SOL    HW249299   6.173   5.312   6.147 -0.0443 -0.8865  0.4154
15171SOL     OW49300   8.051   5.753   0.163 -0.6915 -0.4051 -0.1578
15171SOL    HW149301   7.964   5.791   0.176 -0.3708 -0.1256  1.3937
15171SOL    HW249302   8.067   5.761   0.069 -1.6927  0.9597 -0.2461
15172SOL     OW49303   4.218   0.232   9.179  0.2245  0.5987  0.0120
15172SOL    HW149304   4.293   0.275   9.221  0.2493  0.3404  0.2301
15172SOL    HW249305   4.147   0.296   9.187 -0.4392 -0.3271  2.5499
15173SOL     OW49306   8.777   3.901   7.728 -0.2034 -0.5055 -0.3537
15173SOL    HW149307   8.806   3.863   7.811 -0.6626 -1.9230 -0.8137
15173SOL    HW249308   8.837   3.865   7.663  1.6526  2.4046 -0.4257
15174SOL     OW49309   3.296   5.934   4.453 -0.1772 -0.1799 -0.7068
15174SOL    HW149310   3.286   5.991   4.377  0.7447 -2.6022 -2.7855
15174SOL    HW249311   3.384   5.898   4.445 -0.1164 -0.6750  1.4441
15175SOL     OW49312   4.491   2.458   2.147 -0.2390 -0.0866  0.5379
15175SOL    HW149313   4.573   2.503   2.167  1.0876 -1.6685 -1.0828
15175SOL    HW249314   4.432   2.485   2.217  1.6336  1.1144  1.7482
15176SOL     OW49315  10.003   8.688  10.107 -0.2713  0.2172  0.0296
15176SOL    HW149316  10.068   8.731  10.051  0.1026 -0.5315 -0.1208
15176SOL    HW249317   9.937   8.756  10.123 -0.6874  0.2865 -1.7946
15177SOL     OW49318   2.119   8.195   2.206 -0.4428  0.2801 -0.3033
15177SOL    HW149319   2.181   8.140   2.157 -1.2905 -0.3413 -0.7091
15177SOL    HW249320   2.091   8.139   2.279  0.3296  0.9721  0.5414
15178SOL     OW49321   9.756   1.524   9.728 -0.5626  0.5283  0.2089
15178SOL    HW149322   9.717   1.555   9.810  0.5451 -0.5140  1.1689
15178SOL    HW249323   9.797   1.602   9.690 -0.7371  0.9420  0.8496
15179SOL     OW49324   7.537   4.458   8.465 -0.4525 -0.1760  0.0721
15179SOL    HW149325   7.580   4.444   8.381 -1.0216  1.8599 -0.6407
15179SOL    HW249326   7.603   4.501   8.519  0.4719 -2.9836  1.3414
15180SOL     OW49327   2.646   3.734   2.613 -0.1960 -0.5006  0.0155
15180SOL    HW149328   2.715   3.693   2.561 -0.7237 -3.5847  1.5255
15180SOL    HW249329   2.596   3.787   2.550  2.4860  0.5173 -1.3969
15181SOL     OW49330   8.529   9.214   7.191 -0.3120  0.0415 -0.4207
15181SOL    HW149331   8.560   9.249   7.275  1.4373 -1.3437 -0.4296
15181SOL    HW249332   8.447   9.261   7.175  1.3357  3.4554  0.0149
15182SOL     OW49333   0.564   6.808   6.638 -0.1499 -0.0634  0.2698
15182SOL    HW149334   0.531   6.898   6.638  0.2963  0.1606 -2.0883
15182SOL    HW249335   0.633   6.808   6.705 -1.3775  0.8315  1.5841
15183SOL     OW49336   6.724  10.099   5.423 -0.6545 -0.2180 -0.1335
15183SOL    HW149337   6.754  10.186   5.448  2.1649 -0.9754 -0.5962
15183SOL    HW249338   6.687  10.062   5.504 -0.7010  0.9248  0.3867
15184SOL     OW49339   4.811   0.200  10.262  0.1204  0.2670  0.0359
15184SOL    HW149340   4.871   0.224  10.333  0.6576 -0.6846 -0.0823
15184SOL    HW249341   4.802   0.105  10.268 -1.6636  0.4162  0.2584
15185SOL     OW49342   7.999   9.012   7.006 -0.5508 -0.2847 -0.2469
15185SOL    HW149343   8.077   8.958   7.011  0.1742  0.6061 -1.2970
15185SOL    HW249344   8.022   9.093   7.052 -1.0486 -0.2266 -0.0900
15186SOL     OW49345   2.862   5.736   8.897 -0.1881 -0.3459  0.2717
15186SOL    HW149346   2.931   5.743   8.964 -0.8758 -1.5166  1.1653
15186SOL    HW249347   2.894   5.668   8.838 -0.0555 -0.0653  0.0216
15187SOL     OW49348   1.903   5.160   2.202  0.0028  0.1446 -0.1194
15187SOL    HW149349   1.838   5.205   2.256 -2.7706 -2.5266 -1.0019
15187SOL    HW249350   1.973   5.137   2.263 -1.2632  0.4659  1.5259
15188SOL     OW49351   2.798   8.676   4.837 -0.4513  0.2903  0.1573
15188SOL    HW149352   2.732   8.608   4.838 -1.6274  1.3911  0.1751
15188SOL    HW249353   2.821   8.687   4.745  1.9819 -2.1556  0.3611
15189SOL     OW49354   5.314   7.417   7.500  0.5394  0.5751 -0.3018
15189SOL    HW149355   5.268   7.382   7.423 -1.7189 -0.7884  1.5366
15189SOL    HW249356   5.380   7.352   7.521  0.5602  0.5137 -0.5612
15190SOL     OW49357   5.557   0.486   6.795  0.3779  0.2933 -0.1028
15190SOL    HW149358   5.549   0.430   6.718 -0.7746  1.0932 -0.6040
15190SOL    HW249359   5.613   0.558   6.766 -1.9084  1.8345 -1.0294
15191SOL     OW49360   3.054   1.612   3.101 -0.0332 -0.6107 -0.0880
15191SOL    HW149361   3.015   1.526   3.084 -1.0818 -0.2667  0.5004
15191SOL    HW249362   3.055   1.620   3.196  1.2920 -0.5060 -0.0927
15192SOL     OW49363   8.532   1.893   2.363 -0.2851  0.3455  0.0380
15192SOL    HW149364   8.518   1.924   2.274  0.8313  1.9066  0.3675
15192SOL    HW249365   8.463   1.934   2.414 -2.2014 -2.1548 -0.3619
15193SOL     OW49366   9.388   8.441   3.222  0.3913  0.3906  0.4047
15193SOL    HW149367   9.337   8.498   3.164  1.2822  1.5214  0.6804
15193SOL    HW249368   9.326   8.411   3.287 -0.6444 -0.9437 -1.1393
15194SOL     OW49369   4.734   4.775   8.109 -0.1986 -0.4681  0.5306
15194SOL    HW149370   4.736   4.685   8.143 -1.3965 -1.2605 -1.3254
15194SOL    HW249371   4.808   4.818   8.151 -1.0841 -1.5438  3.4608
15195SOL     OW49372   4.472   1.752   6.217 -0.0073 -0.1464 -0.2917
15195SOL    HW149373   4.445   1.767   6.307 -0.0036 -1.3499 -0.0746
15195SOL    HW249374   4.472   1.657   6.207  1.8316 -0.1034 -0.9990
15196SOL     OW49375   3.120   2.986   7.963  0.3013 -0.2321  0.3884
15196SOL    HW149376   3.138   2.919   7.896  2.7871  1.6456 -1.0342
15196SOL    HW249377   3.049   3.038   7.926 -0.5661 -1.1030  0.7801
15197SOL     OW49378   5.886   2.715   1.404 -0.3860 -0.4897  0.2693
15197SOL    HW149379   5.923   2.641   1.452 -0.4537 -0.0148  1.0713
15197SOL    HW249380   5.791   2.706   1.416 -0.4165 -0.4826  0.0471
15198SOL     OW49381   6.147   0.648   1.642  0.3402 -0.2592 -0.2040
15198SOL    HW149382   6.238   0.678   1.644  0.5657 -0.9507  0.9103
15198SOL    HW249383   6.126   0.641   1.549  0.9988  1.1331 -0.4928
15199SOL     OW49384   1.265   9.637   0.372  0.0255 -0.1697 -0.4794
15199SOL    HW149385   1.175   9.652   0.404  0.0076 -0.5550 -0.3473
15199SOL    HW249386   1.255   9.572   0.303  0.3503 -1.2768  0.4781
15200SOL     OW49387   6.375   4.748   2.076  0.3886 -0.3866 -0.3586
15200SOL    HW149388   6.343   4.690   2.008 -0.6111  2.1191 -2.1976
15200SOL    HW249389   6.299   4.763   2.133  0.1475  0.3707 -0.8618
15201SOL     OW49390   8.350   6.697   0.571 -0.1857 -0.0465  0.3497
15201SOL    HW149391   8.438   6.733   0.558  0.4861 -2.1714 -1.5543
15201SOL    HW249392   8.292   6.771   0.555  1.2059  1.0891  0.3306
15202SOL     OW49393   3.635   2.114   7.911 -0.3087 -0.4736 -0.2448
15202SOL    HW149394   3.661   2.023   7.924  0.6798 -0.4363 -1.7247
15202SOL    HW249395   3.572   2.110   7.839  0.7010  0.0999 -1.1970
15203SOL     OW49396   3.773   0.096   3.890 -0.3139 -0.0543  0.4406
15203SOL    HW149397   3.709   0.163   3.862 -0.6156  0.1473  1.5620
15203SOL    HW249398   3.853   0.146   3.906 -0.0672 -0.2061 -0.2718
15204SOL     OW49399   6.547   4.087   0.891  0.0125 -0.3721  0.3922
15204SOL    HW149400   6.512   4.107   0.978  1.2770  0.9755  0.6330
15204SOL    HW249401   6.587   4.168   0.862  1.2856 -1.3290 -0.6540
15205SOL     OW49402  10.094   7.042   9.091  0.2114  0.1937  0.5397
15205SOL    HW149403  10.030   7.019   9.158  1.3870  0.6461  1.8840
15205SOL    HW249404  10.079   6.979   9.021 -0.5354 -0.8285  1.5723
15206SOL     OW49405   6.658   7.661   4.437  0.3942  0.2145 -0.1033
15206SOL    HW149406   6.719   7.625   4.501 -0.5202  0.2179  0.7962
15206SOL    HW249407   6.711   7.673   4.358  1.4889 -0.0148  0.5691
15207SOL     OW49408   1.140   4.918   0.859  0.1597  0.8455 -0.5716
15207SOL    HW149409   1.218   4.918   0.915 -0.6262  1.3102  0.5499
15207SOL    HW249410   1.127   5.009   0.836  1.1913  0.5412 -2.6011
15208SOL     OW49411   1.820   1.845   7.240  0.6845 -0.3453 -0.4800
15208SOL    HW149412   1.887   1.783   7.212  2.6062  2.1907 -1.9475
15208SOL    HW249413   1.865   1.902   7.302 -0.6998  0.2347  0.0224
15209SOL     OW49414   5.622   6.133   3.521  0.4134 -0.1914  0.2472
15209SOL    HW149415   5.536   6.099   3.496 -0.2483  0.3680  1.6704
15209SOL    HW249416   5.642   6.091   3.604  1.2786  0.0937  0.1964
15210SOL     OW49417   5.158   3.112   3.934 -0.1337  0.0089  0.0676
15210SOL    HW149418   5.217   3.038   3.944  0.1465  0.1106 -0.7643
15210SOL    HW249419   5.109   3.115   4.016  0.8313 -0.2383  0.6711
15211SOL     OW49420   2.237   9.281   1.127 -0.0557  0.4704 -0.5232
15211SOL    HW149421   2.251   9.231   1.207  0.5009  1.8982  0.3119
15211SOL    HW249422   2.171   9.346   1.150 -1.8535 -0.7178 -2.0058
15212SOL     OW49423  10.117   2.626   7.922 -0.6357  0.1024  0.5803
15212SOL    HW149424  10.115   2.721   7.929  0.1413  0.1605  0.0959
15212SOL    HW249425  10.090   2.595   8.008 -1.5734  0.7571  0.5289
15213SOL     OW49426   3.974   2.231   1.043  0.3832  0.3999  0.2887
15213SOL    HW149427   3.948   2.231   0.951  2.0739 -0.0765 -0.2229
15213SOL    HW249428   3.949   2.318   1.075  0.1898  0.7377 -0.7468
15214SOL     OW49429   4.094   4.143   1.515 -0.2585 -0.2202  0.1075
15214SOL    HW149430   4.104   4.050   1.533  1.0352  0.0746  1.0727
15214SOL    HW249431   4.164   4.164   1.454 -0.0519  0.2706  0.5063
15215SOL     OW49432   3.013   4.452   3.052 -0.0292 -0.5046  0.4192
15215SOL    HW149433   3.047   4.403   2.977 -0.5586  0.3777 -0.4118
15215SOL    HW249434   2.962   4.523   3.013 -2.7966 -1.7196  1.5883
15216SOL     OW49435   7.955   4.165   4.424 -0.1083  0.4079  0.4466
15216SOL    HW149436   7.936   4.074   4.402 -1.0732  0.9002 -0.8445
15216SOL    HW249437   7.889   4.216   4.378  1.2564  1.8657 -0.0137
15217SOL     OW49438   6.839   4.393   9.103 -0.0895 -0.4792 -0.1714
15217SOL    HW149439   6.885   4.394   9.019  1.3660  0.0487  0.6161
15217SOL    HW249440   6.748   4.416   9.081  0.4389  0.4277 -1.4983
15218SOL     OW49441   8.401   5.015   6.136  0.1314 -0.2938 -0.1835
15218SOL    HW149442   8.326   4.960   6.114 -0.8010  1.0999 -0.5432
15218SOL    HW249443   8.381   5.049   6.223 -0.2092  0.9638 -0.7287
15219SOL     OW49444   6.380   4.091   3.011  0.1241 -0.1022 -0.6451
15219SOL    HW149445   6.412   4.033   2.942  0.2280  0.0825 -0.7514
15219SOL    HW249446   6.438   4.074   3.085 -1.1586 -1.7265  0.0527
15220SOL     OW49447   2.955   2.915   9.738  0.6503  0.2586 -0.1723
15220SOL    HW149448   2.996   2.833   9.710 -3.2439 -1.7826 -0.6062
15220SOL    HW249449   2.950   2.908   9.833  0.1929 -0.0723 -0.2212
15221SOL     OW49450   0.166   9.762   7.307  0.4143 -0.0032  0.1173
15221SOL    HW149451   0.104   9.733   7.375  0.0143 -0.2582 -0.3526
15221SOL    HW249452   0.232   9.813   7.355  0.8865 -1.2969  0.9102
15222SOL     OW49453   9.237   2.950   9.177 -0.2939 -0.7083  0.1155
15222SOL    HW149454   9.234   2.860   9.208  2.6613 -1.1654 -0.6391
15222SOL    HW249455   9.310   2.952   9.115 -0.0359  2.2620  0.3610
15223SOL     OW49456   8.062   4.398   7.764  0.0050  0.0056 -0.2603
15223SOL    HW149457   8.008   4.432   7.693  0.2465 -0.7202 -0.8032
15223SOL    HW249458   8.150   4.432   7.746  0.0872 -0.2613 -0.3706
15224SOL     OW49459  10.159   7.154   5.641 -0.1579  0.4689  0.6824
15224SOL    HW149460  10.155   7.187   5.730  0.5658  0.8363  0.5859
15224SOL    HW249461  10.244   7.109   5.635 -0.2128  0.4199  0.1924
15225SOL     OW49462   6.886   6.676   5.347 -0.0536 -0.3133  0.4175
15225SOL    HW149463   6.811   6.735   5.360 -0.8579 -0.8346 -1.5203
15225SOL    HW249464   6.850   6.588   5.361  1.0294 -0.4544  2.8246
15226SOL     OW49465   6.173   4.039   2.533  0.1147  0.9016  0.3343
15226SOL    HW149466   6.086   4.054   2.572 -0.3561 -0.8915  0.0430
15226SOL    HW249467   6.202   3.955   2.570  1.2150  0.9031 -0.4736
15227SOL     OW49468   0.422   5.442   5.658  0.0654 -0.2755 -0.1172
15227SOL    HW149469   0.479   5.375   5.620  0.2688 -0.8923  1.2225
15227SOL    HW249470   0.426   5.427   5.752 -2.1722 -0.1928  0.0377
15228SOL     OW49471   2.549   9.591   3.442 -0.3728  0.2089 -0.5609
15228SOL    HW149472   2.475   9.551   3.396  0.6527 -0.2367 -1.8683
15228SOL    HW249473   2.603   9.518   3.470  0.3511  0.5648 -0.9811
15229SOL     OW49474   8.318   5.013   0.444 -0.3616  0.0286  0.5826
15229SOL    HW149475   8.301   4.927   0.482 -0.8221  0.1415  0.6374
15229SOL    HW249476   8.398   5.001   0.393 -1.5698 -1.0002 -1.1845
15230SOL     OW49477   5.319   7.496   1.952  0.2117 -0.1185  0.5831
15230SOL    HW149478   5.227   7.487   1.927  0.1686 -1.3803  1.1218
15230SOL    HW249479   5.357   7.553   1.886 -0.8571  0.0416  0.0936
15231SOL     OW49480   8.801   6.155   3.208  0.0198 -0.2386 -0.4384
15231SOL    HW149481   8.846   6.071   3.197 -0.0040 -0.4865  1.0523
15231SOL    HW249482   8.812   6.200   3.125 -0.2628 -1.8625 -1.3863
15232SOL     OW49483   1.108   8.177   6.377 -0.0517 -0.2824 -0.1730
15232SOL    HW149484   1.193   8.220   6.376 -1.4132  2.7680 -2.9082
15232SOL    HW249485   1.044   8.249   6.377 -2.6179 -2.3801 -0.6424
15233SOL     OW49486   0.167   9.087   9.171  0.1004 -0.5562 -0.1294
15233SOL    HW149487   0.225   9.021   9.209  0.2918 -1.1671 -1.4213
15233SOL    HW249488   0.079   9.051   9.185  0.1546 -0.6491 -0.0245
15234SOL     OW49489   0.402   7.714  10.257 -0.7623 -0.4252  0.0359
15234SOL    HW149490   0.410   7.709  10.161  0.6891  1.0432  0.0352
15234SOL    HW249491   0.410   7.807  10.277 -1.4620 -0.6644  1.5796
15235SOL     OW49492   6.324   3.778  10.137 -0.4227  0.3629 -0.0566
15235SOL    HW149493   6.386   3.801  10.067 -0.9932  1.0782 -0.3392
15235SOL    HW249494   6.276   3.703  10.104 -0.2732  0.3186 -0.1737
15236SOL     OW49495   4.499   0.033   7.555 -0.3538 -0.2280 -0.5608
15236SOL    HW149496   4.425  -0.009   7.512 -0.4502  0.1097 -0.7287
15236SOL    HW249497   4.467   0.053   7.643 -0.1532 -0.9275 -0.3214
15237SOL     OW49498   9.483   0.401   2.241 -0.1296  0.1125  0.3997
15237SOL    HW149499   9.501   0.309   2.262  0.5903  0.0596 -0.4077
15237SOL    HW249500   9.518   0.413   2.153 -4.2789 -0.0756 -1.5407
15238SOL     OW49501   9.442   8.524   8.918  0.1824  0.3387 -0.1925
15238SOL    HW149502   9.355   8.553   8.944  0.7538  2.2137 -0.2050
15238SOL    HW249503   9.502   8.576   8.972  1.3027 -0.8056 -0.2868
15239SOL     OW49504   2.984   3.906   2.692  0.6579  0.4931  0.3844
15239SOL    HW149505   2.898   3.945   2.675 -0.9122 -2.6682  0.1850
15239SOL    HW249506   3.037   3.930   2.617 -1.1048 -0.0089 -1.1055
15240SOL     OW49507  10.172   8.822   5.280  0.4514 -0.3456 -0.4819
15240SOL    HW149508  10.095   8.767   5.266  1.1003 -1.6469  0.7933
15240SOL    HW249509  10.205   8.795   5.365  2.7801 -0.4124 -1.3402
15241SOL     OW49510  10.273   6.203   8.392 -0.5708 -0.0578 -0.6620
15241SOL    HW149511  10.300   6.118   8.358 -1.9009 -0.5594 -0.4930
15241SOL    HW249512  10.319   6.212   8.475  0.3142 -0.1707 -1.1232
15242SOL     OW49513   1.173   2.696   9.366  0.8518 -0.3609 -0.0145
15242SOL    HW149514   1.220   2.669   9.286  1.7136 -0.0797  0.3785
15242SOL    HW249515   1.146   2.786   9.349  1.1649 -0.2502  0.0576
15243SOL     OW49516   4.320   2.555   6.264  0.6511  0.0239 -0.2259
15243SOL    HW149517   4.246   2.499   6.241  0.7704 -0.1572 -0.1672
15243SOL    HW249518   4.302   2.638   6.219 -0.1051  0.3324  0.6043
15244SOL     OW49519   2.199   9.379   9.816  1.0091  0.2258 -0.0463
15244SOL    HW149520   2.131   9.446   9.804 -1.3479 -1.9026  0.3692
15244SOL    HW249521   2.172   9.332   9.895  1.9107 -1.8512 -0.8948
15245SOL     OW49522   8.591   5.805   5.054  0.3616 -0.5916 -0.5087
15245SOL    HW149523   8.674   5.826   5.011  0.2692 -0.4183 -0.5998
15245SOL    HW249524   8.536   5.769   4.985  0.5947 -1.3556 -0.3130
15246SOL     OW49525   9.440   1.835   9.370  0.0992 -0.1290 -0.0634
15246SOL    HW149526   9.421   1.821   9.277  2.5804  1.2671 -0.8712
15246SOL    HW249527   9.513   1.775   9.389  1.2875  1.3430  0.2478
15247SOL     OW49528   9.559   5.884   1.546 -0.2693  0.4731  0.3058
15247SOL    HW149529   9.568   5.851   1.457 -0.1275  0.5298  0.2987
15247SOL    HW249530   9.607   5.967   1.546  1.2458 -0.3654  0.9040
15248SOL     OW49531   4.629   6.076   2.115  0.3866  0.1120  0.1761
15248SOL    HW149532   4.538   6.060   2.091  0.6145  0.0708 -0.6999
15248SOL    HW249533   4.634   6.171   2.130  0.5766  0.4128 -1.5492
15249SOL     OW49534   4.904   2.818   0.436  0.4409 -0.2552  0.1937
15249SOL    HW149535   4.902   2.831   0.341  2.2895  0.4577  0.2080
15249SOL    HW249536   4.812   2.818   0.463 -0.1287 -0.8772 -1.6372
15250SOL     OW49537   3.173  10.268   8.996  0.1962 -0.4640  0.0133
15250SOL    HW149538   3.205  10.337   8.938 -1.4599  0.5357  0.2136
15250SOL    HW249539   3.209  10.187   8.960  0.8491  0.3442 -1.2078
15251SOL     OW49540   0.681   6.286   8.037  0.6802 -0.1719  0.3879
15251SOL    HW149541   0.690   6.371   7.993  0.8147 -1.7417 -2.9442
15251SOL    HW249542   0.595   6.290   8.079  0.3465  1.3542 -0.3484
15252SOL     OW49543   6.961   2.317   2.278 -0.3181 -0.1011  0.2052
15252SOL    HW149544   6.867   2.323   2.292 -0.1587  3.1572  0.8185
15252SOL    HW249545   6.984   2.228   2.303 -3.3345 -1.2930 -0.9203
15253SOL     OW49546   2.566   9.518   1.272 -0.6264 -0.4474 -0.0830
15253SOL    HW149547   2.587   9.607   1.299 -2.1745 -0.4102  1.0631
15253SOL    HW249548   2.480   9.501   1.308 -0.5053 -2.3049 -0.5746
15254SOL     OW49549   0.231   4.600   1.388  0.2014 -0.2928  0.8095
15254SOL    HW149550   0.296   4.666   1.363  0.6292 -0.9526  0.1421
15254SOL    HW249551   0.147   4.640   1.364  0.5331 -0.4692 -0.7523
15255SOL     OW49552   9.373   0.269   4.833 -0.4074  0.0606 -0.1235
15255SOL    HW149553   9.347   0.218   4.757  0.4403 -0.3173 -0.1660
15255SOL    HW249554   9.467   0.282   4.823 -0.5153  1.1479  0.1802
15256SOL     OW49555   6.788   7.394   7.977 -0.1184 -0.4021  0.6999
15256SOL    HW149556   6.879   7.371   7.959 -0.2553 -1.8979  1.6892
15256SOL    HW249557   6.791   7.486   8.003  1.2407 -0.6323  1.4836
15257SOL     OW49558   8.361   8.714   8.288  0.1540 -0.0797  0.1660
15257SOL    HW149559   8.330   8.768   8.215 -1.2123 -1.2447 -0.1675
15257SOL    HW249560   8.443   8.754   8.315 -0.1242  1.3237 -0.9703
15258SOL     OW49561   2.557   1.855   0.274 -0.8677 -0.2920 -0.0180
15258SOL    HW149562   2.470   1.829   0.243 -1.3487  0.1918  0.8842
15258SOL    HW249563   2.539   1.917   0.345  0.2165 -0.3079  0.2782
15259SOL     OW49564   8.298   0.324   0.739 -0.5780 -0.0181  0.5843
15259SOL    HW149565   8.344   0.384   0.680 -1.2688 -0.4832 -0.4605
15259SOL    HW249566   8.208   0.358   0.742 -0.7694 -0.5316  0.6363
15260SOL     OW49567   9.409   7.295   4.077  0.4356 -0.0546 -0.0883
15260SOL    HW149568   9.476   7.364   4.071  2.4236 -1.9932 -1.9745
15260SOL    HW249569   9.348   7.314   4.007  0.5442  0.1962 -0.1165
15261SOL     OW49570   5.059   4.244   5.130  0.6623 -0.2202 -0.2958
15261SOL    HW149571   4.970   4.212   5.145  0.9613 -1.4463 -1.0355
15261SOL    HW249572   5.102   4.236   5.215  0.6640 -1.6101 -0.4137
15262SOL     OW49573  10.004   6.469   7.991  0.5528  0.3151 -0.2728
15262SOL    HW149574   9.993   6.472   8.086 -1.1660  1.6066 -0.4697
15262SOL    HW249575  10.095   6.496   7.977  1.1410 -0.8625  1.0323
15263SOL     OW49576   4.559   2.908   8.516 -0.0043  0.4138 -0.2623
15263SOL    HW149577   4.637   2.916   8.571  0.3885  0.4240 -0.8144
15263SOL    HW249578   4.532   2.998   8.497 -0.8539  0.4214  0.8984
15264SOL     OW49579   4.379   7.447   2.330  0.5198 -0.3575 -0.4160
15264SOL    HW149580   4.428   7.435   2.248  0.0165 -0.8011 -0.6554
15264SOL    HW249581   4.323   7.370   2.335  1.0433 -0.6811  0.7004
15265SOL     OW49582   6.470  10.069   6.194  0.1082 -0.1250  0.6971
15265SOL    HW149583   6.530  10.144   6.194  1.2460 -1.0098 -0.5861
15265SOL    HW249584   6.488  10.023   6.113  0.2797 -2.4733  1.9789
15266SOL     OW49585   3.736   7.734   4.130 -0.5756  0.5267 -0.2084
15266SOL    HW149586   3.744   7.727   4.035  1.7629  0.9716 -0.1108
15266SOL    HW249587   3.739   7.828   4.148  4.2351  0.5143  0.4709
15267SOL     OW49588   9.239   4.220   1.098 -0.7390  0.6409 -0.4213
15267SOL    HW149589   9.169   4.276   1.065 -1.3059 -0.5435 -1.2809
15267SOL    HW249590   9.194   4.154   1.151 -0.1380  0.6481  0.1079
15268SOL     OW49591   6.676   7.190   9.375  0.0160  0.1836  0.2258
15268SOL    HW149592   6.611   7.256   9.350  1.6580  1.6519 -0.4045
15268SOL    HW249593   6.744   7.240   9.421  0.4525 -1.3832  1.3605
15269SOL     OW49594   6.832   2.116   8.734  0.0742 -0.3086 -0.1790
15269SOL    HW149595   6.765   2.182   8.713  1.1530  0.5511 -1.0798
15269SOL    HW249596   6.785   2.033   8.733 -1.6044  0.4890  2.2272
15270SOL     OW49597   9.193   3.783   9.807 -0.5838 -0.2073  0.5261
15270SOL    HW149598   9.250   3.777   9.731  0.0366  0.4370  0.9278
15270SOL    HW249599   9.154   3.871   9.801 -1.8230 -0.7539  0.0739
15271SOL     OW49600   6.897   8.293   5.115 -0.2423  0.2190  0.6039
15271SOL    HW149601   6.879   8.225   5.180  3.0206 -1.8859 -0.4548
15271SOL    HW249602   6.862   8.258   5.033 -1.7544  1.5750  0.5955
15272SOL     OW49603   3.210   4.951  10.146  0.5076 -0.1344  0.3889
15272SOL    HW149604   3.131   4.923  10.099  0.1676 -1.7647  1.8183
15272SOL    HW249605   3.183   5.029  10.194 -0.4860 -1.0706  1.4208
15273SOL     OW49606   5.730   8.542   3.115 -0.3751 -0.0893  0.2507
15273SOL    HW149607   5.790   8.479   3.076  1.2170  0.5393  1.5715
15273SOL    HW249608   5.700   8.595   3.041  0.5568 -0.5444 -0.4805
15274SOL     OW49609   0.058   3.964   4.091  0.2706  0.6294 -0.4596
15274SOL    HW149610   0.014   4.038   4.131 -1.5361 -0.5675 -0.1138
15274SOL    HW249611   0.065   3.988   3.998 -2.3438  0.3585 -0.7888
15275SOL     OW49612   7.464   2.758   5.983  0.2528 -0.3334  0.1459
15275SOL    HW149613   7.389   2.713   5.946 -0.5669  0.7711  0.4219
15275SOL    HW249614   7.511   2.690   6.032  0.8351 -1.5952 -2.0467
15276SOL     OW49615   8.580   4.268   4.506  0.4456 -0.6471 -0.0232
15276SOL    HW149616   8.648   4.204   4.524 -0.8872 -2.5671 -1.3969
15276SOL    HW249617   8.622   4.334   4.451  1.2146 -1.7852 -0.8394
15277SOL     OW49618   9.681   7.968   3.113 -0.0493 -0.1178 -0.4661
15277SOL    HW149619   9.650   8.053   3.141  0.8387 -0.7528  2.8769
15277SOL    HW249620   9.610   7.932   3.060 -0.9111  2.1623 -0.9400
15278SOL     OW49621   0.269   9.128   1.312  0.5478 -0.0161  0.0575
15278SOL    HW149622   0.357   9.090   1.310  0.3573 -0.5151  0.7298
15278SOL    HW249623   0.282   9.218   1.340  0.7882 -0.3015  0.8867
15279SOL     OW49624   8.687   0.921   2.214 -0.3023  0.3974  0.2928
15279SOL    HW149625   8.624   0.870   2.266  0.2313 -0.8190 -0.2103
15279SOL    HW249626   8.705   0.865   2.138 -0.1009  1.5916 -0.5634
15280SOL     OW49627   1.324   1.303   4.821 -0.1485 -0.4527 -0.2126
15280SOL    HW149628   1.288   1.374   4.874 -1.0741 -2.2810  1.7638
15280SOL    HW249629   1.372   1.248   4.884  0.9592 -1.3233 -1.7559
15281SOL     OW49630   7.151   4.011   0.640 -0.0744  0.2803 -0.2371
15281SOL    HW149631   7.196   3.975   0.563  1.3137  0.5869  0.3946
15281SOL    HW249632   7.200   3.976   0.715  0.4742  2.3508  0.4309
15282SOL     OW49633   3.238   6.791   1.164 -0.2638 -0.7747  0.3072
15282SOL    HW149634   3.143   6.806   1.167 -0.2070 -0.5270  1.9145
15282SOL    HW249635   3.276   6.875   1.189  0.4069 -0.7624 -0.7137
15283SOL     OW49636   4.495   0.829   5.770 -0.1944  0.1271 -0.7882
15283SOL    HW149637   4.553   0.870   5.706  1.3458  0.9437  1.0122
15283SOL    HW249638   4.548   0.823   5.850 -2.2105 -0.2759  0.6079
15284SOL     OW49639   0.215   6.624   7.102  0.4064 -0.2588 -0.6728
15284SOL    HW149640   0.260   6.640   7.019  1.2865  2.0446  0.1652
15284SOL    HW249641   0.168   6.706   7.120 -1.5603 -1.4677  0.0788
15285SOL     OW49642   1.843   9.597   4.314 -0.0244  0.1787  0.6032
15285SOL    HW149643   1.751   9.601   4.288 -0.2385  0.7424  1.4252
15285SOL    HW249644   1.842   9.616   4.407  1.0172  1.0961  0.4454
15286SOL     OW49645   5.952   9.050   4.712  0.2816  0.1185  0.1755
15286SOL    HW149646   5.906   9.061   4.795  1.7261 -0.2221  1.0500
15286SOL    HW249647   5.951   8.955   4.696  1.5394 -0.0035  0.7307
15287SOL     OW49648   1.563   3.268   4.848 -0.2040 -0.4042 -0.9139
15287SOL    HW149649   1.655   3.279   4.822  0.2935 -2.0978 -0.0156
15287SOL    HW249650   1.553   3.174   4.863 -1.3994  0.0265  1.4638
15288SOL     OW49651   1.667   9.202   2.172  0.6325  0.0571 -0.1622
15288SOL    HW149652   1.658   9.115   2.211  0.1955  0.2234  0.1185
15288SOL    HW249653   1.641   9.191   2.081 -3.6588  0.6707  0.7534
15289SOL     OW49654   8.326   7.360   1.211 -0.0884  0.2427 -0.2355
15289SOL    HW149655   8.258   7.426   1.227 -0.0368  0.2543 -0.0563
15289SOL    HW249656   8.317   7.339   1.118 -1.0421 -0.5426  0.0089
15290SOL     OW49657   2.211   2.167   1.264 -0.8650 -0.6215 -0.8298
15290SOL    HW149658   2.169   2.252   1.257  0.2567  0.0781  0.5149
15290SOL    HW249659   2.189   2.123   1.182 -1.0048  1.1591 -1.8005
15291SOL     OW49660   0.318   5.530   4.323  0.7970 -0.0000 -0.4284
15291SOL    HW149661   0.367   5.603   4.361 -1.0329  0.9629  0.1752
15291SOL    HW249662   0.274   5.489   4.397  0.9696 -1.1004 -0.9074
15292SOL     OW49663   7.065   2.083   5.076 -0.2172 -0.2839 -0.0208
15292SOL    HW149664   6.979   2.068   5.114  0.3322 -2.4939  0.5016
15292SOL    HW249665   7.106   1.996   5.074  1.5070  0.4957 -1.4686
15293SOL     OW49666   4.654   9.558   7.864 -0.6263 -0.2144 -0.4254
15293SOL    HW149667   4.597   9.491   7.902 -0.8428 -0.1694 -0.6687
15293SOL    HW249668   4.615   9.641   7.892 -0.5683 -0.1841 -0.4317
15294SOL     OW49669   8.274   5.408   8.264  0.3458 -0.3135 -0.3172
15294SOL    HW149670   8.232   5.457   8.194  0.0144  1.8769  1.3048
15294SOL    HW249671   8.367   5.414   8.245  0.2208 -0.4076 -0.9781
15295SOL     OW49672   3.660   1.163   1.725 -0.6698 -0.3398  0.1023
15295SOL    HW149673   3.637   1.168   1.632 -1.1939  1.8680  0.3064
15295SOL    HW249674   3.582   1.193   1.771  0.3396  0.8105  1.1292
15296SOL     OW49675   2.103   2.952   6.202 -0.3488  0.9134  0.5311
15296SOL    HW149676   2.190   2.969   6.238 -0.4699  1.4890  0.5695
15296SOL    HW249677   2.047   2.947   6.279 -0.3547  0.5641  0.5053
15297SOL     OW49678   6.720   4.088   4.947 -0.3230 -0.4826 -0.3340
15297SOL    HW149679   6.627   4.113   4.949 -0.3153 -0.4866  0.8539
15297SOL    HW249680   6.742   4.073   5.039  0.2296 -2.8534 -0.8058
15298SOL     OW49681   8.292   5.094   0.083  0.4794 -0.0159 -0.3605
15298SOL    HW149682   8.234   5.034   0.036  1.2351 -1.4031  0.4207
15298SOL    HW249683   8.233   5.158   0.124 -0.4188 -0.8094 -0.3970
15299SOL     OW49684   4.858   8.197   7.158  0.2225 -0.4737  0.4754
15299SOL    HW149685   4.854   8.141   7.081  0.2346  0.5608 -0.2905
15299SOL    HW249686   4.951   8.199   7.181  0.0482 -2.0387  1.4932
15300SOL     OW49687   0.409   9.740   2.179  0.1955  0.4911 -0.0813
15300SOL    HW149688   0.352   9.805   2.138  0.1995  0.7979  0.3842
15300SOL    HW249689   0.496   9.758   2.142 -0.2326 -0.9142 -1.8981
15301SOL     OW49690   4.727   8.625   0.448 -0.3238  0.1362  0.0844
15301SOL    HW149691   4.638   8.643   0.478 -0.6496  1.9958 -1.7456
15301SOL    HW249692   4.763   8.563   0.512 -2.8065 -0.4216  1.0311
15302SOL     OW49693   0.533   1.239   5.479 -0.4402  0.1120 -0.2131
15302SOL    HW149694   0.437   1.244   5.488 -0.4720  0.9142 -0.9014
15302SOL    HW249695   0.548   1.169   5.415 -0.6280  0.8026 -1.0249
15303SOL     OW49696   6.717   3.396   6.417  0.2431 -0.4773  0.3395
15303SOL    HW149697   6.765   3.372   6.496 -1.4680 -0.3876  1.4642
15303SOL    HW249698   6.678   3.481   6.438  0.9421  0.2641 -1.1752
15304SOL     OW49699   2.876   6.500   4.113 -0.6085 -0.2119 -0.3884
15304SOL    HW149700   2.783   6.485   4.098 -0.2604 -2.0785 -0.8699
15304SOL    HW249701   2.913   6.510   4.025 -0.3512  0.5803 -0.1979
15305SOL     OW49702   3.794   9.368   0.177  0.0628  0.1805 -0.2501
15305SOL    HW149703   3.745   9.449   0.163  1.6438  1.4378  1.0771
15305SOL    HW249704   3.820   9.340   0.089 -2.3948 -0.1799 -0.9321
15306SOL     OW49705   3.828  10.323   1.074 -0.1886 -0.0618  0.2257
15306SOL    HW149706   3.867  10.378   1.141  0.0721 -0.2009  0.1898
15306SOL    HW249707   3.734  10.338   1.081 -0.0211  2.5525 -1.6410
15307SOL     OW49708   8.970   9.220   5.642 -0.6856  0.1597 -0.0123
15307SOL    HW149709   8.921   9.138   5.629  0.2469 -0.4225  0.0229
15307SOL    HW249710   9.051   9.208   5.592 -0.2792  0.8178  0.4676
15308SOL     OW49711   5.479   5.239   7.639  0.5992  0.0430  0.2458
15308SOL    HW149712   5.531   5.179   7.692  2.5495 -0.3215 -1.8715
15308SOL    HW249713   5.544   5.298   7.600 -1.0220  2.0691  0.4364
15309SOL     OW49714   5.164   5.837  10.291  0.3828  0.3852  0.2560
15309SOL    HW149715   5.214   5.919  10.294  2.8369 -1.0076  0.3892
15309SOL    HW249716   5.073   5.865  10.280  1.3793  3.0704 -3.1843
15310SOL     OW49717   7.412   9.128   5.493  0.2046 -0.2930 -0.3326
15310SOL    HW149718   7.456   9.212   5.476  1.7056 -0.3193  2.6866
15310SOL    HW249719   7.448   9.069   5.427 -0.4215  1.2283 -2.1363
15311SOL     OW49720   9.618   7.790   7.940  0.2951  0.3296 -0.2299
15311SOL    HW149721   9.573   7.783   7.855 -1.2535 -1.1652  0.6666
15311SOL    HW249722   9.586   7.872   7.977  0.5611  0.7179 -0.8343
15312SOL     OW49723   1.151   2.767   7.479 -0.1769 -0.7633 -0.0704
15312SOL    HW149724   1.205   2.749   7.402  0.5319  0.2852  0.1586
15312SOL    HW249725   1.149   2.685   7.527 -0.5229 -1.3960 -1.1337
15313SOL     OW49726   5.472   1.187   4.514  0.3736  0.1260  0.4929
15313SOL    HW149727   5.552   1.143   4.485  0.8246  0.6770  0.8901
15313SOL    HW249728   5.416   1.189   4.436  1.2553  0.8933 -0.1368
15314SOL     OW49729   2.290   6.541   5.536  0.0369 -0.0165 -0.1723
15314SOL    HW149730   2.210   6.491   5.552  0.1265 -0.3633 -0.7839
15314SOL    HW249731   2.287   6.612   5.599 -0.5030 -0.3232  0.1528
15315SOL     OW49732   8.171   7.816   2.471 -0.3660  0.5742  0.0570
15315SOL    HW149733   8.100   7.777   2.419 -0.1602  1.2714 -0.7591
15315SOL    HW249734   8.168   7.909   2.450  1.6832  0.4442 -1.1139
15316SOL     OW49735   8.869   4.759   5.878 -0.1859  0.0774 -0.1804
15316SOL    HW149736   8.848   4.841   5.923 -0.5920  0.2177 -0.6223
15316SOL    HW249737   8.846   4.690   5.941  3.2640  0.3164  1.5819
15317SOL     OW49738   2.525   5.807  10.058 -0.0967 -0.5314 -0.0984
15317SOL    HW149739   2.486   5.831   9.974 -1.1147 -1.9606 -0.0725
15317SOL    HW249740   2.587   5.738  10.037  0.2906 -0.2884  0.2250
15318SOL     OW49741   4.034   2.190   5.135  0.5010 -0.1150  0.0243
15318SOL    HW149742   3.975   2.124   5.169  0.4569 -0.6956 -1.1406
15318SOL    HW249743   4.109   2.188   5.195 -0.5388  0.5044  1.4067
15319SOL     OW49744   5.818  10.178   2.248 -0.3663  0.1863  0.0913
15319SOL    HW149745   5.856  10.191   2.161  0.4552  1.1212  0.5724
15319SOL    HW249746   5.889  10.143   2.300  0.5523  3.7620  1.5160
15320SOL     OW49747   0.181   1.355   4.706  0.3846  0.5648  0.4141
15320SOL    HW149748   0.097   1.398   4.725 -0.0130  0.3825 -0.8516
15320SOL    HW249749   0.226   1.416   4.648 -0.3312 -0.8169 -1.6921
15321SOL     OW49750   7.683   5.222   7.360  0.2724  0.0986  0.5712
15321SOL    HW149751   7.625   5.274   7.304 -0.1241 -1.4193 -0.4651
15321SOL    HW249752   7.662   5.250   7.449 -3.0446 -1.3257  0.3499
15322SOL     OW49753   1.807   3.837   5.746 -0.4882  0.0244  0.1513
15322SOL    HW149754   1.857   3.763   5.714  0.1863  0.4970  0.0919
15322SOL    HW249755   1.869   3.888   5.798 -0.6348  1.1238 -0.7003
15323SOL     OW49756  10.099   7.267   5.885 -0.2692 -0.0715 -0.4944
15323SOL    HW149757  10.156   7.314   5.946 -1.3212  2.1742 -1.1201
15323SOL    HW249758  10.011   7.297   5.906 -0.9021 -1.0718 -1.5801
15324SOL     OW49759   0.250   6.845   2.651  0.4453  0.5628 -0.3714
15324SOL    HW149760   0.283   6.755   2.653  0.4359  0.5632 -0.1725
15324SOL    HW249761   0.221   6.858   2.561 -1.2415 -0.2452  0.0083
15325SOL     OW49762   0.775   5.981   4.806  0.2238  0.3083  0.0752
15325SOL    HW149763   0.707   6.008   4.868 -0.7154 -0.8448 -0.4202
15325SOL    HW249764   0.752   6.024   4.724 -0.6547 -1.0430 -0.4247
15326SOL     OW49765   6.094   9.380   0.165 -0.2589  0.4388 -0.4988
15326SOL    HW149766   6.162   9.315   0.147 -0.8691 -0.0241 -1.1902
15326SOL    HW249767   6.087   9.430   0.084 -1.6180 -0.3381 -0.8874
15327SOL     OW49768   3.851   0.197   7.006 -0.5530 -0.6251  0.4888
15327SOL    HW149769   3.888   0.146   7.078  0.9640 -0.6233 -0.2527
15327SOL    HW249770   3.821   0.132   6.943 -1.0852 -0.6149  0.7250
15328SOL     OW49771   9.466   9.857   6.950 -0.4221  0.1587  0.4132
15328SOL    HW149772   9.481   9.771   6.911 -0.0015  0.0884  0.7226
15328SOL    HW249773   9.538   9.868   7.012 -2.0803 -0.5454  2.5780
15329SOL     OW49774   8.977   9.868   7.019  0.5957  0.5270  0.5573
15329SOL    HW149775   9.041   9.938   7.004  1.5187 -0.1287  1.3466
15329SOL    HW249776   9.023   9.803   7.072 -0.6943 -0.0138  1.0745
15330SOL     OW49777   4.964   5.669   1.493  0.8476  0.4218  0.0618
15330SOL    HW149778   4.941   5.753   1.453  1.1211 -0.2436 -1.5601
15330SOL    HW249779   5.055   5.654   1.468  0.8947 -0.2176  0.5794
15331SOL     OW49780   8.123   2.129  10.141 -0.0586  0.2940  0.1640
15331SOL    HW149781   8.041   2.162  10.177 -0.1691  0.5833 -0.3428
15331SOL    HW249782   8.098   2.081  10.062  0.4400  2.4609 -1.3975
15332SOL     OW49783   7.333   2.091   3.099 -0.0889  0.6802  0.0342
15332SOL    HW149784   7.248   2.052   3.080  0.0328  0.4898 -0.1264
15332SOL    HW249785   7.313   2.177   3.135 -0.3555  0.5656  0.1639
15333SOL     OW49786   6.063   0.054   6.186 -0.1605  0.2826 -0.6430
15333SOL    HW149787   6.119   0.011   6.121  0.8831  2.0813 -1.0045
15333SOL    HW249788   5.978   0.062   6.143 -0.0368 -0.3487 -1.0098
15334SOL     OW49789   5.205   9.555   9.968  0.2089 -0.4566  0.1453
15334SOL    HW149790   5.275   9.491   9.957  0.4344 -0.2623  0.4484
15334SOL    HW249791   5.212   9.584  10.059 -1.4610 -1.8236  0.7754
15335SOL     OW49792   6.518   6.810   9.711 -0.1581 -0.0274  0.2818
15335SOL    HW149793   6.582   6.768   9.768 -0.3494 -0.3406  0.2623
15335SOL    HW249794   6.571   6.862   9.650  0.1106 -0.8012 -0.1518
15336SOL     OW49795   9.089   1.103   7.416 -0.4585  0.3593  0.4755
15336SOL    HW149796   9.083   1.189   7.375 -1.7005  0.8204  1.5569
15336SOL    HW249797   9.169   1.064   7.380  0.9168  2.5268  1.0091
15337SOL     OW49798   1.335   2.583   3.031  0.6475 -0.6227  0.4664
15337SOL    HW149799   1.419   2.624   3.011 -0.1324  0.1562 -1.4717
15337SOL    HW249800   1.316   2.608   3.121  2.1718 -0.2813  0.7117
15338SOL     OW49801   1.606   8.196   6.349  0.2901  0.4039  0.2908
15338SOL    HW149802   1.580   8.284   6.322 -2.8675 -0.3950  0.3693
15338SOL    HW249803   1.617   8.202   6.444 -0.2514  0.6617  0.3398
15339SOL     OW49804   8.176   5.119   9.027 -0.2109 -0.0491  0.0387
15339SOL    HW149805   8.130   5.052   8.977  1.1657 -1.1273  0.1781
15339SOL    HW249806   8.269   5.101   9.013  0.2108  2.1612 -0.3412
15340SOL     OW49807   3.253   3.060   4.403  0.2476  0.0002 -0.0718
15340SOL    HW149808   3.291   3.077   4.317 -0.7743  0.7504 -0.3964
15340SOL    HW249809   3.318   3.092   4.465  0.1409  1.3345 -0.6193
15341SOL     OW49810   5.927   9.346   1.317 -0.4458  0.0278 -0.0854
15341SOL    HW149811   5.910   9.324   1.409 -0.5196  0.2074 -0.0553
15341SOL    HW249812   5.951   9.263   1.277 -1.5898 -0.2869 -0.1749
15342SOL     OW49813   9.795   3.936   0.854 -0.1691  0.7234 -0.3915
15342SOL    HW149814   9.748   3.887   0.921 -2.5431  1.9992 -1.0132
15342SOL    HW249815   9.856   3.873   0.817 -0.0343 -0.4973  1.7407
15343SOL     OW49816   4.292   6.804   9.329 -0.5981  0.2239  0.5125
15343SOL    HW149817   4.286   6.850   9.413  1.6992  1.2284  0.2003
15343SOL    HW249818   4.271   6.870   9.263  4.2575  1.6050 -0.0517
15344SOL     OW49819   3.811   0.483   9.378  0.8447  0.6453 -0.0901
15344SOL    HW149820   3.841   0.441   9.459  0.0942  0.9170  0.3348
15344SOL    HW249821   3.804   0.576   9.401 -1.8459  0.4208  0.3397
15345SOL     OW49822   9.153   5.760   6.076  0.2742  0.1344  0.0280
15345SOL    HW149823   9.226   5.723   6.026 -0.1754 -0.8481  0.0871
15345SOL    HW249824   9.178   5.852   6.089  1.2575 -0.0570 -0.3949
15346SOL     OW49825   7.138   1.218   2.286  0.0788 -0.3297  0.3644
15346SOL    HW149826   7.200   1.274   2.240 -1.1980 -0.7860 -2.0870
15346SOL    HW249827   7.149   1.132   2.244 -2.1612 -0.4110 -0.1826
15347SOL     OW49828   1.655   6.864   5.328 -0.6924  0.1855  0.1833
15347SOL    HW149829   1.644   6.821   5.413  1.3565 -0.6001  0.0907
15347SOL    HW249830   1.690   6.951   5.350 -1.1233  0.3713  0.1624
15348SOL     OW49831   2.019   5.325   7.740  0.0960 -0.4826  0.2320
15348SOL    HW149832   2.074   5.291   7.811 -0.7142 -1.9352  0.1930
15348SOL    HW249833   1.929   5.307   7.768 -0.2761 -0.1555 -0.7090
15349SOL     OW49834   4.405   8.045   3.769 -0.1962  0.4290 -0.5006
15349SOL    HW149835   4.492   8.070   3.801 -0.4521  0.0337  0.5381
15349SOL    HW249836   4.374   8.121   3.721  0.0407  1.2063  0.5447
15350SOL     OW49837   2.864   8.389   7.676  0.1283  0.6136 -0.0109
15350SOL    HW149838   2.957   8.365   7.670 -0.0557 -0.1845  0.2187
15350SOL    HW249839   2.847   8.437   7.595  0.4096 -0.4243 -0.7145
15351SOL     OW49840   7.449   3.669   8.736 -0.0071 -0.3211  0.5621
15351SOL    HW149841   7.432   3.710   8.651 -1.1346 -1.9968 -0.0554
15351SOL    HW249842   7.542   3.685   8.751  0.7214 -1.6950 -1.9691
15352SOL     OW49843   0.833   9.288   0.364 -0.0480  0.0589 -0.3161
15352SOL    HW149844   0.788   9.205   0.383  1.4078 -0.6861  0.0773
15352SOL    HW249845   0.786   9.353   0.416 -1.4875 -0.4190 -0.9572
15353SOL     OW49846   2.965   8.847   7.258 -0.2658 -0.1332  0.5572
15353SOL    HW149847   2.886   8.817   7.302 -0.9584  1.9173  0.8325
15353SOL    HW249848   3.018   8.886   7.328  0.3774 -0.2863  0.1637
15354SOL     OW49849   4.519   6.871   8.481  0.1619  0.6292  0.3569
15354SOL    HW149850   4.480   6.786   8.503  1.7195 -0.7310 -1.6752
15354SOL    HW249851   4.450   6.935   8.499 -1.7289 -1.2578  0.2195
15355SOL     OW49852   2.028   9.962   6.947 -0.7433  0.2051 -0.5933
15355SOL    HW149853   2.095  10.019   6.985  0.3432 -0.5355 -1.3189
15355SOL    HW249854   1.946  10.011   6.956  0.0674  1.6378 -0.7212
15356SOL     OW49855   1.220   4.557   7.239  0.0109  0.8602 -0.0709
15356SOL    HW149856   1.188   4.582   7.152 -0.2794 -0.3400 -0.3313
15356SOL    HW249857   1.279   4.627   7.264 -0.2860  1.4719 -1.0244
15357SOL     OW49858   1.632   7.065   8.209  0.6927  0.0644 -0.1843
15357SOL    HW149859   1.721   7.077   8.176  0.9141 -0.2638  0.2849
15357SOL    HW249860   1.604   6.981   8.172  0.6648  0.0551 -0.1431
15358SOL     OW49861  10.180   2.067   9.302 -0.3108  0.5885  0.0599
15358SOL    HW149862  10.110   2.016   9.343  0.1045 -0.3283 -0.3345
15358SOL    HW249863  10.156   2.071   9.210  0.0189  0.4932 -0.0311
15359SOL     OW49864   0.124   0.754   6.434 -0.2595 -0.0150 -0.3829
15359SOL    HW149865   0.123   0.839   6.390  0.9266  0.0037 -0.3935
15359SOL    HW249866   0.184   0.765   6.507 -0.5896 -0.6670 -0.0004
15360SOL     OW49867   3.888   8.765   4.349 -0.6002  0.4140 -0.2058
15360SOL    HW149868   3.921   8.825   4.282  1.2051 -0.4994 -0.1910
15360SOL    HW249869   3.920   8.802   4.432 -1.2420  0.5322 -0.0070
15361SOL     OW49870   6.750   2.628   6.046 -0.1822 -0.0192  0.1818
15361SOL    HW149871   6.731   2.611   5.954  1.5482 -0.1437 -0.1890
15361SOL    HW249872   6.696   2.566   6.094 -1.4559  0.3693 -0.7213
15362SOL     OW49873   1.070   9.378   2.051  0.5452 -0.1471 -0.3053
15362SOL    HW149874   1.072   9.451   1.989  1.6901  0.3549  0.2920
15362SOL    HW249875   1.000   9.400   2.112 -0.6244 -0.6659 -1.4108
15363SOL     OW49876   9.811   8.041   7.851 -0.3799 -0.5649  0.2263
15363SOL    HW149877   9.875   8.096   7.807 -1.7660 -0.9683 -2.5223
15363SOL    HW249878   9.794   7.970   7.789 -1.2215 -2.1772  2.1819
15364SOL     OW49879   3.931   8.154   9.613  0.6822 -0.2831 -0.5131
15364SOL    HW149880   3.976   8.228   9.571 -0.7846 -0.7073 -3.0651
15364SOL    HW249881   3.879   8.193   9.682  2.5456  0.5891  0.4642
15365SOL     OW49882   6.807   6.948  10.044  0.1015 -0.5845 -0.2405
15365SOL    HW149883   6.725   6.983  10.009 -0.0608 -1.4765 -0.7648
15365SOL    HW249884   6.818   6.993  10.128  0.5420  1.6603 -1.4313
15366SOL     OW49885   9.175   8.134   5.638  0.4447  0.2246 -0.2731
15366SOL    HW149886   9.168   8.131   5.543 -1.5850 -2.2565 -0.1566
15366SOL    HW249887   9.133   8.216   5.663  1.0719  0.9489 -1.4794
15367SOL     OW49888   9.678   3.045   6.627 -0.1311 -0.0294  0.2002
15367SOL    HW149889   9.729   2.970   6.658  1.1196  0.4429 -0.6295
15367SOL    HW249890   9.741   3.097   6.577 -1.6349  0.1293 -1.6432
15368SOL     OW49891   3.853   0.452   1.235 -0.0962 -0.0468  0.1560
15368SOL    HW149892   3.851   0.519   1.167  0.7465 -2.1088 -2.0087
15368SOL    HW249893   3.945   0.429   1.244 -0.1030  0.5912  2.5036
15369SOL     OW49894   4.440   3.834   5.792 -0.1686 -0.0498  0.3203
15369SOL    HW149895   4.500   3.767   5.760 -1.4234 -1.1148  0.0923
15369SOL    HW249896   4.355   3.809   5.755 -0.8194  1.2058  0.9120
15370SOL     OW49897  10.073   6.492   0.611 -0.2234  0.2406  0.5771
15370SOL    HW149898  10.008   6.483   0.542  0.3363 -0.8673  0.1727
15370SOL    HW249899  10.037   6.559   0.669 -1.7517 -0.3856  0.3988
15371SOL     OW49900   5.757   6.691   3.433  0.8066  0.1358 -0.5600
15371SOL    HW149901   5.719   6.676   3.520  0.1268  0.7328 -0.7359
15371SOL    HW249902   5.691   6.658   3.372  0.9540  0.3847 -0.8598
15372SOL     OW49903   6.399   1.827   3.429 -0.4364  0.1173 -0.3906
15372SOL    HW149904   6.363   1.894   3.371 -0.2909  0.0302 -0.5792
15372SOL    HW249905   6.394   1.746   3.379 -0.8730 -0.0654 -0.0623
15373SOL     OW49906   8.168   3.869   1.183 -0.1825  0.2955 -0.2234
15373SOL    HW149907   8.250   3.839   1.222 -0.1329  0.2569 -0.3568
15373SOL    HW249908   8.180   3.857   1.088 -0.3517  0.2629 -0.2418
15374SOL     OW49909   6.309   7.274   4.832  0.3793  0.2874  0.5550
15374SOL    HW149910   6.385   7.307   4.879  0.8720 -0.5091  0.3392
15374SOL    HW249911   6.314   7.179   4.843  0.3975  0.0921 -0.9267
15375SOL     OW49912   4.673   8.201  10.143 -0.7383 -0.2971 -0.4697
15375SOL    HW149913   4.614   8.172  10.074 -1.1486  0.6539 -0.5308
15375SOL    HW249914   4.688   8.294  10.125 -1.6567  0.2309  1.2651
15376SOL     OW49915   8.101   5.089   9.642 -0.5688 -0.0132  0.3247
15376SOL    HW149916   8.032   5.138   9.596  0.5431  0.4019 -0.9701
15376SOL    HW249917   8.168   5.074   9.575  0.6198 -0.3692  1.5575
15377SOL     OW49918   3.515   2.956   1.912 -0.1046 -0.1462 -0.0875
15377SOL    HW149919   3.591   3.011   1.891 -1.1163  0.9217 -1.0887
15377SOL    HW249920   3.517   2.886   1.846  0.8142 -0.9739  0.7879
15378SOL     OW49921   9.203   3.081   4.831  0.5116  0.1484  0.1233
15378SOL    HW149922   9.158   3.041   4.906 -0.4253 -1.2859 -1.1488
15378SOL    HW249923   9.294   3.090   4.860  0.4692 -1.6904  0.9529
15379SOL     OW49924   5.015   4.608   0.465 -0.0862  0.3932  0.1905
15379SOL    HW149925   4.972   4.693   0.470  2.0695  1.6381 -1.1102
15379SOL    HW249926   5.064   4.610   0.383  1.8028 -1.1985  1.1738
15380SOL     OW49927   2.763   7.704   0.021 -0.4003 -0.0372 -0.4770
15380SOL    HW149928   2.788   7.683   0.111 -0.4659 -0.2545 -0.5075
15380SOL    HW249929   2.843   7.737  -0.020 -0.6924  1.3957  0.0525
15381SOL     OW49930   7.613   0.205   9.192  0.0130 -0.2525 -1.0795
15381SOL    HW149931   7.623   0.301   9.188 -2.2531  0.1869  1.1626
15381SOL    HW249932   7.520   0.192   9.206  0.3046 -2.8235 -1.1730
15382SOL     OW49933   5.774   8.181   0.412  0.0286  0.2651  0.0119
15382SOL    HW149934   5.685   8.186   0.449 -0.8261 -1.6449 -1.6190
15382SOL    HW249935   5.826   8.140   0.481 -0.5287  0.6506  0.6784
15383SOL     OW49936   0.917   5.192   2.840 -0.3707 -0.3336 -0.2230
15383SOL    HW149937   0.990   5.133   2.861  0.1873  0.5761  0.4622
15383SOL    HW249938   0.869   5.147   2.771 -0.1287 -1.7228  0.4833
15384SOL     OW49939   4.665   7.004   0.013  0.0034 -0.3661  0.0840
15384SOL    HW149940   4.651   7.096  -0.010  0.0890 -0.9428 -2.5459
15384SOL    HW249941   4.754   6.986  -0.016 -0.2541 -1.4661 -0.0393
15385SOL     OW49942   2.337   1.209   1.921  0.1525 -0.0554  0.3852
15385SOL    HW149943   2.415   1.156   1.905 -0.6803 -0.9806 -0.7831
15385SOL    HW249944   2.268   1.165   1.873 -1.5078 -0.2439  2.7916
15386SOL     OW49945   1.826   9.958   8.979  0.0476 -0.0538  0.5026
15386SOL    HW149946   1.823   9.898   9.054  1.0963  0.6539  1.1230
15386SOL    HW249947   1.843  10.044   9.017  2.4803  0.0549 -0.6481
15387SOL     OW49948   1.871   9.852   3.439  0.4556 -0.0677  0.0067
15387SOL    HW149949   1.931   9.926   3.445  0.5562 -0.2228  1.1104
15387SOL    HW249950   1.924   9.780   3.405 -0.0805  0.7969 -2.9984
15388SOL     OW49951   5.613   9.079   5.918  0.6496 -0.2251 -1.0812
15388SOL    HW149952   5.668   9.157   5.911  0.1885  0.1364 -0.6861
15388SOL    HW249953   5.532   9.101   5.873 -1.0743  0.9950  2.2740
15389SOL     OW49954   3.603   0.560   5.705  0.7829 -0.2617 -0.3558
15389SOL    HW149955   3.697   0.553   5.692  1.3095  0.8488  2.1701
15389SOL    HW249956   3.594   0.600   5.792 -2.0212 -0.9588 -0.2282
15390SOL     OW49957   3.803   2.291   8.033  0.6105  0.7139 -0.1797
15390SOL    HW149958   3.754   2.233   7.975  2.0400  1.2638 -2.0281
15390SOL    HW249959   3.847   2.352   7.974  2.8437  0.7591  1.4168
15391SOL     OW49960   3.957   3.752   6.668 -0.6234 -0.1197 -0.2441
15391SOL    HW149961   3.875   3.802   6.666 -0.5239  0.0247 -0.6489
15391SOL    HW249962   3.967   3.719   6.579 -0.6839 -0.8574  0.0114
15392SOL     OW49963   5.007   4.676   8.608 -0.3663  0.5776 -0.2579
15392SOL    HW149964   5.074   4.745   8.612  1.2322 -0.9235  2.7491
15392SOL    HW249965   5.042   4.613   8.545  0.2436  0.6155  0.0285
15393SOL     OW49966   5.847   9.566   1.142  0.6207 -0.0994 -0.3598
15393SOL    HW149967   5.753   9.554   1.128  0.4921  0.1278  0.2762
15393SOL    HW249968   5.873   9.490   1.194  0.3434  0.8943  1.3231
15394SOL     OW49969  10.038   9.998   8.646  0.1498 -0.2234  0.1374
15394SOL    HW149970  10.067   9.909   8.663  0.5514 -0.1790 -0.3092
15394SOL    HW249971  10.118  10.047   8.629 -0.0644  0.2335  0.4013
15395SOL     OW49972   5.300   8.774   1.400 -0.2981 -0.3042 -0.4370
15395SOL    HW149973   5.326   8.698   1.348 -1.5644 -0.9464 -0.1715
15395SOL    HW249974   5.336   8.757   1.487 -0.7270 -0.7000 -0.3320
15396SOL     OW49975   7.707   8.995   3.681 -0.8314 -0.4044  0.3512
15396SOL    HW149976   7.747   9.082   3.682 -0.2447 -0.5542 -2.0244
15396SOL    HW249977   7.668   8.988   3.594 -1.3026 -2.3333  0.6616
15397SOL     OW49978   6.405   3.240   2.541 -0.5053  0.0668  0.4385
15397SOL    HW149979   6.329   3.256   2.484 -0.0815 -0.8114 -0.3947
15397SOL    HW249980   6.374   3.175   2.603 -0.5838  0.0880  0.4226
15398SOL     OW49981   2.487   8.323   1.922 -0.3545 -0.3453 -0.0152
15398SOL    HW149982   2.474   8.228   1.914  0.7997 -0.4136 -1.6319
15398SOL    HW249983   2.461   8.357   1.836 -1.2765  0.8977  0.7210
15399SOL     OW49984   3.007   6.280   3.680  0.0563 -0.1280  0.2211
15399SOL    HW149985   2.928   6.270   3.733  0.4934 -0.7898  0.7771
15399SOL    HW249986   3.077   6.292   3.745  0.3699  0.7625 -0.2730
15400SOL     OW49987   0.049   9.184   8.924  0.4309  0.2830  0.4050
15400SOL    HW149988   0.124   9.162   8.868  0.2864 -0.1062  0.3607
15400SOL    HW249989   0.075   9.153   9.011  0.3156  0.1356  0.3871
15401SOL     OW49990   4.746  10.210   6.688  0.2034  0.2609  0.4362
15401SOL    HW149991   4.661  10.185   6.651  0.7598 -0.0768 -0.6582
15401SOL    HW249992   4.768  10.138   6.748  0.6966 -0.7342 -0.8986
15402SOL     OW49993   3.393   5.014   7.421 -0.1522 -0.2655  0.5453
15402SOL    HW149994   3.407   5.097   7.376 -3.2240 -0.3444 -0.8368
15402SOL    HW249995   3.393   4.949   7.350  1.5662 -1.4036  1.5267
15403SOL     OW49996   8.769   3.380   3.520  0.2188  0.0650 -0.6473
15403SOL    HW149997   8.855   3.420   3.504  1.1683 -1.3781  0.6214
15403SOL    HW249998   8.747   3.337   3.437  0.5460  0.7475 -1.0936
15404SOL     OW49999   5.407   4.919   4.712 -0.5992  0.1161  0.0462
15404SOL    HW150000   5.412   4.855   4.783  2.3957 -0.1621 -0.2742
15404SOL    HW250001   5.331   4.893   4.660 -0.9932 -1.5625  1.4044
15405SOL     OW50002   8.701   6.493   1.503 -0.3333  0.0356 -0.2659
15405SOL    HW150003   8.648   6.549   1.559  0.6914  1.6603 -0.8413
15405SOL    HW250004   8.725   6.419   1.558 -0.4861  0.9089  1.0122
15406SOL     OW50005   9.520   5.610   7.929 -0.4153  0.0227 -0.0353
15406SOL    HW150006   9.425   5.602   7.926 -0.4216  0.1374 -2.4537
15406SOL    HW250007   9.551   5.523   7.954 -1.1485 -0.2135  0.0677
15407SOL     OW50008   2.583   1.354   8.096  0.5903  0.2278 -0.1413
15407SOL    HW150009   2.555   1.263   8.087 -1.6812  0.5659  2.2930
15407SOL    HW250010   2.650   1.352   8.165  0.7266  0.3879 -0.2670
15408SOL     OW50011   7.042   7.521   3.438  0.3136 -0.3485 -0.3318
15408SOL    HW150012   6.988   7.465   3.382  3.5685 -0.4541 -3.7392
15408SOL    HW250013   7.100   7.460   3.485 -0.5198 -0.0890  1.0944
15409SOL     OW50014   8.116   5.003   3.271  0.0872  0.3237 -0.1903
15409SOL    HW150015   8.041   5.039   3.319  0.4291  0.2345  0.4186
15409SOL    HW250016   8.098   5.024   3.179 -0.1274  1.3071  0.0627
15410SOL     OW50017   8.292   4.535   5.197  0.4945 -0.6583  0.0990
15410SOL    HW150018   8.371   4.552   5.247 -0.4928 -0.1949  1.5456
15410SOL    HW250019   8.266   4.620   5.163  0.4702 -0.7747 -0.1793
15411SOL     OW50020   0.717   1.933   4.293  0.2454  0.3286 -0.1082
15411SOL    HW150021   0.770   1.869   4.246  0.8402 -0.7040  1.8502
15411SOL    HW250022   0.780   2.001   4.319  0.6871 -0.7993  2.0452
15412SOL     OW50023  10.026   4.669   6.398  0.2581  0.0803 -0.4103
15412SOL    HW150024  10.043   4.611   6.325  1.9745  0.7665 -0.6204
15412SOL    HW250025   9.970   4.619   6.458  0.3738 -1.1560 -1.3187
15413SOL     OW50026   5.129   5.529   8.368  0.6139 -0.3003  0.3159
15413SOL    HW150027   5.078   5.546   8.288  0.4867 -1.7953  0.0397
15413SOL    HW250028   5.063   5.518   8.436  0.7350  1.3317  0.7359
15414SOL     OW50029   2.408   1.444   1.617  0.3631 -0.0092 -0.5695
15414SOL    HW150030   2.469   1.383   1.658  1.0572 -0.8590 -2.7455
15414SOL    HW250031   2.321   1.409   1.638  0.6901 -0.4545  0.0804
15415SOL     OW50032   4.161   5.989   4.014 -0.3407  0.2283 -0.3053
15415SOL    HW150033   4.178   5.941   4.095 -1.5400  1.3878  0.6651
15415SOL    HW250034   4.067   6.005   4.014 -0.0018  2.5934 -0.5564
15416SOL     OW50035   2.993   9.938   6.779  0.2712  0.7989 -0.1076
15416SOL    HW150036   2.899   9.924   6.769  0.5481 -1.2795 -0.2402
15416SOL    HW250037   3.006   9.951   6.872  0.0990 -1.6776  0.3371
15417SOL     OW50038   6.071  10.311   8.807  0.7619 -0.0423  0.0472
15417SOL    HW150039   6.122  10.233   8.789  0.7239 -0.1782  0.5282
15417SOL    HW250040   6.067  10.316   8.902  0.1486  0.1407  0.0162
15418SOL     OW50041   7.486   7.627   2.261 -0.0356 -0.2783  0.2170
15418SOL    HW150042   7.436   7.570   2.202 -0.9269  0.5996  0.0980
15418SOL    HW250043   7.472   7.589   2.348 -0.0164 -0.6694  0.0524
15419SOL     OW50044   8.967   4.624   4.764 -0.4762  0.1247  0.0043
15419SOL    HW150045   8.913   4.566   4.817  0.1153 -0.0754  0.4056
15419SOL    HW250046   9.055   4.615   4.801 -0.0989  0.1837 -0.8551
15420SOL     OW50047   0.041   1.060   6.009  0.2199  0.1183 -0.1110
15420SOL    HW150048   0.098   1.047   6.085  0.2044  0.8866  0.0356
15420SOL    HW250049  -0.025   1.123   6.039  1.1492  1.6938 -1.2283
15421SOL     OW50050  10.048   2.291   3.202  1.0409 -0.6223 -0.4373
15421SOL    HW150051  10.142   2.305   3.213  0.9266 -0.9174  1.0460
15421SOL    HW250052  10.033   2.200   3.226  0.2477 -0.3103  0.3339
15422SOL     OW50053   3.985   8.216   9.226 -0.0189 -0.3029 -0.5251
15422SOL    HW150054   4.004   8.274   9.299  0.8443  0.2708 -1.1903
15422SOL    HW250055   3.949   8.137   9.266  0.0715  0.1633  0.4809
15423SOL     OW50056   9.786   0.706   1.319 -0.4240 -0.1742  0.0675
15423SOL    HW150057   9.833   0.681   1.239 -0.2080 -0.7959  0.3803
15423SOL    HW250058   9.783   0.626   1.371 -0.4615  0.2495  0.7324
15424SOL     OW50059   1.901   0.725   4.702 -0.0626  0.3893 -0.9440
15424SOL    HW150060   1.930   0.799   4.648  0.0202 -1.6841 -3.9948
15424SOL    HW250061   1.807   0.721   4.689 -0.3507  0.9970  0.7234
15425SOL     OW50062   6.030   4.514   2.343 -0.0049 -0.1430  0.1710
15425SOL    HW150063   5.953   4.463   2.318 -1.1338  1.1422  0.8499
15425SOL    HW250064   6.065   4.469   2.420 -2.2138  1.1350  2.0592
15426SOL     OW50065   6.567   4.184  10.131 -0.2126 -0.2599 -0.2637
15426SOL    HW150066   6.522   4.268  10.126 -0.7373 -0.6017 -1.7838
15426SOL    HW250067   6.565   4.150  10.042  2.2853 -0.7241 -0.2309
15427SOL     OW50068   8.012   3.974   7.049  0.3420  0.1004 -0.2455
15427SOL    HW150069   8.000   4.061   7.012 -1.3225 -0.4910 -1.1772
15427SOL    HW250070   7.947   3.969   7.120  0.1433 -0.5150 -0.4632
15428SOL     OW50071   5.068   6.027   7.973  0.1281 -0.8663 -0.2346
15428SOL    HW150072   5.162   6.029   7.956  0.0222 -1.0899 -0.8715
15428SOL    HW250073   5.059   5.967   8.048  0.5078 -0.6708 -0.0252
15429SOL     OW50074   7.056   4.178   5.729 -0.2660 -0.7762  0.3113
15429SOL    HW150075   6.961   4.179   5.723 -0.3869 -0.8093  1.9510
15429SOL    HW250076   7.082   4.270   5.730 -0.3333 -0.7616  0.6244
15430SOL     OW50077   3.240   2.824   0.211  0.3083 -0.2376  0.1550
15430SOL    HW150078   3.291   2.743   0.209  1.2863  0.3487  0.5237
15430SOL    HW250079   3.151   2.796   0.233  0.4340 -1.2993 -0.6285
15431SOL     OW50080   9.333   3.376   1.581  0.6366  0.0971 -0.0395
15431SOL    HW150081   9.293   3.446   1.633  1.2215 -0.0214  0.5958
15431SOL    HW250082   9.281   3.298   1.602 -0.5396  0.4849 -1.3939
15432SOL     OW50083   8.766   4.045   0.838  0.1694  0.4914  0.1288
15432SOL    HW150084   8.817   4.125   0.825 -0.8791  1.0413 -0.7869
15432SOL    HW250085   8.806   4.004   0.914  0.2194  2.3061  1.1516
15433SOL     OW50086   6.943   4.172   3.137  0.7004 -0.1707  0.1581
15433SOL    HW150087   6.945   4.211   3.225  0.0260 -1.0774  0.5953
15433SOL    HW250088   6.994   4.092   3.145  0.4883 -0.3467 -0.2327
15434SOL     OW50089   9.767   4.148   2.233 -0.1692 -0.9162  0.1825
15434SOL    HW150090   9.790   4.137   2.325  1.5354  1.2724  0.1060
15434SOL    HW250091   9.688   4.201   2.233  0.3770 -0.0809  0.4139
15435SOL     OW50092   6.221   6.737   8.027 -0.1115 -0.4626  0.6052
15435SOL    HW150093   6.256   6.662   7.980  0.4207 -0.2984  0.7373
15435SOL    HW250094   6.255   6.728   8.116 -0.2780 -0.2160  0.6961
15436SOL     OW50095   7.738   3.738   5.927 -0.0762  0.1195  0.0611
15436SOL    HW150096   7.645   3.758   5.942  0.2496  2.1574 -0.3356
15436SOL    HW250097   7.783   3.783   5.998  0.6463 -0.6143  0.0759
15437SOL     OW50098   0.778   4.520  10.120  0.0703  0.0238  0.1486
15437SOL    HW150099   0.731   4.447  10.081  1.2984 -1.5417  1.4117
15437SOL    HW250100   0.771   4.505  10.215 -0.4896  2.1309  0.4920
15438SOL     OW50101   0.623   7.308   7.348  0.2755  0.0325 -0.0765
15438SOL    HW150102   0.644   7.310   7.255  2.0331 -0.6790  0.2680
15438SOL    HW250103   0.704   7.280   7.391 -0.2732  1.0137  1.7397
15439SOL     OW50104   3.908   0.439   4.494  0.5740  0.1671  0.3618
15439SOL    HW150105   3.842   0.372   4.505 -0.0694  0.9397  1.4308
15439SOL    HW250106   3.980   0.395   4.449 -0.0828 -1.0521  0.4679
15440SOL     OW50107   3.736   1.040   6.061 -0.0029  0.3853  0.4780
15440SOL    HW150108   3.730   1.136   6.054  1.5802  0.4677 -0.3781
15440SOL    HW250109   3.830   1.024   6.070 -0.3368 -1.0509  1.6022
15441SOL     OW50110   9.760   4.780   0.691 -0.2095 -0.1410  0.0367
15441SOL    HW150111   9.684   4.737   0.651  0.4907 -0.4819 -0.9674
15441SOL    HW250112   9.723   4.852   0.742 -1.3396 -1.3480  0.9860
15442SOL     OW50113   7.284   3.220   5.935  0.4498  0.3522  0.6502
15442SOL    HW150114   7.319   3.151   5.878  1.0198 -0.4824  1.9717
15442SOL    HW250115   7.217   3.177   5.987  1.7063  0.4053  2.4208
15443SOL     OW50116   3.091   5.069   7.265 -0.5425  0.6013  0.2314
15443SOL    HW150117   3.061   5.042   7.178  0.4497 -0.6183  0.2437
15443SOL    HW250118   3.177   5.110   7.249  0.2766 -0.8574  0.7601
15444SOL     OW50119   8.033   3.177   3.086  0.1724 -0.0870  0.1064
15444SOL    HW150120   8.013   3.113   3.154 -0.8741  0.1910  0.0828
15444SOL    HW250121   8.036   3.261   3.132  0.1160  0.0211 -0.0823
15445SOL     OW50122   7.489   2.797   6.942 -0.4149  0.2426  0.0086
15445SOL    HW150123   7.465   2.884   6.909 -1.0477 -0.2929 -0.9528
15445SOL    HW250124   7.532   2.754   6.868 -0.0042 -0.2329  0.5131
15446SOL     OW50125   8.451   6.242   6.801 -0.5041 -0.2731  0.2122
15446SOL    HW150126   8.474   6.335   6.798 -1.4159 -0.0138  0.8348
15446SOL    HW250127   8.406   6.226   6.718 -1.2943  0.1099  0.5614
15447SOL     OW50128   6.824   7.900   2.816  0.7968 -0.7789  0.5361
15447SOL    HW150129   6.880   7.965   2.859 -0.0184  0.6794 -0.5090
15447SOL    HW250130   6.735   7.928   2.837  0.4224 -1.3243 -0.2830
15448SOL     OW50131   7.344   0.336   8.988 -0.0895 -0.0634 -0.9603
15448SOL    HW150132   7.409   0.406   8.986 -0.4129  0.2505 -0.7130
15448SOL    HW250133   7.286   0.356   8.914 -0.6296  0.3771 -0.4340
15449SOL     OW50134   0.494   8.255   6.847  0.2422  0.0170  0.2251
15449SOL    HW150135   0.419   8.255   6.908  0.2562  1.6514  0.2905
15449SOL    HW250136   0.556   8.317   6.886  0.3722  0.8882 -1.2947
15450SOL     OW50137   3.124   6.807   0.701 -0.2294 -0.3378  0.4771
15450SOL    HW150138   3.097   6.725   0.661 -0.6816 -0.2819  0.6667
15450SOL    HW250139   3.102   6.797   0.794  3.2535 -1.5616  1.3266
15451SOL     OW50140   4.950   2.551   7.288 -0.5346  0.4458  0.3233
15451SOL    HW150141   4.878   2.584   7.235 -0.6024  3.2477  1.9716
15451SOL    HW250142   4.912   2.481   7.340 -0.6030 -1.9746 -2.7163
15452SOL     OW50143   9.581   8.490   6.729  0.3056  0.6105  0.4612
15452SOL    HW150144   9.564   8.420   6.792  1.7666  1.7512  2.1926
15452SOL    HW250145   9.576   8.571   6.780  0.9724  1.6164 -0.9976
15453SOL     OW50146   6.962   2.944   5.724 -0.0928 -0.1548  0.4064
15453SOL    HW150147   7.027   2.941   5.795 -0.2651 -0.7084  0.5435
15453SOL    HW250148   6.985   2.870   5.668 -0.8326 -0.5741  0.6522
15454SOL     OW50149   8.212   2.815   3.670 -0.2574 -0.0877  0.3401
15454SOL    HW150150   8.188   2.900   3.635 -1.0141 -0.0223  0.9990
15454SOL    HW250151   8.285   2.834   3.729  1.0659 -0.2068 -1.1742
15455SOL     OW50152   7.954   0.510   7.807  0.0776  0.2212 -0.0353
15455SOL    HW150153   7.898   0.459   7.865  1.6880 -2.2709 -0.5058
15455SOL    HW250154   8.007   0.564   7.865 -0.2807 -0.1355  0.6321
15456SOL     OW50155   9.653   3.236   0.391  0.5688 -0.2709 -0.0481
15456SOL    HW150156   9.605   3.163   0.429 -0.2022  0.0304 -0.4246
15456SOL    HW250157   9.628   3.312   0.443 -0.2340  0.0842 -0.9330
15457SOL     OW50158   3.048   4.329   9.886  0.1822  0.0030 -0.0369
15457SOL    HW150159   3.083   4.290   9.806 -0.5852 -1.6003  0.3688
15457SOL    HW250160   3.115   4.393   9.912  0.5609  0.3840 -1.7959
15458SOL     OW50161   1.908  10.279   8.209  0.4861 -0.1590 -0.0266
15458SOL    HW150162   1.983  10.325   8.170 -0.0173  1.3563  0.6973
15458SOL    HW250163   1.868  10.232   8.136  1.7756 -0.4968 -0.5465
15459SOL     OW50164   6.721   4.537   4.805  0.1594  0.3124  0.0895
15459SOL    HW150165   6.742   4.444   4.813 -2.6758 -0.2853  2.5197
15459SOL    HW250166   6.767   4.566   4.727  1.1503 -3.1253 -0.7509
15460SOL     OW50167   9.615   7.065   4.284 -0.2825  0.2978  0.0536
15460SOL    HW150168   9.527   7.094   4.308  0.2744  1.7661  0.4296
15460SOL    HW250169   9.668   7.084   4.361  0.5242  0.2051 -0.4730
15461SOL     OW50170   2.414   8.702   3.732 -0.2427 -0.0506  0.1018
15461SOL    HW150171   2.422   8.795   3.712 -0.2260 -0.1037 -0.1449
15461SOL    HW250172   2.504   8.670   3.736 -0.2602 -0.6108 -2.4764
15462SOL     OW50173   6.623   2.838   5.693  0.1653 -0.2661 -0.7122
15462SOL    HW150174   6.537   2.840   5.649 -0.6413 -1.3291  0.7541
15462SOL    HW250175   6.624   2.756   5.740  2.0251 -0.2636 -0.6810
15463SOL     OW50176   2.892   3.027   6.176 -0.1987 -1.0421  0.0122
15463SOL    HW150177   2.852   3.110   6.204  0.6166 -0.4306 -0.5656
15463SOL    HW250178   2.844   2.960   6.223 -1.8682 -0.3417 -0.6072
15464SOL     OW50179   9.933   3.522   2.078  0.0774  0.2970  0.5171
15464SOL    HW150180   9.977   3.575   2.012  0.6548  0.6962  1.2085
15464SOL    HW250181   9.884   3.585   2.131 -3.7997 -0.3258 -1.9375
15465SOL     OW50182   6.455   8.630  10.220 -0.3798 -0.4175 -0.1403
15465SOL    HW150183   6.394   8.644  10.293 -0.1602 -0.0253 -0.0282
15465SOL    HW250184   6.541   8.624  10.262 -0.0859  1.0949 -0.4583
15466SOL     OW50185   8.589   5.011   4.209  0.3561  0.3161 -0.1554
15466SOL    HW150186   8.503   5.027   4.170  1.4207  0.5288 -2.6290
15466SOL    HW250187   8.622   4.934   4.162  0.3817 -1.6690  2.8326
15467SOL     OW50188   7.058   2.320   8.535  0.1477 -0.6949 -0.2346
15467SOL    HW150189   6.969   2.292   8.514  0.3937 -0.9544 -0.9820
15467SOL    HW250190   7.084   2.374   8.460  1.6000 -2.8652 -1.3903
15468SOL     OW50191   5.179   6.507   4.132 -0.1431  0.1529  0.0623
15468SOL    HW150192   5.089   6.517   4.104  0.3435  3.3479 -0.7367
15468SOL    HW250193   5.209   6.426   4.090 -1.9673  0.2302 -1.5069
15469SOL     OW50194   4.733   5.225   0.700  0.4294 -0.4935  0.3060
15469SOL    HW150195   4.774   5.206   0.784  0.4809  0.1212  0.4269
15469SOL    HW250196   4.673   5.298   0.718 -0.8376 -1.4783  0.1535
15470SOL     OW50197   2.799   7.276   1.466  0.1906  0.1671 -0.1269
15470SOL    HW150198   2.869   7.330   1.429  0.6001 -1.4657 -1.8570
15470SOL    HW250199   2.748   7.247   1.391 -2.2915  1.1183  1.0692
15471SOL     OW50200   0.384  10.132   2.927  0.5789  0.1316 -0.3468
15471SOL    HW150201   0.384  10.227   2.943  2.0876 -0.1064  1.3688
15471SOL    HW250202   0.310  10.098   2.977 -0.5148  0.4575 -1.6734
15472SOL     OW50203   2.598   3.116   1.550  0.4388  0.3315  0.5526
15472SOL    HW150204   2.615   3.146   1.640  0.7905  1.8222  0.0140
15472SOL    HW250205   2.534   3.045   1.560 -0.7153  1.5101  1.8680
15473SOL     OW50206   9.394  10.297   1.895  0.2674 -0.1281 -0.1554
15473SOL    HW150207   9.399  10.391   1.908 -0.9151  0.2763 -2.3092
15473SOL    HW250208   9.304  10.274   1.918  0.0001 -0.4044 -1.4197
15474SOL     OW50209   1.764   8.147   0.850  0.0988 -0.2480 -0.0640
15474SOL    HW150210   1.843   8.093   0.851 -0.1415 -0.6275  1.4250
15474SOL    HW250211   1.693   8.085   0.866 -0.2468  0.3994  0.9844
15475SOL     OW50212   4.039   0.399   8.365 -0.2707  0.0697  0.3558
15475SOL    HW150213   4.076   0.487   8.370 -0.0210 -0.0922  1.8899
15475SOL    HW250214   4.115   0.341   8.374 -0.5096 -0.3011  0.0236
15476SOL     OW50215   8.015   8.975   8.865  0.5170 -0.0895 -0.1199
15476SOL    HW150216   7.983   9.009   8.948  1.4075  0.7803 -0.1123
15476SOL    HW250217   7.952   9.005   8.800  0.4507  0.2394  0.0933
15477SOL     OW50218   2.336   8.198   5.227 -0.7437 -0.5606 -0.0656
15477SOL    HW150219   2.293   8.112   5.229  0.6619 -1.3461  2.9720
15477SOL    HW250220   2.286   8.251   5.289 -1.4735  0.8178 -1.7681
15478SOL     OW50221   2.641   8.056   3.133  0.0702 -0.2076 -0.6211
15478SOL    HW150222   2.562   8.100   3.102 -0.7773  0.3428  2.0091
15478SOL    HW250223   2.623   7.963   3.120 -1.7437 -0.2062  1.2711
15479SOL     OW50224   3.336   4.588   8.171 -0.0336  0.2282 -0.0296
15479SOL    HW150225   3.330   4.649   8.245 -1.6237 -0.0043  0.0616
15479SOL    HW250226   3.250   4.593   8.130  0.1331 -1.2612 -0.5869
15480SOL     OW50227   8.073  10.045   9.934  0.7129  0.5148 -0.3067
15480SOL    HW150228   8.147  10.077   9.986  1.0691 -0.6570 -0.0599
15480SOL    HW250229   8.051  10.117   9.876  1.4439  1.2181  0.2758
15481SOL     OW50230   7.674   9.096   0.498  0.2858  0.0408  0.2526
15481SOL    HW150231   7.667   9.178   0.449  2.8741 -0.2161 -0.6924
15481SOL    HW250232   7.644   9.029   0.436 -0.3304  0.0865  0.4878
15482SOL     OW50233   8.873   6.859   8.418  0.1896  0.9058  0.1593
15482SOL    HW150234   8.853   6.818   8.334  0.6170 -1.4803  1.1508
15482SOL    HW250235   8.968   6.869   8.419  0.7067 -2.6496  1.7558
15483SOL     OW50236   4.747   4.675   4.581  0.4833 -0.1760  0.1662
15483SOL    HW150237   4.673   4.720   4.541  1.6102 -1.0882 -3.2822
15483SOL    HW250238   4.811   4.745   4.596  0.0912  0.1645  0.2921
15484SOL     OW50239   5.678   7.955   9.753 -0.0130  0.3888 -0.0879
15484SOL    HW150240   5.741   7.995   9.694  2.3305 -0.1211  1.9050
15484SOL    HW250241   5.615   8.025   9.771  1.2853  1.6826 -0.3709
15485SOL     OW50242   3.051   8.771   8.937 -0.0875  0.0545 -0.2934
15485SOL    HW150243   3.096   8.688   8.920 -2.9283 -1.6443 -0.1295
15485SOL    HW250244   3.084   8.800   9.022 -1.1712 -2.5832  1.1525
15486SOL     OW50245   7.227   0.049   1.223  0.3122  0.8342  0.2127
15486SOL    HW150246   7.211   0.102   1.145 -3.1776  0.5834  0.5843
15486SOL    HW250247   7.321   0.031   1.222  0.6813  2.3685 -2.8956
15487SOL     OW50248   6.908   2.338   9.981 -0.7731  0.1170  0.1222
15487SOL    HW150249   6.964   2.270  10.019 -0.2366  1.2183  1.4086
15487SOL    HW250250   6.950   2.420  10.007 -1.5258  0.9645 -1.1900
15488SOL     OW50251   9.294   8.649   2.957  0.2826 -0.4451  0.3617
15488SOL    HW150252   9.314   8.731   3.002 -0.1708  0.2848 -0.7381
15488SOL    HW250253   9.354   8.647   2.883 -0.3455 -0.6357 -0.1510
15489SOL     OW50254   5.342   3.478   6.905 -0.2842  0.0619  0.1021
15489SOL    HW150255   5.314   3.493   6.815  1.3343  0.0844 -0.4296
15489SOL    HW250256   5.390   3.395   6.903  1.3071  0.9152  0.5282
15490SOL     OW50257  10.236   1.062  10.049 -0.4559 -0.2075 -0.2235
15490SOL    HW150258  10.269   1.044   9.961  1.3101  1.2430  0.0699
15490SOL    HW250259  10.148   1.096  10.035  0.3561  1.4939 -1.6229
15491SOL     OW50260   4.371   3.737   9.103  0.1682  0.0792  0.0384
15491SOL    HW150261   4.395   3.735   9.195  1.6354 -1.5976 -0.3201
15491SOL    HW250262   4.281   3.771   9.102  0.0585 -0.0417  2.0774
15492SOL     OW50263   1.689   8.111   2.157  0.3800  0.2917  0.2025
15492SOL    HW150264   1.735   8.179   2.108  0.3243  0.3573  0.2400
15492SOL    HW250265   1.628   8.160   2.212 -0.3890  0.1612 -0.5201
15493SOL     OW50266   1.795   5.858   5.554  0.1719 -0.2893  0.4034
15493SOL    HW150267   1.853   5.838   5.481  0.2235  0.7520  0.1418
15493SOL    HW250268   1.848   5.845   5.633 -0.2609 -2.7498  0.3820
15494SOL     OW50269   7.442   6.833   5.505 -0.6832  0.1333  0.2850
15494SOL    HW150270   7.528   6.856   5.469 -0.5807  0.4197  0.7073
15494SOL    HW250271   7.397   6.917   5.515 -0.5622  0.1027  1.1832
15495SOL     OW50272   3.062   7.759   5.686  0.7353 -0.4728 -0.0350
15495SOL    HW150273   3.039   7.852   5.684  0.2365 -0.5872 -1.7609
15495SOL    HW250274   2.991   7.716   5.639  1.1956 -1.6671  0.3259
15496SOL     OW50275   4.086   2.472   5.638 -0.1716 -0.7326  0.9467
15496SOL    HW150276   4.169   2.483   5.686 -0.3771  0.2512  1.0992
15496SOL    HW250277   4.023   2.448   5.706 -0.0374 -1.3883  0.8447
15497SOL     OW50278   0.550   2.471   2.922 -0.5607  0.0766  0.5041
15497SOL    HW150279   0.632   2.495   2.966 -0.4582  0.4382  0.1223
15497SOL    HW250280   0.511   2.405   2.979  0.2689 -0.5110  0.4109
15498SOL     OW50281   6.313   8.364   7.504 -0.2739 -0.0645 -0.5179
15498SOL    HW150282   6.233   8.311   7.505 -0.9783  0.8586 -2.5507
15498SOL    HW250283   6.384   8.301   7.514 -1.1427 -1.2462 -1.4850
15499SOL     OW50284   7.689   4.403   6.822 -0.4283 -0.1037  0.0024
15499SOL    HW150285   7.670   4.406   6.916  1.7536 -1.0664  0.5200
15499SOL    HW250286   7.665   4.491   6.791  0.6426  0.9080  1.8493
15500SOL     OW50287   1.672   3.468   7.897 -0.4665  0.0104  0.0208
15500SOL    HW150288   1.736   3.437   7.962  0.2463  2.7091  0.7298
15500SOL    HW250289   1.591   3.477   7.946  0.0105  1.8033  0.5667
15501SOL     OW50290   6.852   6.798   1.263  0.1503  0.1065 -0.1089
15501SOL    HW150291   6.807   6.871   1.221  0.3155  1.3569  1.7501
15501SOL    HW250292   6.918   6.771   1.199 -0.1930  1.3017 -1.0195
15502SOL     OW50293   6.496   4.386   9.688  0.1369 -1.2143  0.1886
15502SOL    HW150294   6.494   4.290   9.691  1.1789 -1.2251  1.0788
15502SOL    HW250295   6.502   4.407   9.595 -1.2499 -1.9622 -0.1065
15503SOL     OW50296   1.263   6.962   6.811  0.1333  0.6309 -0.4289
15503SOL    HW150297   1.318   6.912   6.871  0.5365  1.4477 -0.1025
15503SOL    HW250298   1.241   6.900   6.741  1.3466  0.2407 -0.4930
15504SOL     OW50299   0.326   8.246   1.916 -0.3226  0.0633  0.5172
15504SOL    HW150300   0.273   8.244   1.995 -0.5287 -2.4704  0.3975
15504SOL    HW250301   0.414   8.271   1.946 -0.6006  0.0018  1.4068
15505SOL     OW50302   7.567   8.732   1.485 -0.3206 -0.2278 -0.0726
15505SOL    HW150303   7.506   8.803   1.468  0.3051 -0.1169 -2.0887
15505SOL    HW250304   7.629   8.768   1.548 -1.4976  0.0931  0.9580
15506SOL     OW50305   5.028   7.479   9.172  0.1007 -0.3380 -0.5422
15506SOL    HW150306   5.060   7.482   9.262 -3.1232  1.5216  0.7423
15506SOL    HW250307   4.956   7.416   9.175 -0.1828 -0.1043 -1.7789
15507SOL     OW50308   1.858   8.160   9.528 -0.4212  0.2518 -0.0504
15507SOL    HW150309   1.812   8.161   9.444  0.5939 -1.9043 -0.7281
15507SOL    HW250310   1.790   8.174   9.594 -1.8050 -1.1366 -1.1051
15508SOL     OW50311   5.773   1.745   3.083  0.6472 -0.1977  0.0345
15508SOL    HW150312   5.832   1.818   3.105  1.4112 -0.7759 -0.0590
15508SOL    HW250313   5.786   1.682   3.153 -0.7096  0.1426  0.6144
15509SOL     OW50314   0.536   6.801   9.492 -0.2096  0.6187  0.2101
15509SOL    HW150315   0.441   6.805   9.507 -0.1535 -1.4548  1.3974
15509SOL    HW250316   0.545   6.750   9.412 -0.0902  0.6292  0.2174
15510SOL     OW50317   1.740   0.328  10.041  0.9044 -0.1257 -0.8829
15510SOL    HW150318   1.764   0.329   9.948 -2.8127 -0.3587 -2.0227
15510SOL    HW250319   1.658   0.279  10.043  1.2075 -0.6912  2.6785
15511SOL     OW50320   9.725   7.218   4.906 -0.3145 -0.3108  0.4140
15511SOL    HW150321   9.654   7.276   4.933 -0.1202  0.3631 -0.4501
15511SOL    HW250322   9.712   7.138   4.956 -1.2701  0.0630  0.7825
15512SOL     OW50323   0.177   9.004  10.182  0.1235 -0.0726  0.2286
15512SOL    HW150324   0.149   9.095  10.170  1.1114  0.3514  1.0098
15512SOL    HW250325   0.224   9.004  10.266  1.6292 -0.9408 -0.5780
15513SOL     OW50326   7.054   9.917   1.311  0.8077 -0.3396 -0.0400
15513SOL    HW150327   7.050   9.906   1.406 -0.5757  0.6539  0.0529
15513SOL    HW250328   7.100   9.999   1.298  1.1978 -0.5886 -0.2470
15514SOL     OW50329   6.978   0.620   1.075 -0.5711 -0.3753  0.1910
15514SOL    HW150330   7.022   0.703   1.058 -1.0011 -0.0220  0.7641
15514SOL    HW250331   6.934   0.633   1.159 -0.2520 -1.3443  0.5221
15515SOL     OW50332   1.969   6.875   3.701 -0.3173 -0.5641 -0.0172
15515SOL    HW150333   2.049   6.862   3.650 -0.4468  2.6671 -1.2356
15515SOL    HW250334   1.999   6.889   3.790  0.1725 -2.5777  0.1893
15516SOL     OW50335   0.851   2.748   6.732  0.0055  0.3219 -0.2728
15516SOL    HW150336   0.906   2.775   6.805 -2.3387  1.9737  1.0290
15516SOL    HW250337   0.912   2.714   6.666  2.3568  0.5193  1.6825
15517SOL     OW50338   7.589   3.993   9.793  0.4127  0.2180 -0.2467
15517SOL    HW150339   7.591   3.932   9.867 -0.5610  3.0886  2.3966
15517SOL    HW250340   7.496   3.999   9.771  0.5197  0.6140 -0.5807
15518SOL     OW50341   4.649   6.090   7.759  0.4622 -0.2272 -0.1091
15518SOL    HW150342   4.708   6.044   7.699  1.8537  0.0553  1.0043
15518SOL    HW250343   4.703   6.111   7.835 -0.5661  1.7543  0.1382
15519SOL     OW50344   5.107  10.328   2.287 -0.8577  0.0545 -0.2188
15519SOL    HW150345   5.127  10.235   2.297 -1.4264 -0.0278  0.2452
15519SOL    HW250346   5.182  10.364   2.240 -1.2268 -0.8842 -1.6001
15520SOL     OW50347   6.868   1.232   4.455  0.6004  0.1283  0.2077
15520SOL    HW150348   6.935   1.293   4.485  0.4164 -0.4620  1.9432
15520SOL    HW250349   6.792   1.287   4.436  0.5559  0.4864  1.3812
15521SOL     OW50350   5.223   0.296   2.061  0.3059 -0.1841  0.6591
15521SOL    HW150351   5.266   0.214   2.088  1.4434  0.1127 -0.1642
15521SOL    HW250352   5.278   0.365   2.100  0.8144  0.2101 -0.7080
15522SOL     OW50353   8.308   9.772   7.757  0.6053 -0.1545 -0.2923
15522SOL    HW150354   8.280   9.795   7.846 -0.8720 -1.9222 -0.2597
15522SOL    HW250355   8.403   9.759   7.766  0.6287  0.5412  0.8076
15523SOL     OW50356   7.110   5.435   6.340 -0.1524 -0.2494  0.0677
15523SOL    HW150357   7.037   5.462   6.285  0.9143  0.3192 -1.1373
15523SOL    HW250358   7.071   5.412   6.424 -1.4223  3.1270  0.5723
15524SOL     OW50359   3.672   7.778   3.826 -0.0379  0.0752 -0.3754
15524SOL    HW150360   3.693   7.694   3.785 -1.1615 -0.1022 -0.6120
15524SOL    HW250361   3.673   7.840   3.754  0.3467  0.1897 -0.2732
15525SOL     OW50362  10.023   2.095   6.182  0.1049  0.6279 -0.7184
15525SOL    HW150363  10.108   2.138   6.174  0.5551 -0.3851 -1.4340
15525SOL    HW250364   9.975   2.122   6.103 -1.0457  2.8506  0.6150
15526SOL     OW50365   7.609   9.815   8.306 -0.2640  0.2379  0.1125
15526SOL    HW150366   7.684   9.872   8.325  1.2026 -0.8432 -2.0699
15526SOL    HW250367   7.640   9.756   8.237 -2.6693 -1.2598  0.1959
15527SOL     OW50368   4.007   3.700   8.819  0.2447  0.5224 -0.8081
15527SOL    HW150369   4.072   3.647   8.866 -1.6768 -3.3282 -2.0896
15527SOL    HW250370   4.056   3.741   8.749  1.7985  0.1934  0.0363
15528SOL     OW50371  10.057   7.027   0.491 -0.2705 -0.5077  0.0637
15528SOL    HW150372  10.059   7.072   0.576 -1.1091  0.4600 -0.3982
15528SOL    HW250373  10.127   6.962   0.496 -0.7907 -0.9923  1.7834
15529SOL     OW50374   8.327   9.193   6.742 -0.2798  0.1967  0.5884
15529SOL    HW150375   8.340   9.282   6.707 -0.9615 -0.2295 -0.8228
15529SOL    HW250376   8.410   9.172   6.784  0.5460  0.8170 -0.6534
15530SOL     OW50377   4.723   5.492   9.649  0.1342  0.1676 -0.1663
15530SOL    HW150378   4.711   5.417   9.590  2.0260 -1.1005  0.9501
15530SOL    HW250379   4.818   5.498   9.661 -0.0903  1.6926  1.1181
15531SOL     OW50380   7.587   7.100   1.487 -0.3814 -0.0700  0.4666
15531SOL    HW150381   7.595   7.048   1.567  2.5845 -0.7915 -0.1655
15531SOL    HW250382   7.553   7.040   1.422 -0.1748 -0.2756  0.5472
15532SOL     OW50383   6.837   9.355   4.455 -0.4647 -0.0791 -0.0625
15532SOL    HW150384   6.884   9.350   4.539 -0.1260  0.9047 -0.1806
15532SOL    HW250385   6.906   9.376   4.391 -0.9933  1.0286 -0.2953
15533SOL     OW50386   7.805   7.902   4.180  0.1037  0.1305  0.5571
15533SOL    HW150387   7.718   7.896   4.219 -0.4924 -0.2110 -0.7771
15533SOL    HW250388   7.789   7.915   4.086  1.4883  0.2406  0.3097
15534SOL     OW50389   1.634   2.697   3.048 -0.3668  0.2829  0.1968
15534SOL    HW150390   1.649   2.778   3.000 -0.9251  0.0770 -0.3478
15534SOL    HW250391   1.696   2.699   3.121  1.5855 -0.1034 -1.3831
15535SOL     OW50392   9.718   3.208   3.280 -0.5366 -0.0893 -0.4331
15535SOL    HW150393   9.729   3.194   3.373  1.2528  1.4500 -0.3573
15535SOL    HW250394   9.671   3.130   3.249 -0.4488 -1.0014  1.5844
15536SOL     OW50395   5.531   2.409   5.867  0.1350 -0.4286  0.5204
15536SOL    HW150396   5.467   2.358   5.918  0.8937 -0.7777  1.1417
15536SOL    HW250397   5.593   2.441   5.933 -0.2991  1.2822  0.1444
15537SOL     OW50398   2.525   6.774   0.145  0.3582  0.2534  0.5429
15537SOL    HW150399   2.461   6.825   0.096  1.4372  1.3493  0.2217
15537SOL    HW250400   2.566   6.838   0.204  2.6140  0.0656 -0.7418
15538SOL     OW50401   6.363   0.777   2.331  0.0409 -0.5301  0.1159
15538SOL    HW150402   6.442   0.771   2.385  1.3601 -0.9506 -1.7459
15538SOL    HW250403   6.343   0.687   2.308  0.7253 -0.2500 -1.7128
15539SOL     OW50404   2.387   1.081   5.943 -0.0015  0.0645  0.2806
15539SOL    HW150405   2.439   1.155   5.911  1.3186 -0.6184  0.7982
15539SOL    HW250406   2.436   1.004   5.917  0.0021 -0.5639  2.0372
15540SOL     OW50407   0.955   4.756   0.516 -0.4501  0.3848  0.3866
15540SOL    HW150408   0.913   4.782   0.599 -1.3288 -0.4597  0.2344
15540SOL    HW250409   0.896   4.688   0.481  0.2312  0.3134 -0.6348
15541SOL     OW50410   4.548   9.945   3.041 -0.5372  0.3718 -0.1770
15541SOL    HW150411   4.506   9.912   3.120  2.3989 -1.5883  0.7099
15541SOL    HW250412   4.582   9.867   2.997 -2.6445  1.2719 -3.8952
15542SOL     OW50413   7.986   7.396   5.842 -0.5164 -0.0638 -0.2383
15542SOL    HW150414   8.021   7.477   5.879 -1.5206 -0.0141  0.6681
15542SOL    HW250415   7.944   7.423   5.760 -0.4016  0.2480 -0.1970
15543SOL     OW50416   3.795   5.364   8.930  0.2298  0.6298 -0.1924
15543SOL    HW150417   3.714   5.364   8.981  0.6916  1.1787  0.5599
15543SOL    HW250418   3.826   5.455   8.935  0.5192  0.5853 -1.0732
15544SOL     OW50419   4.058   4.102   4.929  0.1136  0.0715  0.6951
15544SOL    HW150420   4.108   4.030   4.891  0.8364  1.0366 -0.2552
15544SOL    HW250421   4.069   4.174   4.867 -2.8270  0.2229  0.1911
15545SOL     OW50422   1.070   2.759   2.018 -0.0246 -0.7245 -0.2134
15545SOL    HW150423   1.053   2.795   2.105  0.3146 -3.3963  1.0374
15545SOL    HW250424   1.161   2.730   2.020  0.5423  0.6904 -2.0963
15546SOL     OW50425   2.000   1.611   8.492 -0.2353 -0.0739  0.0442
15546SOL    HW150426   2.052   1.532   8.479  1.3452  1.0959 -1.1530
15546SOL    HW250427   1.965   1.602   8.581 -0.8876 -2.5196 -0.3977
15547SOL     OW50428   2.676   9.920   4.795  0.2875 -0.1295 -0.1498
15547SOL    HW150429   2.672  10.016   4.786  2.8745  0.0464 -0.0932
15547SOL    HW250430   2.586   9.895   4.815 -0.4674  2.2914 -0.1023
15548SOL     OW50431   6.944   3.499   8.052  0.3947  0.3522 -0.0297
15548SOL    HW150432   6.898   3.579   8.077  0.8312  0.7443 -0.4656
15548SOL    HW250433   6.960   3.508   7.958  0.9061 -0.0131  0.0181
15549SOL     OW50434   1.444   1.110   6.133  0.1131 -0.7702 -0.3178
15549SOL    HW150435   1.381   1.042   6.156  0.0392 -0.0953  1.6798
15549SOL    HW250436   1.422   1.184   6.190  0.9652  0.4937 -1.5495
15550SOL     OW50437   8.804   3.307   4.092 -0.0994  0.0061  0.5199
15550SOL    HW150438   8.721   3.331   4.049 -0.5716 -1.8913  0.2867
15550SOL    HW250439   8.815   3.374   4.159 -0.3394  1.9456 -1.2521
15551SOL     OW50440   0.654   3.295   9.192 -0.1845 -0.6494  0.6417
15551SOL    HW150441   0.734   3.272   9.238 -0.3672  0.9878  1.8506
15551SOL    HW250442   0.645   3.390   9.203 -2.3310 -0.7904  0.6273
15552SOL     OW50443   3.552   6.652   4.103  0.5622  0.0030  0.2264
15552SOL    HW150444   3.459   6.633   4.113  0.5955  0.3261  1.2020
15552SOL    HW250445   3.555   6.742   4.071  0.5259 -0.3176 -0.7280
15553SOL     OW50446   6.159   8.032   2.107 -0.1941  0.2229 -0.6682
15553SOL    HW150447   6.066   8.039   2.088 -0.2849  0.4247 -0.1662
15553SOL    HW250448   6.195   8.118   2.083 -0.3400  0.5411  0.2108
15554SOL     OW50449   3.448   5.375   7.575  0.3007 -0.1363 -0.1526
15554SOL    HW150450   3.523   5.344   7.524  0.2878 -1.1920  0.4276
15554SOL    HW250451   3.403   5.436   7.518  0.7791 -0.6295 -1.0740
15555SOL     OW50452   5.025   9.603   1.381 -0.3652 -0.3761 -0.2589
15555SOL    HW150453   5.107   9.640   1.414  1.1743 -1.3810 -2.7012
15555SOL    HW250454   4.977   9.678   1.345  1.1637 -0.1811 -2.0432
15556SOL     OW50455   8.765   5.337   3.151  0.2676 -0.5105 -0.1851
15556SOL    HW150456   8.739   5.306   3.064 -1.8758  0.5797 -0.0047
15556SOL    HW250457   8.854   5.370   3.139 -0.5871  1.2142 -2.4430
15557SOL     OW50458   9.753   8.117   0.387  0.0804  0.0874  1.1754
15557SOL    HW150459   9.742   8.145   0.296  3.5030 -0.5934  0.4233
15557SOL    HW250460   9.783   8.026   0.381  1.2970  0.3221  2.8996
15558SOL     OW50461   2.568   7.053   6.602 -0.3505 -0.3796 -0.0600
15558SOL    HW150462   2.545   7.014   6.686  1.5500 -2.2912 -0.3718
15558SOL    HW250463   2.528   6.995   6.537 -1.6696  0.9950 -0.5364
15559SOL     OW50464   3.547   6.111   9.658  0.0477 -0.5760 -0.1065
15559SOL    HW150465   3.565   6.155   9.741 -0.7233 -1.5246  0.5813
15559SOL    HW250466   3.633   6.080   9.629  0.9688  2.8653 -1.5517
15560SOL     OW50467   3.301   3.147   2.688 -0.5640  0.0126 -0.0575
15560SOL    HW150468   3.234   3.206   2.653  0.2937  0.8705 -0.3286
15560SOL    HW250469   3.288   3.065   2.641 -1.2362  0.2594 -0.3144
15561SOL     OW50470   9.031   9.989   1.957  0.0988  0.2686  0.3578
15561SOL    HW150471   8.954   9.959   2.006 -0.1284 -0.5181 -0.4463
15561SOL    HW250472   9.000   9.997   1.866  1.1246 -0.7992 -0.1234
15562SOL     OW50473   9.218   6.584   9.234 -0.2742 -0.2608  0.2055
15562SOL    HW150474   9.261   6.502   9.257  0.8681  0.0302 -0.8098
15562SOL    HW250475   9.249   6.605   9.146 -0.5180  1.2703  0.4435
15563SOL     OW50476   3.065   0.411   5.178 -0.1667 -0.0467  0.2828
15563SOL    HW150477   3.017   0.341   5.221  1.4591 -1.0741  0.5162
15563SOL    HW250478   3.027   0.418   5.091 -3.2780  1.8091  1.6210
15564SOL     OW50479   9.168   4.321   7.818  0.5599 -0.2364 -0.1947
15564SOL    HW150480   9.196   4.412   7.809  0.9636 -0.2126  1.0406
15564SOL    HW250481   9.082   4.325   7.858  0.1273 -0.3844 -1.0928
15565SOL     OW50482   4.490   5.648   1.626  0.0343 -0.3657 -0.2235
15565SOL    HW150483   4.487   5.664   1.531  1.4547  0.2278 -0.1891
15565SOL    HW250484   4.403   5.614   1.647 -0.8961  1.1092 -1.4555
15566SOL     OW50485   5.956   2.183   9.304 -0.4849 -0.0378  0.7850
15566SOL    HW150486   5.879   2.135   9.274  0.6131 -1.2038 -0.3162
15566SOL    HW250487   5.999   2.211   9.223  1.7185 -1.8631  1.2157
15567SOL     OW50488   0.719   1.998   3.157  0.0193  0.2940 -0.0795
15567SOL    HW150489   0.777   2.037   3.222 -0.9555  2.5420 -0.4621
15567SOL    HW250490   0.764   2.011   3.074  0.7268 -1.5292 -0.0237
15568SOL     OW50491   6.381   5.438   4.781 -0.2345  0.0968 -0.2469
15568SOL    HW150492   6.381   5.374   4.852  1.7313  0.8915  0.5207
15568SOL    HW250493   6.429   5.513   4.815  1.0293  0.3992 -2.4893
15569SOL     OW50494   3.779   1.089   7.978 -0.2218  0.0862 -0.2923
15569SOL    HW150495   3.874   1.101   7.977  0.0323 -1.6292 -0.6159
15569SOL    HW250496   3.762   1.036   8.056 -1.0140  0.9263  0.1277
15570SOL     OW50497   6.925   2.889   3.231 -0.5796  0.3366  0.2519
15570SOL    HW150498   6.921   2.813   3.289 -0.8722 -1.0626 -1.4884
15570SOL    HW250499   6.838   2.894   3.192  0.1781 -0.0818 -1.6000
15571SOL     OW50500   4.906   1.101   9.500 -0.0805 -0.3760 -0.4658
15571SOL    HW150501   4.855   1.135   9.573 -0.0252  2.9886 -1.7638
15571SOL    HW250502   4.991   1.078   9.538 -0.3841  0.3532  0.6905
15572SOL     OW50503   7.589   1.770  10.088 -0.0227  0.3593 -0.0828
15572SOL    HW150504   7.507   1.734  10.121 -0.2191  0.4389 -0.4721
15572SOL    HW250505   7.585   1.863  10.111  0.6011  0.1001  1.1520
15573SOL     OW50506   5.685   2.926   5.774  0.1253  0.1759  0.2293
15573SOL    HW150507   5.751   2.925   5.844  1.0918 -0.4596 -0.6691
15573SOL    HW250508   5.619   2.863   5.801 -0.0691  0.7316  1.0839
15574SOL     OW50509   5.748   5.669   2.376 -0.0573 -0.2980  0.6846
15574SOL    HW150510   5.668   5.688   2.328  0.8530  0.0468 -0.7425
15574SOL    HW250511   5.734   5.583   2.414 -1.3533  0.0410  1.0161
15575SOL     OW50512   8.610   1.434   8.631 -0.2953  0.9764  0.2972
15575SOL    HW150513   8.676   1.364   8.629 -0.1923  0.9097  2.7841
15575SOL    HW250514   8.534   1.393   8.672 -0.9322  1.8133 -0.0199
15576SOL     OW50515   3.324   6.248   6.925  0.8230 -0.1326  0.4546
15576SOL    HW150516   3.375   6.290   6.856 -0.3532  2.2376  0.9169
15576SOL    HW250517   3.387   6.194   6.973  2.3011  0.6279 -0.5539
15577SOL     OW50518   9.846   0.673   1.603  0.1581  0.2634  0.1683
15577SOL    HW150519   9.937   0.657   1.579 -0.2716 -0.4458 -1.1179
15577SOL    HW250520   9.809   0.721   1.528 -0.6658  0.0314  0.4105
15578SOL     OW50521   8.645   1.703   0.674  0.9904  0.4158 -0.2826
15578SOL    HW150522   8.635   1.748   0.590  0.6071 -2.0905 -1.7024
15578SOL    HW250523   8.557   1.706   0.713  0.1416 -1.6564 -1.8413
15579SOL     OW50524   0.740   7.198   7.934 -0.0523 -0.6358  0.7405
15579SOL    HW150525   0.775   7.135   7.872  0.4837  0.4395 -0.0883
15579SOL    HW250526   0.693   7.145   7.999 -1.0883 -1.7530 -0.8674
15580SOL     OW50527  10.021   4.912   8.797 -0.1250  0.0540 -0.4239
15580SOL    HW150528   9.981   4.928   8.882 -0.1358 -0.5818 -0.3048
15580SOL    HW250529   9.955   4.864   8.748  0.1134 -0.1224 -0.5770
15581SOL     OW50530   5.673   4.246   5.492  0.2076  0.3278  0.0635
15581SOL    HW150531   5.626   4.326   5.470 -0.0943  0.1187 -0.0587
15581SOL    HW250532   5.690   4.205   5.408  0.5724  0.3814  0.1116
15582SOL     OW50533   0.506   6.759   3.170  0.1852 -0.4468 -0.2122
15582SOL    HW150534   0.567   6.687   3.188 -2.1576 -3.1093 -2.0491
15582SOL    HW250535   0.559   6.823   3.123  1.9213 -1.9306 -0.4160
15583SOL     OW50536   9.142   0.228   8.423 -0.5756  0.1158 -0.4865
15583SOL    HW150537   9.157   0.316   8.457 -0.4923 -0.5695  1.3418
15583SOL    HW250538   9.091   0.242   8.343 -1.0814  1.7958  0.0857
15584SOL     OW50539   1.230   6.046   7.155  0.1852  0.0409 -0.9049
15584SOL    HW150540   1.288   5.994   7.210  0.3248  0.6955 -0.4204
15584SOL    HW250541   1.190   6.108   7.215 -0.6517 -0.0824 -1.3207
15585SOL     OW50542   0.393   0.115   6.134  0.3998 -0.5620 -0.2312
15585SOL    HW150543   0.450   0.043   6.107 -0.2982 -1.2578  0.1162
15585SOL    HW250544   0.347   0.141   6.054  0.9639 -0.2013 -0.4473
15586SOL     OW50545   5.322   3.288   2.248  0.4135 -0.0957  0.1347
15586SOL    HW150546   5.361   3.205   2.220 -1.4291 -0.7397 -0.6744
15586SOL    HW250547   5.235   3.264   2.281  0.5087  1.3178  1.4992
15587SOL     OW50548   8.768   9.469   2.705  0.0370  0.5774 -0.4087
15587SOL    HW150549   8.716   9.510   2.774  1.9206  1.9858  0.2343
15587SOL    HW250550   8.849   9.442   2.748  0.4344 -0.3177 -1.6689
15588SOL     OW50551   7.297   1.630   6.605 -0.2358 -0.4206 -0.0901
15588SOL    HW150552   7.214   1.647   6.561 -0.6831 -0.3479  0.7780
15588SOL    HW250553   7.361   1.626   6.533 -0.5718  1.8903 -0.5926
15589SOL     OW50554   3.422   2.901   6.530 -0.1262 -0.0809  0.0495
15589SOL    HW150555   3.466   2.821   6.557 -0.0606 -0.4330 -1.0653
15589SOL    HW250556   3.329   2.878   6.527 -0.1172 -0.0870 -0.1770
15590SOL     OW50557   9.912   9.856   5.302 -0.3795  0.3167 -0.1880
15590SOL    HW150558   9.876   9.919   5.240  0.6349  1.8091  0.6941
15590SOL    HW250559   9.961   9.909   5.365  1.2864 -1.4210  0.0661
15591SOL     OW50560   1.552   8.041   9.803 -0.2363 -0.6020  0.6581
15591SOL    HW150561   1.541   7.976   9.873 -0.5503  0.4714  1.6389
15591SOL    HW250562   1.512   8.001   9.726 -1.2344 -1.2166  1.4686
15592SOL     OW50563   0.477   2.385   3.638  0.4924 -0.0040  0.3584
15592SOL    HW150564   0.417   2.446   3.596 -0.3017 -1.4454 -0.6904
15592SOL    HW250565   0.514   2.334   3.566 -0.0329 -1.7895  1.3037
15593SOL     OW50566   5.326   2.532   9.486 -0.0035  0.7488  0.0881
15593SOL    HW150567   5.249   2.507   9.538  1.2987 -0.4441  1.5507
15593SOL    HW250568   5.308   2.499   9.398 -0.8852 -0.0713  0.5589
15594SOL     OW50569   8.425   3.208   3.569  0.3437  0.3239 -0.5034
15594SOL    HW150570   8.493   3.275   3.568  0.0711  0.7196  2.0144
15594SOL    HW250571   8.469   3.128   3.539  1.2911  1.0720 -1.1611
15595SOL     OW50572   9.183   1.780   2.513  0.2167  0.4468  0.2844
15595SOL    HW150573   9.096   1.761   2.477  0.4503  1.4194 -0.8493
15595SOL    HW250574   9.235   1.702   2.491 -0.0447  0.3866 -0.1346
15596SOL     OW50575   4.436   1.377   9.536 -0.0216  0.1810  0.2091
15596SOL    HW150576   4.532   1.372   9.544  0.0648  0.0675 -0.8182
15596SOL    HW250577   4.411   1.297   9.490 -0.6459  0.0952  0.6829
15597SOL     OW50578   0.978   2.869   8.074  0.2871 -0.7400 -0.2562
15597SOL    HW150579   0.893   2.901   8.044 -0.1575 -1.8591 -0.2335
15597SOL    HW250580   1.027   2.948   8.094 -0.7201 -0.0680 -0.3446
15598SOL     OW50581   8.778   5.865   0.552  0.0364 -0.2706  0.4105
15598SOL    HW150582   8.713   5.936   0.556  0.6685  0.4307 -0.9241
15598SOL    HW250583   8.740   5.801   0.492  0.9997  0.6516 -1.2506
15599SOL     OW50584   7.060   9.591   9.731  0.7734  0.5498 -0.8124
15599SOL    HW150585   7.032   9.681   9.749 -1.3726 -0.5740  2.2303
15599SOL    HW250586   6.987   9.553   9.682  1.2245  0.1998 -1.2117
15600SOL     OW50587   4.813   0.129   0.786 -0.1627  0.2852 -0.2575
15600SOL    HW150588   4.859   0.201   0.829  0.3403 -0.4276  0.4161
15600SOL    HW250589   4.782   0.167   0.704 -0.3499  1.4117  0.3070
15601SOL     OW50590   2.358   2.730   7.198  0.2564  0.0369 -0.3554
15601SOL    HW150591   2.263   2.725   7.193  0.2279  1.1046 -1.5332
15601SOL    HW250592   2.385   2.765   7.113  1.8803 -2.1563 -0.8392
15602SOL     OW50593   6.480   1.570   8.656 -0.5563 -0.8589 -0.2035
15602SOL    HW150594   6.471   1.486   8.700 -0.1678  0.3440  2.3121
15602SOL    HW250595   6.509   1.548   8.567 -1.1130 -3.3772  0.1898
15603SOL     OW50596   6.521   7.799   1.058 -0.2089 -0.9775 -0.0225
15603SOL    HW150597   6.438   7.843   1.045 -0.3714 -1.2911 -0.0499
15603SOL    HW250598   6.527   7.736   0.987 -0.1546 -1.2621  0.2294
15604SOL     OW50599   5.289   3.452   6.402  0.1207  0.6416 -0.0505
15604SOL    HW150600   5.315   3.485   6.488  1.3829  1.1939 -0.6223
15604SOL    HW250601   5.370   3.419   6.363 -0.8616 -2.2080  0.0392
15605SOL     OW50602   8.751   7.337   6.773  0.2391 -0.3449 -0.1515
15605SOL    HW150603   8.783   7.249   6.752 -4.3753 -2.0530 -1.3317
15605SOL    HW250604   8.746   7.381   6.689 -1.6348 -0.6709 -0.2456
15606SOL     OW50605   7.358   2.951   4.201  0.0304 -0.4642 -0.3086
15606SOL    HW150606   7.274   2.926   4.239  0.2624 -0.0408  0.5093
15606SOL    HW250607   7.395   3.013   4.264  0.6158 -0.0604 -1.0291
15607SOL     OW50608   2.584   6.417   2.640 -0.2432 -0.3542  0.1784
15607SOL    HW150609   2.520   6.484   2.667  0.8605  1.4959 -1.5213
15607SOL    HW250610   2.531   6.348   2.601 -1.2903  0.6142 -0.1602
15608SOL     OW50611  10.311   0.840   6.186  0.1991 -0.1072  0.2018
15608SOL    HW150612  10.255   0.765   6.201 -0.8243  0.8553  1.3715
15608SOL    HW250613  10.282   0.874   6.101  0.5787 -0.9318 -0.2690
15609SOL     OW50614   1.309   3.030   5.908  0.3077  0.0757  0.1032
15609SOL    HW150615   1.360   3.047   5.987 -1.3783  0.3763  1.1762
15609SOL    HW250616   1.261   2.950   5.928 -0.8816  0.6885 -0.2255
15610SOL     OW50617   1.916   9.858   5.575 -0.2367  0.4727 -0.3895
15610SOL    HW150618   1.832   9.825   5.544 -0.5427  0.2330  0.6317
15610SOL    HW250619   1.942   9.796   5.644  0.6059  0.7435 -0.4465
15611SOL     OW50620   0.440   6.940   6.297 -0.6493  0.0469  0.3923
15611SOL    HW150621   0.506   6.989   6.248 -0.9460 -1.2497 -1.4112
15611SOL    HW250622   0.437   6.983   6.382  3.6436 -0.8047  1.1720
15612SOL     OW50623   7.561   8.836  10.183  0.2754 -0.2894 -0.0714
15612SOL    HW150624   7.623   8.881  10.126 -0.6546 -0.7398 -1.4837
15612SOL    HW250625   7.477   8.877  10.165 -0.3410 -1.6271 -0.3427
15613SOL     OW50626   4.421   0.077   0.302 -0.2291  0.1940 -0.1944
15613SOL    HW150627   4.467   0.114   0.378 -0.1914  1.2860 -0.7268
15613SOL    HW250628   4.329   0.097   0.317 -0.6260 -2.1091  0.9358
15614SOL     OW50629   2.970   1.518  10.080 -0.1776 -0.3153 -0.6050
15614SOL    HW150630   2.957   1.596  10.134  0.5856  0.4024 -1.4222
15614SOL    HW250631   2.952   1.445  10.139 -0.7544  0.4626  0.2246
15615SOL     OW50632  10.105   6.184   4.652 -0.4210 -0.3349 -0.0288
15615SOL    HW150633  10.053   6.151   4.579  1.5432 -0.1294 -1.6363
15615SOL    HW250634  10.109   6.111   4.714 -1.2597 -0.9050 -0.6273
15616SOL     OW50635   7.285   7.728   4.442 -0.0719 -0.0054 -0.0378
15616SOL    HW150636   7.334   7.657   4.484  2.3899  0.9325 -1.1182
15616SOL    HW250637   7.286   7.798   4.507  0.0114 -0.0089 -0.0337
15617SOL     OW50638   1.932   0.379   3.187 -0.9538  0.6803  0.1717
15617SOL    HW150639   1.998   0.408   3.124  0.7399 -1.4768  0.8320
15617SOL    HW250640   1.879   0.315   3.140  1.2922 -2.1320  1.1811
15618SOL     OW50641   3.306   1.680   1.313  0.3495 -0.1064 -0.0041
15618SOL    HW150642   3.394   1.669   1.277  0.4747  0.5866  0.0863
15618SOL    HW250643   3.299   1.773   1.333  0.6108 -0.5545  2.5526
15619SOL     OW50644   0.018   6.778   7.990  0.3442  0.5946  0.2382
15619SOL    HW150645  -0.013   6.698   7.947  1.8612  0.2041 -0.1954
15619SOL    HW250646  -0.023   6.775   8.077  1.4003 -1.3724  0.7442
15620SOL     OW50647   6.887   6.085   2.679  0.0235  0.2955  0.5043
15620SOL    HW150648   6.948   6.144   2.723  0.1576  0.9042 -0.4736
15620SOL    HW250649   6.942   6.012   2.650 -0.0248  0.0054  1.1251
15621SOL     OW50650   1.748   7.705   5.180  0.2967  0.2859 -0.2268
15621SOL    HW150651   1.815   7.743   5.123 -1.4693  1.9924 -1.3073
15621SOL    HW250652   1.678   7.770   5.181 -1.7676 -1.7924  0.0646
15622SOL     OW50653   2.340   4.243   1.323  0.0490  0.0247  0.2724
15622SOL    HW150654   2.257   4.288   1.337 -0.7578 -1.4354  0.3102
15622SOL    HW250655   2.393   4.266   1.399 -0.8054 -0.0902  0.9185
15623SOL     OW50656   0.154   1.068   2.645  0.3255 -0.4612  0.2234
15623SOL    HW150657   0.091   1.116   2.698  0.0591  1.1111 -1.4482
15623SOL    HW250658   0.219   1.036   2.709 -0.6759  0.2030  1.6345
15624SOL     OW50659   5.243   2.150  10.284 -0.3155 -0.6302  0.1339
15624SOL    HW150660   5.313   2.097  10.246  1.0254  0.1156  1.4599
15624SOL    HW250661   5.287   2.227  10.320 -1.8971  0.1610  0.4822
15625SOL     OW50662  10.341   7.779   5.026 -0.4394  0.2688  0.2596
15625SOL    HW150663  10.346   7.704   5.086 -0.7956 -0.2353 -0.3271
15625SOL    HW250664  10.266   7.830   5.058 -0.8872 -0.2163  0.0128
15626SOL     OW50665   3.512   1.418   0.261  0.7296 -0.2845 -0.0012
15626SOL    HW150666   3.547   1.505   0.282  0.6624 -0.4654  0.8764
15626SOL    HW250667   3.421   1.435   0.237  1.4514  0.2526 -2.7648
15627SOL     OW50668   9.310   6.074   6.067  0.3687  0.3257 -0.5164
15627SOL    HW150669   9.404   6.077   6.054  0.3048  2.0358 -0.7154
15627SOL    HW250670   9.274   6.056   5.980  0.5442 -2.1978 -0.1432
15628SOL     OW50671  10.020   2.488   7.351  0.6043  0.0655 -0.0273
15628SOL    HW150672  10.079   2.462   7.281  0.3682 -0.2128 -0.1249
15628SOL    HW250673   9.976   2.407   7.378  0.0863  0.3052 -0.1268
15629SOL     OW50674   2.924   9.104   3.280 -0.3756 -0.1759  0.0576
15629SOL    HW150675   2.846   9.134   3.234 -0.5551 -0.2215  0.3265
15629SOL    HW250676   2.941   9.017   3.245 -0.4080 -0.1380 -0.0498
15630SOL     OW50677   5.945   1.902   3.219  0.6105  0.8546  0.0159
15630SOL    HW150678   5.949   1.995   3.201  3.1606  1.1856  1.7630
15630SOL    HW250679   6.021   1.865   3.174 -0.5979 -0.5319 -1.0367
15631SOL     OW50680   0.612   3.850   8.518  0.3877  0.1872 -0.4195
15631SOL    HW150681   0.542   3.800   8.477  0.5427  1.8481 -2.9493
15631SOL    HW250682   0.566   3.920   8.565  0.2861  0.9698 -1.6448
15632SOL     OW50683   1.974   0.918   2.454  0.2144  0.6072 -0.4223
15632SOL    HW150684   2.051   0.974   2.453  0.2108  0.6385  0.3350
15632SOL    HW250685   1.969   0.883   2.365  0.5037  1.4074 -0.7665
15633SOL     OW50686   7.596   5.730   2.120 -0.7635  0.4163  0.3811
15633SOL    HW150687   7.623   5.638   2.115  1.3219  0.8037  2.7181
15633SOL    HW250688   7.570   5.752   2.030  0.8739 -1.8196 -0.7411
15634SOL     OW50689   7.160   1.558   1.732  0.1407  0.3781 -0.0458
15634SOL    HW150690   7.189   1.546   1.822  0.4824  1.8183  0.0557
15634SOL    HW250691   7.171   1.472   1.691  0.6563 -0.1074  1.0914
15635SOL     OW50692   0.194   1.796   4.624  0.1794  0.0119 -0.4306
15635SOL    HW150693   0.203   1.885   4.590  0.6119 -1.0838 -3.5052
15635SOL    HW250694   0.105   1.770   4.600  0.3956 -0.7210 -0.4481
15636SOL     OW50695   7.023   9.443   9.229  0.0095  0.3113  0.6386
15636SOL    HW150696   7.004   9.526   9.273  0.5951  1.0052 -0.3496
15636SOL    HW250697   7.092   9.403   9.282 -1.1524 -0.1641  1.8251
15637SOL     OW50698   4.382   0.949   8.998  0.0925 -0.2093 -0.6728
15637SOL    HW150699   4.378   0.954   9.093 -1.5167 -0.5760 -0.6840
15637SOL    HW250700   4.379   1.040   8.969 -0.4589 -0.1250 -0.3759
15638SOL     OW50701   3.724   4.859   9.049  0.2515 -0.1073 -0.1605
15638SOL    HW150702   3.644   4.806   9.040 -0.8211  1.3336  0.4068
15638SOL    HW250703   3.707   4.937   8.996  1.0982  0.4096  0.3063
15639SOL     OW50704  10.236   5.513   6.795  0.2791  0.4387 -0.1705
15639SOL    HW150705  10.216   5.484   6.705  0.4637 -1.5280  0.3717
15639SOL    HW250706  10.188   5.451   6.850 -0.4520  2.0882  1.1143
15640SOL     OW50707   4.623   6.895   0.663  0.3834 -0.5714  0.1007
15640SOL    HW150708   4.658   6.942   0.588 -0.8257  0.5431  0.1954
15640SOL    HW250709   4.619   6.804   0.635 -2.5320  0.1462 -2.2196
15641SOL     OW50710   3.893   4.771  10.065 -0.3803  0.0538  0.0902
15641SOL    HW150711   3.905   4.700  10.127  1.1812  0.4035  0.2321
15641SOL    HW250712   3.860   4.728   9.986  0.3894 -0.8139  0.2212
15642SOL     OW50713   0.481   8.946   7.478 -0.0116  0.3192 -0.4343
15642SOL    HW150714   0.459   8.944   7.385  0.6338  0.9452 -0.6105
15642SOL    HW250715   0.443   8.866   7.514  0.5284 -0.4005 -1.4254
15643SOL     OW50716   4.051   3.303   6.348 -0.0142 -0.1528 -0.2665
15643SOL    HW150717   3.956   3.313   6.349 -0.0218 -0.1541  1.0812
15643SOL    HW250718   4.073   3.288   6.256 -1.2659  0.2723 -0.6486
15644SOL     OW50719   1.337   9.246   3.982  0.6438  0.3727 -0.1663
15644SOL    HW150720   1.361   9.327   4.026  3.3624 -0.9368  1.0621
15644SOL    HW250721   1.260   9.214   4.030  1.0372  1.0454  0.9386
15645SOL     OW50722   4.438   4.735   7.641  0.3484  0.1606  0.8839
15645SOL    HW150723   4.518   4.750   7.691  0.2021 -1.3750  1.6614
15645SOL    HW250724   4.468   4.712   7.553  0.7216  0.5447  0.9111
15646SOL     OW50725   6.706   3.911   6.177  0.2546  0.1421 -0.2554
15646SOL    HW150726   6.691   3.906   6.083  0.4948  1.5887 -0.3972
15646SOL    HW250727   6.622   3.888   6.216  0.2484 -0.8097 -0.7978
15647SOL     OW50728   6.566   6.807   2.171 -0.1112  0.0637  0.0733
15647SOL    HW150729   6.650   6.771   2.143  0.0288 -0.7135  1.3833
15647SOL    HW250730   6.522   6.833   2.090  1.2418  0.1696 -0.6577
15648SOL     OW50731   1.830   2.464   0.374 -0.6501 -0.0219  0.4942
15648SOL    HW150732   1.774   2.423   0.440 -0.5819  0.0367  0.5884
15648SOL    HW250733   1.904   2.499   0.423 -0.0653 -0.9029  0.2654
15649SOL     OW50734  10.048   8.505   5.632 -0.2040 -0.3255 -0.1743
15649SOL    HW150735  10.085   8.432   5.582  1.0830  0.6997 -0.7680
15649SOL    HW250736   9.955   8.484   5.640  0.1964 -2.2031 -0.0207
15650SOL     OW50737   4.334   9.809   9.105 -0.1607  0.1795 -0.0988
15650SOL    HW150738   4.286   9.889   9.087  0.7963  0.5819 -1.0348
15650SOL    HW250739   4.394   9.800   9.030 -0.1282 -1.3136  0.0667
15651SOL     OW50740   4.790   1.108   7.071  0.1534 -0.6312  0.8970
15651SOL    HW150741   4.778   1.156   6.989  0.3185  0.1806  1.3369
15651SOL    HW250742   4.705   1.067   7.088 -0.0609 -0.2975  0.6363
15652SOL     OW50743   1.510   8.940   6.001  0.4096 -0.4890  0.4751
15652SOL    HW150744   1.586   8.914   5.949  0.5816 -0.0914  0.5258
15652SOL    HW250745   1.465   9.005   5.947  0.1358 -0.6825  0.4693
15653SOL     OW50746   3.724   7.893   4.429  0.7154 -0.0860 -0.7884
15653SOL    HW150747   3.808   7.912   4.471  2.7276 -1.0770 -3.9576
15653SOL    HW250748   3.691   7.816   4.476  2.9080 -1.2492 -1.0419
15654SOL     OW50749   9.957  10.136   2.191 -0.3488 -0.5501 -0.6374
15654SOL    HW150750   9.880  10.113   2.243 -1.2235  0.4951 -1.4170
15654SOL    HW250751  10.010  10.190   2.250 -1.6326  1.1548 -0.9534
15655SOL     OW50752   2.343   6.150   3.323 -0.2784  0.5437  0.6545
15655SOL    HW150753   2.345   6.177   3.231 -0.3392  0.4222  0.6170
15655SOL    HW250754   2.287   6.072   3.324  1.3128 -0.6590  0.4742
15656SOL     OW50755   2.734   3.693  10.340 -0.2745 -0.0285 -0.1367
15656SOL    HW150756   2.701   3.699  10.430  0.0958  0.0973 -0.0083
15656SOL    HW250757   2.661   3.722  10.286  0.1945  1.9848  0.2314
15657SOL     OW50758   9.820   5.212   8.099  0.3517 -0.0164 -0.0853
15657SOL    HW150759   9.782   5.240   8.017 -0.7965  0.0308  0.4473
15657SOL    HW250760   9.915   5.223   8.087  0.1928  0.1033 -1.3376
15658SOL     OW50761   5.253   4.734   3.426 -0.3688  0.5430 -0.1379
15658SOL    HW150762   5.321   4.777   3.374 -3.1489  1.5179 -3.3355
15658SOL    HW250763   5.217   4.804   3.480  0.2704  0.3420  0.5537
15659SOL     OW50764   6.375   7.257   3.251 -0.1417  0.6235  0.2304
15659SOL    HW150765   6.332   7.174   3.229  0.0951  0.8207 -1.0767
15659SOL    HW250766   6.357   7.269   3.344 -1.0942 -0.3633  0.2045
15660SOL     OW50767   3.245   7.999   1.922  0.1599  0.3392 -0.4483
15660SOL    HW150768   3.226   7.988   1.828  0.5970  1.3732 -0.6761
15660SOL    HW250769   3.210   8.086   1.943  0.0006  0.0844  0.3750
15661SOL     OW50770   8.445   9.440   9.177  0.2434 -0.5148 -0.0985
15661SOL    HW150771   8.495   9.436   9.096  1.4910  0.5733  0.5714
15661SOL    HW250772   8.495   9.500   9.233 -0.9626 -0.6754  1.2090
15662SOL     OW50773   5.210   9.552  10.248 -0.5581  0.2985 -0.4337
15662SOL    HW150774   5.286   9.549  10.306 -0.2938 -0.1536 -0.7966
15662SOL    HW250775   5.170   9.466  10.256 -0.9451  0.4844 -0.3589
15663SOL     OW50776   6.649   9.689   3.578  0.0995  0.3523  0.0693
15663SOL    HW150777   6.556   9.705   3.558  0.4600 -0.4980 -2.6225
15663SOL    HW250778   6.668   9.749   3.650 -1.6434  3.2512 -1.6719
15664SOL     OW50779   1.141   0.236   6.027 -0.2569 -0.1975  0.3979
15664SOL    HW150780   1.069   0.207   5.971  0.3342 -0.0071 -0.4896
15664SOL    HW250781   1.100   0.255   6.112 -1.6036  1.7649 -0.6187
15665SOL     OW50782   0.384  10.356   6.479  0.1957 -0.1670 -0.4051
15665SOL    HW150783   0.476  10.344   6.455  0.2501  0.6469 -0.6416
15665SOL    HW250784   0.346  10.268   6.472  1.1807 -0.7239  0.7366
15666SOL     OW50785   4.275   5.119   6.335 -0.0085 -0.2223 -0.1671
15666SOL    HW150786   4.286   5.154   6.247 -0.2788  1.0216  0.2639
15666SOL    HW250787   4.298   5.192   6.393 -1.3523 -0.5052  0.7833
15667SOL     OW50788   0.342   3.225  10.021  0.3566 -0.2508 -0.3740
15667SOL    HW150789   0.332   3.131  10.033  3.7624 -0.7916 -0.8128
15667SOL    HW250790   0.264   3.252   9.971 -0.5619 -2.8275 -0.4650
15668SOL     OW50791   0.714   5.668   8.636  0.6911  0.5217  0.1659
15668SOL    HW150792   0.661   5.617   8.575  0.2046  0.6318  0.4894
15668SOL    HW250793   0.715   5.615   8.716  0.4640  0.8594  0.3928
15669SOL     OW50794   8.821   0.768   2.051  0.6015  0.1056  0.2113
15669SOL    HW150795   8.808   0.684   2.007 -0.2263  0.4521 -0.2319
15669SOL    HW250796   8.894   0.808   2.006  1.1008 -0.4306  0.5204
15670SOL     OW50797   5.753   0.217   6.424  0.5001 -1.1115  0.5274
15670SOL    HW150798   5.718   0.128   6.425  1.8379 -1.7154 -1.3845
15670SOL    HW250799   5.816   0.218   6.352 -0.6588  1.8526 -0.6198
15671SOL     OW50800   2.567   2.074   3.900  0.2816 -0.0280  0.5633
15671SOL    HW150801   2.617   2.117   3.969  0.3546 -1.3648  1.3704
15671SOL    HW250802   2.476   2.080   3.929  0.2029  0.3287  0.2519
15672SOL     OW50803   0.419   7.945   6.359 -0.0606 -0.2919 -0.2671
15672SOL    HW150804   0.326   7.969   6.360 -0.4181 -1.5892  0.8507
15672SOL    HW250805   0.458   7.996   6.429  0.1495  0.5078 -0.9587
15673SOL     OW50806   8.908   8.226   1.027 -0.0031  0.0483 -0.1718
15673SOL    HW150807   8.900   8.150   0.969  3.1006 -1.9056  1.6821
15673SOL    HW250808   8.862   8.296   0.981  0.6281 -1.8361 -4.0764
15674SOL     OW50809   5.100   8.453   0.759 -0.0028 -0.0214 -0.2038
15674SOL    HW150810   5.167   8.489   0.701 -1.2363  0.9725 -1.0738
15674SOL    HW250811   5.054   8.529   0.794 -0.0663 -0.6528  1.1403
15675SOL     OW50812   8.886  10.294   0.841 -0.2167 -0.6653 -0.2661
15675SOL    HW150813   8.790  10.300   0.834 -0.2134  0.0926  0.2197
15675SOL    HW250814   8.905  10.317   0.932  0.3843 -1.4497 -0.1891
15676SOL     OW50815   2.671   5.068   6.079 -0.1129 -0.3243 -0.0729
15676SOL    HW150816   2.600   5.039   6.021  0.9673 -1.5943 -0.8404
15676SOL    HW250817   2.671   5.004   6.151  0.1186 -0.2246  0.0173
15677SOL     OW50818   7.210   8.238   0.608 -0.9113  0.7569 -0.2929
15677SOL    HW150819   7.197   8.292   0.686 -1.0881  1.0750 -0.5411
15677SOL    HW250820   7.288   8.274   0.566  0.1319 -0.4047  0.5630
15678SOL     OW50821   8.159   6.443   9.079  0.4998  0.1314 -0.0621
15678SOL    HW150822   8.213   6.482   9.010 -0.3853  1.8991  0.1896
15678SOL    HW250823   8.119   6.366   9.037  1.4500  0.0856 -0.9196
15679SOL     OW50824   2.833   4.992   8.566 -0.1685 -0.1144 -0.1051
15679SOL    HW150825   2.767   4.931   8.531 -0.6999  0.0056  0.6525
15679SOL    HW250826   2.911   4.938   8.576 -0.1057 -0.2366 -1.1155
15680SOL     OW50827   9.637   8.727   1.803 -0.4039  0.5540  0.1410
15680SOL    HW150828   9.669   8.653   1.854 -0.1499  0.9917  0.6390
15680SOL    HW250829   9.551   8.746   1.840  0.7656  2.4266  2.1705
15681SOL     OW50830   3.742   3.124   4.062 -0.2765 -0.6190  0.1319
15681SOL    HW150831   3.773   3.133   4.152 -0.5373  0.1276  0.1548
15681SOL    HW250832   3.659   3.172   4.060 -2.7303 -4.4328  0.6425
15682SOL     OW50833   1.179   8.554   6.652  0.3893  0.1079 -0.3252
15682SOL    HW150834   1.213   8.584   6.737 -0.1635  2.6050 -0.9124
15682SOL    HW250835   1.129   8.628   6.619  0.7256 -0.7327 -2.9272
15683SOL     OW50836   9.306   5.151   1.009 -0.2881  0.0736  0.2007
15683SOL    HW150837   9.286   5.178   1.098  0.7489  1.1736  0.1282
15683SOL    HW250838   9.298   5.232   0.957  2.6167  0.2914 -0.0758
15684SOL     OW50839   9.375   8.857   0.263  0.3268 -0.8452 -0.0900
15684SOL    HW150840   9.441   8.905   0.314  0.0647  1.4547 -1.7637
15684SOL    HW250841   9.317   8.819   0.329  1.4708 -0.1772  1.3548
15685SOL     OW50842   2.418   4.703   9.498 -0.1363 -0.1540 -0.1066
15685SOL    HW150843   2.382   4.615   9.492  0.3947 -0.3995  0.2318
15685SOL    HW250844   2.438   4.726   9.407  1.6700 -1.2210 -0.0231
15686SOL     OW50845   8.201   9.022   2.602 -0.2703  0.7530 -0.3461
15686SOL    HW150846   8.151   9.104   2.607 -1.6550 -0.0991  0.4327
15686SOL    HW250847   8.137   8.957   2.574  0.1070 -0.5651  1.6261
15687SOL     OW50848   8.058   6.009   6.247 -0.1241  0.5584  0.0550
15687SOL    HW150849   7.989   5.946   6.270 -0.9921  1.6965  0.6983
15687SOL    HW250850   8.109   5.965   6.179 -0.7451 -0.7993  0.4265
15688SOL     OW50851   1.417   6.425   9.565 -0.0423 -0.5212 -0.4904
15688SOL    HW150852   1.386   6.510   9.598 -2.3829 -1.7903  0.8736
15688SOL    HW250853   1.425   6.438   9.470 -1.6234  0.8964 -0.4830
15689SOL     OW50854   7.886   3.875   4.029 -0.1377  0.3002  0.2413
15689SOL    HW150855   7.893   3.952   3.974 -0.8775  0.2006 -0.0067
15689SOL    HW250856   7.889   3.801   3.968  1.8936  0.0484  0.5774
15690SOL     OW50857   1.600   4.445   1.467  0.4780 -0.5597 -0.2466
15690SOL    HW150858   1.572   4.372   1.412 -0.7023 -0.9183  0.7811
15690SOL    HW250859   1.521   4.497   1.480  0.2515 -1.4526  2.5347
15691SOL     OW50860   9.210   7.639   6.397 -0.8495 -0.2570  0.0939
15691SOL    HW150861   9.144   7.630   6.466 -0.1572 -0.9126  0.6875
15691SOL    HW250862   9.262   7.559   6.403 -1.7353 -1.0900 -2.2226
15692SOL     OW50863   4.040   2.654   6.794  0.5786  0.1324 -0.0905
15692SOL    HW150864   4.099   2.674   6.866  1.9147  0.3741 -1.2195
15692SOL    HW250865   4.094   2.610   6.729 -0.8199 -1.0127 -0.5463
15693SOL     OW50866   8.074   0.479   0.769  0.1761  1.0426  0.2723
15693SOL    HW150867   8.051   0.412   0.833  2.0397 -1.5002 -1.5091
15693SOL    HW250868   7.995   0.491   0.717  0.6768 -2.7311 -1.7173
15694SOL     OW50869   8.875   8.686   1.490  0.2327  0.3340  0.0994
15694SOL    HW150870   8.959   8.730   1.498  0.1159  0.3882  1.1839
15694SOL    HW250871   8.854   8.657   1.578 -1.6452  1.7239  0.1786
15695SOL     OW50872   2.236   0.448   5.700 -0.4104  0.1184 -0.0257
15695SOL    HW150873   2.307   0.401   5.657 -1.2236 -0.6318 -0.5696
15695SOL    HW250874   2.247   0.427   5.793  1.9157  2.5039  0.3540
15696SOL     OW50875   4.141   5.157   5.051  0.0836 -0.1982 -0.3988
15696SOL    HW150876   4.122   5.069   5.017 -1.0229  0.1088 -0.6008
15696SOL    HW250877   4.163   5.143   5.143  0.6178 -0.7546 -0.5967
15697SOL     OW50878   2.635   1.698   8.876  0.4708  0.0933  0.1838
15697SOL    HW150879   2.669   1.610   8.889  0.8762 -0.1025 -1.9724
15697SOL    HW250880   2.692   1.754   8.930  1.8873 -0.6628 -0.5022
15698SOL     OW50881   4.013   9.668   7.669  0.2570  0.3800 -0.0495
15698SOL    HW150882   3.967   9.719   7.602  0.4835  0.4312 -0.1703
15698SOL    HW250883   3.947   9.610   7.705 -0.5952  2.3703  1.7513
15699SOL     OW50884   7.077  10.170   3.573 -0.1680 -0.0527 -0.2178
15699SOL    HW150885   7.041  10.150   3.660 -1.2119  1.2015 -0.3280
15699SOL    HW250886   7.124  10.091   3.548 -0.0535 -0.5397  1.3820
15700SOL     OW50887   0.629   4.963   0.758  0.2887 -0.0203 -0.3284
15700SOL    HW150888   0.570   4.941   0.685  1.7667 -1.6536 -1.0993
15700SOL    HW250889   0.579   5.025   0.811 -2.0220 -1.1463 -1.0600
15701SOL     OW50890   6.305   0.567   9.730  1.0465 -0.7460  0.2123
15701SOL    HW150891   6.259   0.593   9.810  1.9435 -1.6662  1.0736
15701SOL    HW250892   6.379   0.514   9.762  2.2266  0.0081 -1.1593
15702SOL     OW50893   6.081   6.907   7.445  0.2264  0.0197  0.4532
15702SOL    HW150894   6.049   6.869   7.526  1.0248  0.4342  0.9771
15702SOL    HW250895   6.108   6.996   7.469  0.1689  0.2559 -0.3293
15703SOL     OW50896   4.872   6.262   0.099 -0.3079 -0.5598 -0.7526
15703SOL    HW150897   4.893   6.192   0.161  0.1745 -1.1042 -1.5099
15703SOL    HW250898   4.924   6.241   0.021  0.6239  1.1982 -0.6479
15704SOL     OW50899   4.011   1.345   4.763 -0.1303 -0.0606  0.3123
15704SOL    HW150900   4.006   1.280   4.833  0.0787 -0.8732 -0.4055
15704SOL    HW250901   4.101   1.338   4.731  0.2913  1.4868  1.0423
15705SOL     OW50902   0.929   3.588  10.064 -0.2924  0.1754  0.3019
15705SOL    HW150903   0.850   3.541  10.091  0.0502 -0.4797  0.1900
15705SOL    HW250904   0.976   3.604  10.146 -0.3357  0.1800  0.3260
15706SOL     OW50905   4.721   5.101   4.950  0.1571 -0.6742 -0.4273
15706SOL    HW150906   4.706   5.057   5.034  2.4144 -1.2228 -0.2493
15706SOL    HW250907   4.807   5.069   4.922  0.7278  1.6895 -1.5524
15707SOL     OW50908   6.478   0.464   6.974  0.1435  0.2316 -0.0193
15707SOL    HW150909   6.460   0.537   6.914  0.4476 -0.2391 -0.7087
15707SOL    HW250910   6.540   0.408   6.925 -1.0695 -1.1537 -0.0416
15708SOL     OW50911   6.847   2.345   5.475 -0.1205  0.2337  0.0598
15708SOL    HW150912   6.867   2.277   5.411 -2.0154 -0.3142 -0.0002
15708SOL    HW250913   6.846   2.426   5.424  0.8971  0.1630 -0.0976
15709SOL     OW50914   6.417   7.860   1.395  0.0472 -0.4591  0.1783
15709SOL    HW150915   6.373   7.858   1.311 -0.3007 -1.4227  0.3761
15709SOL    HW250916   6.481   7.931   1.387  1.2236 -1.6264 -1.4975
15710SOL     OW50917   8.487   7.705   1.858  0.4038 -0.0545 -0.0257
15710SOL    HW150918   8.395   7.699   1.833  0.2923 -0.0239  0.3810
15710SOL    HW250919   8.486   7.736   1.948  0.7781 -1.1536  0.3697
15711SOL     OW50920   1.853   2.943   6.677 -0.4481 -0.4302  0.3857
15711SOL    HW150921   1.826   2.861   6.718 -1.1029  0.2635  1.3835
15711SOL    HW250922   1.846   3.008   6.746 -0.0378  0.4955 -0.4159
15712SOL     OW50923   3.459   8.077   6.703  0.2441  0.1439 -0.2017
15712SOL    HW150924   3.395   8.103   6.770  0.8699  3.6331 -0.7742
15712SOL    HW250925   3.532   8.041   6.753 -0.0559  0.9740  0.9019
15713SOL     OW50926   1.535   5.145   6.868  0.1376  0.1800  0.2190
15713SOL    HW150927   1.561   5.053   6.861 -0.4662  0.0433 -0.3711
15713SOL    HW250928   1.471   5.147   6.939 -0.7966 -0.0907 -0.5888
15714SOL     OW50929   1.394   4.214   0.376 -0.1383 -0.5788 -0.1699
15714SOL    HW150930   1.385   4.280   0.444 -0.1546 -0.2485 -0.4887
15714SOL    HW250931   1.325   4.151   0.395 -1.3066  0.4322 -0.9071
15715SOL     OW50932   7.614   3.002   6.042 -0.6541  0.1605  0.0779
15715SOL    HW150933   7.563   3.068   6.090  2.3230  1.1962  2.1165
15715SOL    HW250934   7.560   2.923   6.046 -2.4660  1.3777  1.3521
15716SOL     OW50935   2.235   2.960   9.955  0.1328 -0.4629 -0.0208
15716SOL    HW150936   2.256   2.950  10.047  0.1129 -0.3181  0.0011
15716SOL    HW250937   2.196   2.877   9.929  0.2713 -0.5534  0.0649
15717SOL     OW50938   7.347   5.702   6.179  0.6433  0.2745 -0.3490
15717SOL    HW150939   7.378   5.614   6.201  0.1086  0.2080  0.1811
15717SOL    HW250940   7.282   5.721   6.246 -0.1391  0.5844 -1.1781
15718SOL     OW50941   5.888   1.370   7.489  0.6400  0.4986 -0.7621
15718SOL    HW150942   5.874   1.307   7.560 -2.7434  0.7759 -1.0228
15718SOL    HW250943   5.972   1.345   7.451  0.9935 -1.7330  1.2136
15719SOL     OW50944   1.511   4.901   6.074 -0.3196  0.1365 -0.3278
15719SOL    HW150945   1.436   4.858   6.117  0.5966 -0.0642  1.1449
15719SOL    HW250946   1.538   4.968   6.136  0.4681  0.4928 -1.0464
15720SOL     OW50947   5.348   1.517   9.237  0.0974  0.1669  0.0565
15720SOL    HW150948   5.262   1.480   9.255 -0.6071 -0.8606 -4.2839
15720SOL    HW250949   5.330   1.598   9.190  1.5715  0.8861  0.6689
15721SOL     OW50950   6.481   4.804   9.815 -0.4478  0.3140 -0.4443
15721SOL    HW150951   6.521   4.812   9.902 -0.8739  1.0546 -0.3061
15721SOL    HW250952   6.389   4.826   9.829 -0.8550 -1.0632 -0.8128
15722SOL     OW50953   8.354   8.055   0.874 -0.1504 -0.3227 -0.0297
15722SOL    HW150954   8.298   8.109   0.818 -0.9936 -4.3289 -3.5489
15722SOL    HW250955   8.293   8.005   0.928  0.2391 -1.3561 -0.5189
15723SOL     OW50956   8.743   9.770   9.869 -0.0708  0.4195  0.1476
15723SOL    HW150957   8.674   9.730   9.922 -0.2598  2.8892  1.9387
15723SOL    HW250958   8.825   9.735   9.904 -0.2710  0.4258  0.6225
15724SOL     OW50959   3.981   4.302   5.743 -0.0771  0.1150 -0.6746
15724SOL    HW150960   3.914   4.298   5.812 -0.3733 -0.6371 -0.9869
15724SOL    HW250961   4.064   4.302   5.790 -0.2901  0.6997 -0.2885
15725SOL     OW50962   4.023   2.679   2.751 -0.2066  0.7456  0.1065
15725SOL    HW150963   3.979   2.763   2.743 -1.9755  0.0579  1.7463
15725SOL    HW250964   3.969   2.619   2.699 -0.1817  0.2504  0.6385
15726SOL     OW50965   1.234   3.432   5.049 -0.3043 -0.3711  0.4431
15726SOL    HW150966   1.261   3.510   5.097 -2.5045 -0.3630  1.7903
15726SOL    HW250967   1.297   3.365   5.075 -0.1651  0.2057  1.6400
15727SOL     OW50968   7.328   9.291   3.337  0.9630  0.4218  0.5676
15727SOL    HW150969   7.274   9.369   3.326  0.1573  0.0510  1.7149
15727SOL    HW250970   7.410   9.324   3.374  0.5905  0.7230  1.1427
15728SOL     OW50971   2.729   7.371   7.169  0.0286  0.0387  0.0569
15728SOL    HW150972   2.728   7.302   7.103  0.5675  0.0084  0.0754
15728SOL    HW250973   2.821   7.379   7.194 -0.0456  0.6643  0.1568
15729SOL     OW50974  10.231   8.105   3.175 -0.1167  0.1023 -0.4682
15729SOL    HW150975  10.248   8.071   3.263  1.3014  2.3836  0.2080
15729SOL    HW250976  10.161   8.048   3.141 -0.0242 -1.4556  1.7173
15730SOL     OW50977   9.677   0.652   1.822  0.0647  0.0461 -0.5044
15730SOL    HW150978   9.704   0.624   1.735 -0.3944 -0.0564 -0.6173
15730SOL    HW250979   9.749   0.707   1.853 -0.5851  1.6550 -1.7175
15731SOL     OW50980   7.836   3.371   0.170  0.0583 -0.5211 -0.3481
15731SOL    HW150981   7.791   3.309   0.113 -1.8213 -0.3861  0.8887
15731SOL    HW250982   7.918   3.327   0.194  0.2661 -1.1160 -2.0683
15732SOL     OW50983   1.106   9.156   2.789  0.3898  0.3600  0.5857
15732SOL    HW150984   1.015   9.146   2.761  0.2726  1.7341  0.3997
15732SOL    HW250985   1.115   9.097   2.863 -0.7687  0.4666  0.8378
15733SOL     OW50986   0.285   6.931   7.075 -0.2254  0.0199  0.1202
15733SOL    HW150987   0.199   6.971   7.087 -0.3718 -0.2609  0.0258
15733SOL    HW250988   0.342   6.977   7.136 -0.1625  1.0505 -0.6888
15734SOL     OW50989   3.948   1.324   2.154  0.0440  0.1368  0.5984
15734SOL    HW150990   3.930   1.363   2.068  2.1420  0.8786  0.4474
15734SOL    HW250991   3.979   1.236   2.135 -0.8436 -0.2054  0.6993
15735SOL     OW50992   6.750   0.819   5.204 -0.4978  0.2695 -0.2836
15735SOL    HW150993   6.716   0.907   5.219 -0.7244  0.4023 -1.4760
15735SOL    HW250994   6.801   0.827   5.123 -0.5371 -0.6983 -0.4101
15736SOL     OW50995   7.967   7.989  10.059  0.1538 -0.0840 -0.6439
15736SOL    HW150996   8.036   8.036  10.012  0.4849  1.0892  0.9392
15736SOL    HW250997   7.888   8.041  10.043  0.1545  0.0029 -0.3647
15737SOL     OW50998   1.828   8.935   9.705 -0.4474  0.4902  0.5619
15737SOL    HW150999   1.787   8.850   9.722  1.9538 -0.3913  2.4860
15737SOL    HW251000   1.774   8.974   9.636 -1.5688 -2.6490 -0.5286
15738SOL     OW51001  10.216   8.907   2.319 -0.2007  0.2165 -0.2300
15738SOL    HW151002  10.143   8.957   2.283 -0.2155  0.0738 -0.3983
15738SOL    HW251003  10.288   8.970   2.326 -0.7263  0.7134  1.2107
15739SOL     OW51004   7.802   0.076   9.841 -0.2389 -0.7190  0.1389
15739SOL    HW151005   7.725   0.101   9.791  0.8662  0.0253 -1.2909
15739SOL    HW251006   7.802   0.133   9.917  0.4423  1.4348 -1.3759
15740SOL     OW51007   7.714   7.601   1.802  0.0783  0.2690 -0.3765
15740SOL    HW151008   7.639   7.544   1.787  0.5259 -0.1499 -1.0513
15740SOL    HW251009   7.698   7.677   1.745  1.2009 -0.7918 -2.1838
15741SOL     OW51010   3.502   1.007   2.295 -0.3602  0.1529 -0.2558
15741SOL    HW151011   3.527   0.935   2.353 -1.6645  1.0037  1.4543
15741SOL    HW251012   3.407   1.001   2.290 -0.3148  0.4346 -1.9246
15742SOL     OW51013   2.242   9.240   2.281  0.1659 -0.2058 -0.6837
15742SOL    HW151014   2.194   9.275   2.356  1.8739 -0.0705  0.3976
15742SOL    HW251015   2.321   9.295   2.275  0.6714 -1.0152 -1.7884
15743SOL     OW51016   0.283   4.878   5.219  0.0407  0.4277 -0.0330
15743SOL    HW151017   0.355   4.849   5.275 -1.4345 -0.1851  1.6362
15743SOL    HW251018   0.256   4.799   5.171  0.8352  0.7962 -1.1480
15744SOL     OW51019   5.308   9.786   7.967  0.2615 -0.0937 -0.0912
15744SOL    HW151020   5.381   9.732   7.934 -0.1526 -0.1800 -0.8750
15744SOL    HW251021   5.346   9.873   7.978  0.9925 -0.5468  1.3650
15745SOL     OW51022   2.878   0.004   8.012  0.6314  0.3387  0.1927
15745SOL    HW151023   2.870  -0.084   7.975 -0.9122  1.2652 -1.9394
15745SOL    HW251024   2.793   0.021   8.053  0.5664  1.1422 -0.2410
15746SOL     OW51025   7.430   8.028   0.791  0.0330  0.2424  0.4827
15746SOL    HW151026   7.507   7.999   0.742 -0.7886 -0.7493 -0.2556
15746SOL    HW251027   7.363   8.042   0.725 -0.9094 -0.5223  1.2405
15747SOL     OW51028   7.020   9.324   4.678  0.2288 -0.0964 -0.3125
15747SOL    HW151029   7.115   9.327   4.680  0.2318  0.9035 -1.1982
15747SOL    HW251030   6.998   9.232   4.696  1.2481  0.1216  2.5096
15748SOL     OW51031   6.207   0.885   3.029 -0.2177  0.4997  0.2835
15748SOL    HW151032   6.176   0.970   3.061 -1.7956  0.0275  0.1111
15748SOL    HW251033   6.258   0.906   2.951 -1.5306  1.2539 -0.4126
15749SOL     OW51034   4.146   7.728   0.552  0.1736  0.2560 -0.5850
15749SOL    HW151035   4.153   7.632   0.546  0.4407  0.2625 -0.4052
15749SOL    HW251036   4.054   7.746   0.534 -0.7614 -0.3093  2.8961
15750SOL     OW51037   8.155   9.702   1.619  0.2542 -0.4095  0.2279
15750SOL    HW151038   8.068   9.726   1.651 -0.5833 -2.0950 -0.6420
15750SOL    HW251039   8.191   9.646   1.688  2.0223  2.6973  2.0501
15751SOL     OW51040   7.897   0.166   7.651  0.3728 -0.1151 -0.0182
15751SOL    HW151041   7.853   0.147   7.568  0.2946  0.9450 -0.2417
15751SOL    HW251042   7.825   0.173   7.715  0.4986 -1.8340  0.3470
15752SOL     OW51043   2.049   7.553   3.357 -0.5636  0.7085  0.0810
15752SOL    HW151044   2.096   7.574   3.276  0.8035 -0.0112  0.6587
15752SOL    HW251045   2.073   7.625   3.416  1.2526 -0.5183  0.9206
15753SOL     OW51046   3.134   5.562   6.749  0.1933 -0.1021  0.1913
15753SOL    HW151047   3.074   5.622   6.705  0.4350  0.1712  0.2347
15753SOL    HW251048   3.187   5.525   6.679 -0.0303 -0.3538  0.1512
15754SOL     OW51049   8.876  10.055   1.721 -0.1959 -0.1465 -0.0446
15754SOL    HW151050   8.913   9.983   1.670  1.9371 -1.5660  3.2058
15754SOL    HW251051   8.794  10.019   1.756 -1.3393  0.6118 -1.8157
15755SOL     OW51052   7.568   4.566   3.939  0.2964  0.1704 -0.0487
15755SOL    HW151053   7.579   4.565   3.844 -2.5587  0.1318 -0.4696
15755SOL    HW251054   7.647   4.525   3.973  0.3384 -2.1188 -2.5780
15756SOL     OW51055   2.147   4.641   7.626 -0.1947  0.6476 -0.3442
15756SOL    HW151056   2.084   4.571   7.610 -1.0800  1.7142 -1.6631
15756SOL    HW251057   2.229   4.608   7.588 -0.1455 -0.3942  0.6319
15757SOL     OW51058  10.196   0.820   7.431  0.1626 -0.0398 -0.1993
15757SOL    HW151059  10.210   0.803   7.524 -0.3343 -0.4727 -0.1971
15757SOL    HW251060  10.194   0.733   7.391  2.0454  0.1969 -0.8825
15758SOL     OW51061   2.705   5.627   7.102  0.3371 -0.0167  0.2146
15758SOL    HW151062   2.625   5.579   7.125  0.0239 -0.7002 -2.0370
15758SOL    HW251063   2.689   5.716   7.133 -1.5746  0.0135 -0.7017
15759SOL     OW51064   1.644   9.692   3.458  0.2013  0.1035 -0.1092
15759SOL    HW151065   1.714   9.752   3.432  0.6384 -0.8586 -1.2601
15759SOL    HW251066   1.615   9.652   3.376  1.5109 -2.9280  0.7532
15760SOL     OW51067   7.959   2.842   3.291 -1.0386 -1.0782 -0.3005
15760SOL    HW151068   7.940   2.795   3.373 -0.6764  0.1039  0.4913
15760SOL    HW251069   7.874   2.869   3.259 -1.2372 -2.0738 -0.6650
15761SOL     OW51070   1.734   6.491   9.407  0.7281 -0.4012  0.1437
15761SOL    HW151071   1.810   6.513   9.353  0.7265 -1.4761 -0.3266
15761SOL    HW251072   1.763   6.417   9.460  0.7544  0.6942  1.7210
15762SOL     OW51073   5.662   3.714   3.132 -0.0181  0.0804 -0.5742
15762SOL    HW151074   5.688   3.780   3.196  2.5283 -1.0806 -0.2849
15762SOL    HW251075   5.723   3.641   3.146 -1.4106 -1.5087 -2.2224
15763SOL     OW51076   6.045   3.303   2.891 -0.1749 -0.4446  0.3975
15763SOL    HW151077   5.979   3.372   2.900 -0.8453 -0.8539 -1.0348
15763SOL    HW251078   5.995   3.221   2.899  0.2344 -0.7563 -0.1931
15764SOL     OW51079   4.689   6.530   8.964 -0.0507  0.6136 -0.2786
15764SOL    HW151080   4.739   6.570   9.034  1.4179 -0.9522 -0.3697
15764SOL    HW251081   4.683   6.598   8.897 -1.4786  2.1333  1.2971
15765SOL     OW51082   3.549   1.723   0.686  0.1494  0.0188  0.0667
15765SOL    HW151083   3.552   1.666   0.609 -1.3053  2.1334 -1.6718
15765SOL    HW251084   3.587   1.806   0.656  1.1149  0.4152  2.1750
15766SOL     OW51085   0.036   5.672   2.125 -0.0476 -0.0106 -0.2257
15766SOL    HW151086   0.105   5.714   2.072 -0.1025 -1.2761 -1.3454
15766SOL    HW251087   0.073   5.669   2.213  0.3669  1.4493 -0.3209
15767SOL     OW51088   0.397   5.314   1.136 -0.4813  0.6292 -0.0757
15767SOL    HW151089   0.312   5.326   1.095 -0.8221 -0.7388  0.2092
15767SOL    HW251090   0.385   5.345   1.226 -0.4765  1.0893 -0.2304
15768SOL     OW51091   8.253   0.214   3.509 -0.2856 -0.1812  0.1338
15768SOL    HW151092   8.296   0.135   3.475  2.5422  0.0160  2.7494
15768SOL    HW251093   8.194   0.182   3.577 -0.1355 -0.1312  0.2888
15769SOL     OW51094   3.770   4.773   5.539 -0.3393  0.0136  0.4311
15769SOL    HW151095   3.773   4.702   5.603  0.0497  0.5660  1.0390
15769SOL    HW251096   3.834   4.836   5.570 -0.6168  0.5950 -0.1518
15770SOL     OW51097   1.352   5.411   8.029  0.9844  0.2584 -0.2341
15770SOL    HW151098   1.365   5.477   8.097  2.0215  0.4709 -0.6219
15770SOL    HW251099   1.299   5.455   7.963  0.2037  0.1369  0.2943
15771SOL     OW51100   6.427   4.054   7.719 -0.2307  0.6228 -0.2644
15771SOL    HW151101   6.379   4.130   7.752 -0.6810  1.1383 -2.0368
15771SOL    HW251102   6.359   3.996   7.684  0.1493 -0.4176  0.6555
15772SOL     OW51103   4.570   8.107   2.914  0.5997 -0.0998 -0.3929
15772SOL    HW151104   4.573   8.077   2.823  0.2122  1.0720 -0.7983
15772SOL    HW251105   4.658   8.143   2.930  0.9333 -1.0298 -0.0294
15773SOL     OW51106   3.924   0.932   1.957  0.1114 -0.5853 -0.1663
15773SOL    HW151107   3.952   0.956   2.045  2.8088 -3.0222 -0.2363
15773SOL    HW251108   3.831   0.909   1.967  0.1710 -0.0921  1.8641
15774SOL     OW51109   0.208   4.752   3.189  0.1792 -0.1805 -0.1313
15774SOL    HW151110   0.117   4.734   3.168  0.3668 -1.3746 -0.0351
15774SOL    HW251111   0.215   4.735   3.283  0.2014  1.3055  0.1577
15775SOL     OW51112   8.666   6.192   7.417  0.2168 -0.0041 -0.0519
15775SOL    HW151113   8.604   6.124   7.392 -0.1434  0.5722 -0.7572
15775SOL    HW251114   8.613   6.258   7.460  0.7148 -0.6182  1.5724
15776SOL     OW51115   1.081   3.997   8.419 -0.5741 -0.2385  0.0317
15776SOL    HW151116   1.088   3.907   8.389 -1.9401  0.2335 -1.8930
15776SOL    HW251117   1.017   3.993   8.491  1.0455 -1.0556  1.5116
15777SOL     OW51118   0.318  10.190   8.459 -0.9858 -0.0160  0.3921
15777SOL    HW151119   0.347  10.129   8.391 -2.0109  0.8999 -0.9263
15777SOL    HW251120   0.247  10.143   8.503  0.9744 -1.4168  2.2353
15778SOL     OW51121   4.200   7.197   1.626 -0.0068 -0.7174  0.0549
15778SOL    HW151122   4.165   7.108   1.633 -1.8807 -0.2191 -1.8192
15778SOL    HW251123   4.131   7.253   1.660  1.0779  0.0635  1.0335
15779SOL     OW51124   5.197   4.104   0.565 -0.0994 -0.5628 -0.2709
15779SOL    HW151125   5.148   4.078   0.643 -2.4167 -0.7785 -1.7350
15779SOL    HW251126   5.163   4.049   0.495 -0.1682  1.5901 -2.0378
15780SOL     OW51127   4.806   6.708   9.174 -0.4430 -0.0358  0.6784
15780SOL    HW151128   4.779   6.772   9.109 -0.9576 -1.4848 -0.6021
15780SOL    HW251129   4.740   6.714   9.243 -0.9138  0.2947  0.2032
15781SOL     OW51130   3.567  10.348   1.144  0.6951  0.4450  0.2666
15781SOL    HW151131   3.487  10.305   1.174  0.3361  1.3610  0.6520
15781SOL    HW251132   3.553  10.440   1.163  1.9658  0.5858  0.6019
15782SOL     OW51133   3.153   3.977   1.290  0.0388 -0.1242  0.1153
15782SOL    HW151134   3.128   4.069   1.301  2.1574  0.4904  0.1133
15782SOL    HW251135   3.082   3.928   1.333 -0.4679  1.5563  1.2806
15783SOL     OW51136   7.392   9.708   1.364 -0.7218  0.3151  0.5734
15783SOL    HW151137   7.354   9.727   1.278  0.1083 -0.6043 -0.0124
15783SOL    HW251138   7.415   9.615   1.361 -3.6507 -0.6472  2.9529
15784SOL     OW51139   1.554   6.115   0.411 -0.3488  0.4100  0.0880
15784SOL    HW151140   1.523   6.091   0.498  0.5510 -1.0127  0.0479
15784SOL    HW251141   1.541   6.209   0.406  1.2085  0.8324  2.4291
15785SOL     OW51142   0.373   0.582   0.002 -0.2501  0.5711  0.0074
15785SOL    HW151143   0.436   0.548   0.066 -1.6065 -0.2487  0.9545
15785SOL    HW251144   0.302   0.618   0.056 -1.8388 -0.9178 -0.9987
15786SOL     OW51145   4.747   2.455   1.806  0.1037  0.5373  0.1581
15786SOL    HW151146   4.811   2.424   1.871  1.3346 -0.0761 -1.2820
15786SOL    HW251147   4.705   2.529   1.848  2.4998  1.6383  0.8149
15787SOL     OW51148   9.407   5.021   9.383  0.2225 -0.1643 -0.2608
15787SOL    HW151149   9.423   5.039   9.475 -0.8372  1.9369 -0.4375
15787SOL    HW251150   9.346   4.947   9.383 -0.7621  0.6153  0.7833
15788SOL     OW51151   2.579   4.871   4.319 -0.1114  0.4911  0.2853
15788SOL    HW151152   2.555   4.877   4.227  1.1123 -2.2304 -0.3109
15788SOL    HW251153   2.673   4.853   4.319  0.1639  1.6689  2.1365
15789SOL     OW51154   9.209   4.484   1.871 -0.7241 -0.1946 -0.4460
15789SOL    HW151155   9.303   4.492   1.890 -0.8077  0.2042 -0.1627
15789SOL    HW251156   9.203   4.491   1.776 -0.5387  0.7578 -0.4066
15790SOL     OW51157   2.526   4.662   0.496  0.2809 -0.2512  0.0001
15790SOL    HW151158   2.477   4.737   0.529  0.5441  0.4377 -1.1309
15790SOL    HW251159   2.459   4.597   0.476  0.0251 -0.1955  0.6306
15791SOL     OW51160  10.268   9.473   1.957 -0.6000 -0.2303 -0.1398
15791SOL    HW151161  10.210   9.515   1.893 -0.0916  0.4847 -0.1462
15791SOL    HW251162  10.356   9.502   1.932 -0.4683  0.8163  1.4258
15792SOL     OW51163   5.518   3.426   7.431  0.3208 -0.3892  0.1028
15792SOL    HW151164   5.434   3.380   7.429  0.1807 -0.1375  0.1763
15792SOL    HW251165   5.584   3.356   7.435  0.0960 -0.5777  0.5238
15793SOL     OW51166   8.503   6.400   7.774  0.0387 -0.3725 -0.1589
15793SOL    HW151167   8.510   6.357   7.689 -0.9117 -1.8110  0.4486
15793SOL    HW251168   8.590   6.393   7.813  0.2620 -0.4571 -0.6718
15794SOL     OW51169   0.479   6.126   0.866  0.5626  0.0302  0.4759
15794SOL    HW151170   0.426   6.151   0.791 -0.2284  0.8116  1.2708
15794SOL    HW251171   0.508   6.209   0.905  1.1056 -0.3587  0.9401
15795SOL     OW51172  10.253   4.218   6.902  0.1597 -0.6702 -0.1585
15795SOL    HW151173  10.199   4.261   6.968  0.7302  0.5799 -0.4830
15795SOL    HW251174  10.284   4.138   6.944 -0.3738 -0.4383  0.6933
15796SOL     OW51175   0.557   8.671   5.965 -0.1653 -0.4206 -0.1130
15796SOL    HW151176   0.641   8.625   5.969 -0.6596 -1.5339 -1.5254
15796SOL    HW251177   0.523   8.652   5.877 -0.4595  2.6452 -0.7652
15797SOL     OW51178   5.456   2.127   7.490 -0.2511  0.0028 -0.1839
15797SOL    HW151179   5.436   2.175   7.411 -0.2976  1.1040  0.4758
15797SOL    HW251180   5.379   2.138   7.546 -0.1360 -0.5727  0.0995
15798SOL     OW51181   9.136   7.823   3.161 -0.3712 -0.8945 -0.1832
15798SOL    HW151182   9.184   7.803   3.242 -0.3210  1.7765  0.5690
15798SOL    HW251183   9.188   7.783   3.092  2.1775  0.5085  0.7618
15799SOL     OW51184   8.910   3.775   7.516 -0.4110  0.4375  0.0412
15799SOL    HW151185   8.997   3.810   7.496 -0.2523  0.1574  0.2423
15799SOL    HW251186   8.918   3.681   7.503 -0.3927  0.2827  1.1018
15800SOL     OW51187   8.283   4.072   8.623 -0.0798 -0.2989  0.1337
15800SOL    HW151188   8.248   4.138   8.683 -0.2270 -0.7818  0.5841
15800SOL    HW251189   8.218   4.002   8.624 -0.2693 -0.1456 -0.8839
15801SOL     OW51190   9.098   0.044   1.755 -0.1643 -0.3703  0.2328
15801SOL    HW151191   9.166   0.104   1.786 -1.8368  1.6481  0.2490
15801SOL    HW251192   9.074  -0.007   1.832 -0.9732  1.2722  1.1187
15802SOL     OW51193   1.581   4.102   8.679  0.2241  0.2181  0.0054
15802SOL    HW151194   1.513   4.059   8.628  0.8626 -2.7640  1.5003
15802SOL    HW251195   1.534   4.157   8.741 -0.8411 -1.5449  0.7993
15803SOL     OW51196   7.017   7.643   2.350  0.3103 -0.2711  0.0911
15803SOL    HW151197   7.080   7.712   2.370  1.5965 -1.3371 -0.1749
15803SOL    HW251198   6.947   7.656   2.413  0.5298  1.2510  0.0732
15804SOL     OW51199   3.014   8.422   0.608  0.2773 -0.9167 -0.2848
15804SOL    HW151200   2.972   8.497   0.566 -0.3430 -0.5806  0.8849
15804SOL    HW251201   2.942   8.375   0.650  1.0861  0.1692  2.5567
15805SOL     OW51202   0.406   5.393   7.435 -0.2463 -0.4710 -0.8871
15805SOL    HW151203   0.312   5.394   7.421 -0.2553 -0.0678 -0.8076
15805SOL    HW251204   0.416   5.401   7.530 -0.1348 -0.5294 -0.8941
15806SOL     OW51205   9.542   5.184   2.262 -0.3039  0.1340  0.1626
15806SOL    HW151206   9.465   5.214   2.213 -0.6293 -1.1305 -0.1163
15806SOL    HW251207   9.532   5.089   2.268  1.5532 -0.1484 -0.4325
15807SOL     OW51208   6.306   0.488   6.580  0.0875  0.1091 -0.1237
15807SOL    HW151209   6.291   0.499   6.674  1.2749 -0.4090  0.1476
15807SOL    HW251210   6.355   0.566   6.555 -1.4527  0.9411 -0.6284
15808SOL     OW51211   6.178   2.758   8.059  0.0578  0.3063 -0.5431
15808SOL    HW151212   6.137   2.682   8.018 -0.6605  0.5330 -0.2503
15808SOL    HW251213   6.142   2.759   8.148  2.1453 -0.6240  0.3857
15809SOL     OW51214   4.499  10.050   2.625  0.6876 -0.7462  0.4593
15809SOL    HW151215   4.589  10.034   2.596  0.4955  0.0001 -0.6635
15809SOL    HW251216   4.447   9.984   2.579  0.5513 -0.5118  0.2723
15810SOL     OW51217   7.474   1.979   1.736  0.2179 -0.1074 -0.5507
15810SOL    HW151218   7.519   1.906   1.692  0.4323 -0.6677  0.5694
15810SOL    HW251219   7.525   1.994   1.815 -0.5185  0.4859 -0.1778
15811SOL     OW51220   7.365   1.624   9.226 -0.7129  0.1058 -0.1086
15811SOL    HW151221   7.307   1.690   9.264 -0.7115  1.4073 -2.2139
15811SOL    HW251222   7.308   1.548   9.212 -1.5257  0.7848 -0.5947
15812SOL     OW51223   9.620   8.836   7.391 -0.1834 -0.1387 -0.5858
15812SOL    HW151224   9.592   8.805   7.305 -0.7563 -0.2175 -0.3772
15812SOL    HW251225   9.544   8.884   7.425  0.1796  0.2261 -0.2925
15813SOL     OW51226   6.300   2.693   2.072  0.1236 -0.1077  0.0410
15813SOL    HW151227   6.368   2.627   2.061  0.4009 -0.2814  2.2523
15813SOL    HW251228   6.224   2.644   2.101  0.0463  0.4191  0.7606
15814SOL     OW51229   0.441   9.658   5.946 -0.4593  0.0181 -0.2185
15814SOL    HW151230   0.478   9.576   5.979 -1.7558 -0.5408 -0.1028
15814SOL    HW251231   0.386   9.690   6.016 -0.1038  0.9150 -0.3357
15815SOL     OW51232   3.227   9.426   9.331  0.0349  0.0435  0.1558
15815SOL    HW151233   3.290   9.401   9.399 -1.6193 -0.5332  1.5379
15815SOL    HW251234   3.280   9.472   9.266  2.0076 -1.0351  0.8961
15816SOL     OW51235   2.363   4.611   4.076 -0.0068  0.0058 -0.2261
15816SOL    HW151236   2.368   4.516   4.086 -0.7469 -0.4840 -3.2651
15816SOL    HW251237   2.453   4.641   4.089  0.4009 -1.2180 -0.0442
15817SOL     OW51238   1.501   2.389   9.529  0.5218  0.0677  0.4247
15817SOL    HW151239   1.587   2.357   9.556 -0.0140 -2.2223 -0.3680
15817SOL    HW251240   1.442   2.359   9.598  0.3340  1.9313  1.1485
15818SOL     OW51241   2.700   9.926   6.429 -0.1309 -0.5413  0.5751
15818SOL    HW151242   2.711  10.006   6.377 -2.3060 -1.1377 -0.9409
15818SOL    HW251243   2.606   9.909   6.427  0.0222 -2.0383  2.6189
15819SOL     OW51244   2.849   8.095   0.878 -0.0423  0.3629 -0.3829
15819SOL    HW151245   2.765   8.068   0.914 -0.4031  0.8363 -0.8689
15819SOL    HW251246   2.875   8.022   0.822 -1.2150  1.1397 -2.0220
15820SOL     OW51247   5.549   4.560   5.944  0.8901  0.0553 -0.0513
15820SOL    HW151248   5.487   4.486   5.945  0.7723  0.1119 -1.3143
15820SOL    HW251249   5.635   4.519   5.940  0.7999 -0.0639 -1.7077
15821SOL     OW51250   0.317   1.882   6.730 -0.0716  0.6437  0.3642
15821SOL    HW151251   0.334   1.815   6.664 -1.9169 -0.5434  1.0345
15821SOL    HW251252   0.398   1.887   6.781  0.0480 -1.1762  0.3900
15822SOL     OW51253  10.258   9.738   1.165 -0.3122  0.9545  0.4369
15822SOL    HW151254  10.255   9.789   1.246 -0.6112  1.2510  0.2425
15822SOL    HW251255  10.271   9.648   1.193  0.4405  1.1663  0.7747
15823SOL     OW51256   2.104   7.686   4.448 -0.6889  0.0149  0.0369
15823SOL    HW151257   2.109   7.668   4.354 -3.1075  1.2094 -0.4036
15823SOL    HW251258   2.025   7.642   4.478 -1.0755  1.3053  1.0486
15824SOL     OW51259   7.589   6.912   7.173  0.2715 -0.3997 -0.1083
15824SOL    HW151260   7.621   6.918   7.263 -1.4246 -0.2219  0.5191
15824SOL    HW251261   7.517   6.850   7.177 -0.2115  0.0527 -1.2324
15825SOL     OW51262   3.344   3.920   6.051 -0.5385 -0.5903 -0.3263
15825SOL    HW151263   3.257   3.885   6.031 -1.0852  1.0023 -0.8418
15825SOL    HW251264   3.329   3.983   6.122 -0.1339  1.1001 -1.6767
15826SOL     OW51265   5.711   0.430   5.948  0.3605 -0.0643 -0.1735
15826SOL    HW151266   5.649   0.490   5.988 -0.6067 -1.5164  0.6163
15826SOL    HW251267   5.656   0.373   5.894  1.1405 -0.7062 -0.3008
15827SOL     OW51268   2.589   5.162   2.218  0.3404  0.3162 -0.2183
15827SOL    HW151269   2.548   5.201   2.295  0.3089 -0.4852  0.1809
15827SOL    HW251270   2.646   5.232   2.184  1.7109  0.1533  1.5492
15828SOL     OW51271   9.453   1.770   4.325  0.0121 -0.3541  0.5232
15828SOL    HW151272   9.546   1.776   4.346 -0.1502  0.7653  0.9903
15828SOL    HW251273   9.441   1.680   4.294  1.0365 -0.8428  1.4823
15829SOL     OW51274   7.831   3.145   1.311  0.2976  0.5703  0.3281
15829SOL    HW151275   7.894   3.122   1.379 -0.7640 -2.2132  0.5152
15829SOL    HW251276   7.776   3.212   1.351  0.3671 -0.2433  1.8668
15830SOL     OW51277   5.564   1.521   2.526 -0.1199  0.2107 -0.0822
15830SOL    HW151278   5.577   1.488   2.437 -0.1910 -0.7531  0.2446
15830SOL    HW251279   5.652   1.544   2.556  0.0962 -0.7232  0.0519
15831SOL     OW51280   4.851   6.076   6.131 -0.1852 -0.1356  0.2437
15831SOL    HW151281   4.912   6.012   6.166 -0.0713  0.5687  1.4098
15831SOL    HW251282   4.764   6.044   6.158 -0.2137 -0.3960 -0.1655
15832SOL     OW51283   2.869   4.357   4.313  0.6498 -0.1574  0.1889
15832SOL    HW151284   2.833   4.288   4.369 -2.3324  1.1506  0.0852
15832SOL    HW251285   2.869   4.435   4.368  0.0096  0.6209 -0.8747
15833SOL     OW51286   1.285   4.690   6.152 -0.2110 -0.4497 -0.2731
15833SOL    HW151287   1.219   4.746   6.193  0.7611 -0.9389  2.0766
15833SOL    HW251288   1.239   4.647   6.080 -2.1888 -0.0461  0.6943
15834SOL     OW51289   4.581   7.129   1.613  0.6662 -0.2885  0.4047
15834SOL    HW151290   4.585   7.066   1.686 -0.3801 -0.1907  0.5596
15834SOL    HW251291   4.660   7.181   1.623  0.8169 -0.6359  1.1468
15835SOL     OW51292   1.166   5.455   1.453  0.5949 -0.1219  0.0586
15835SOL    HW151293   1.123   5.535   1.482  0.5493  1.1207 -3.0770
15835SOL    HW251294   1.099   5.408   1.404  1.4552 -0.5732 -0.7194
15836SOL     OW51295   5.464  10.319   3.754  0.9508 -0.1027 -0.1977
15836SOL    HW151296   5.458  10.377   3.678  0.2376  0.1831  0.0698
15836SOL    HW251297   5.516  10.367   3.817  2.7711 -0.9135 -1.0048
15837SOL     OW51298   5.804   8.139   0.960 -0.1420 -0.1760  0.5887
15837SOL    HW151299   5.884   8.100   0.924 -0.8648  0.8022 -2.3456
15837SOL    HW251300   5.774   8.199   0.892 -2.0438  1.3716  2.6684
15838SOL     OW51301   4.129   4.925   9.990  0.2367  0.2481  0.3794
15838SOL    HW151302   4.050   4.881  10.022 -0.2511  0.7125 -0.1610
15838SOL    HW251303   4.174   4.953  10.068 -0.5720  0.7332  0.6828
15839SOL     OW51304   0.694   3.663   2.719 -0.2505  0.0600  0.8171
15839SOL    HW151305   0.690   3.586   2.775  0.6379 -1.3476 -0.9733
15839SOL    HW251306   0.785   3.693   2.725 -0.0189 -0.3995 -0.2203
15840SOL     OW51307   9.807   5.898   0.059  0.1697 -0.2187  0.4249
15840SOL    HW151308   9.717   5.926   0.042 -0.0753 -2.0837 -2.0341
15840SOL    HW251309   9.798   5.822   0.117 -0.1600 -1.9526 -1.7570
15841SOL     OW51310   5.269   3.741   0.185  0.2140  0.4154 -0.6902
15841SOL    HW151311   5.277   3.807   0.116 -1.8536 -0.8427 -2.2344
15841SOL    HW251312   5.219   3.670   0.145  0.0494 -0.9472  1.7427
15842SOL     OW51313   6.050   8.419   0.601 -0.4605  0.0117  0.3793
15842SOL    HW151314   5.987   8.464   0.656 -0.8785 -0.1628  0.0449
15842SOL    HW251315   5.997   8.363   0.544 -0.1603  1.2779 -1.2322
15843SOL     OW51316   5.201   5.869   8.885 -0.3736 -0.5116  0.7091
15843SOL    HW151317   5.271   5.913   8.836 -0.7398 -2.0166 -1.2818
15843SOL    HW251318   5.186   5.926   8.961  1.4965  0.9719  0.0541
15844SOL     OW51319   1.862  10.337   9.619 -0.1473  0.2130  0.4309
15844SOL    HW151320   1.794  10.386   9.666 -1.3664 -3.0869  2.4205
15844SOL    HW251321   1.941  10.350   9.672 -0.9470 -1.4845  2.1679
15845SOL     OW51322   4.161  10.147   1.502 -0.0220  0.2862 -0.4940
15845SOL    HW151323   4.068  10.168   1.495 -1.0517 -3.5887 -0.7237
15845SOL    HW251324   4.177  10.140   1.596  0.1251  1.2565 -0.4451
15846SOL     OW51325   8.867   9.737   2.915  0.3840 -0.4947 -0.5893
15846SOL    HW151326   8.910   9.796   2.853 -1.1179  1.1883 -0.1107
15846SOL    HW251327   8.775   9.738   2.890  0.2186 -2.2265 -0.1960
15847SOL     OW51328   5.683   0.100   4.511  0.0990 -0.5352  0.0496
15847SOL    HW151329   5.684   0.186   4.470  0.1565 -0.1573  0.8300
15847SOL    HW251330   5.642   0.043   4.446  1.0154 -0.1431 -0.8994
15848SOL     OW51331   4.578   1.205   2.092  0.1777  0.0012 -0.2664
15848SOL    HW151332   4.491   1.172   2.067  0.9391 -2.0783 -0.3032
15848SOL    HW251333   4.597   1.272   2.026 -0.9522 -0.2363 -0.8682
15849SOL     OW51334   0.895   7.533   7.298  0.0435  0.0417  0.4068
15849SOL    HW151335   0.979   7.577   7.284 -0.1915  0.0830 -0.9227
15849SOL    HW251336   0.908   7.444   7.265 -0.9693  0.5794 -1.5739
15850SOL     OW51337   1.335   9.220   0.919 -0.0074  0.0869  0.0598
15850SOL    HW151338   1.288   9.180   0.992  0.7116 -0.0228  0.4778
15850SOL    HW251339   1.380   9.147   0.876  1.6739  0.4535  1.0984
15851SOL     OW51340   7.904   9.929   1.432  0.2858  0.4378  0.1838
15851SOL    HW151341   7.880   9.981   1.508 -0.4673  1.1236 -0.5021
15851SOL    HW251342   7.842   9.857   1.430 -1.4883  1.9126 -1.2816
15852SOL     OW51343   3.582   3.702   1.511  0.2164 -0.0782 -0.2684
15852SOL    HW151344   3.640   3.778   1.516 -1.0033  0.8315  0.7140
15852SOL    HW251345   3.503   3.735   1.468 -0.1363 -0.9308 -0.2916
15853SOL     OW51346   9.892   4.803   9.760  0.3709 -0.0555 -0.1502
15853SOL    HW151347   9.889   4.712   9.731 -1.7472 -0.9870  2.5328
15853SOL    HW251348   9.874   4.854   9.682  0.4101 -1.9936 -1.4970
15854SOL     OW51349   7.779   7.411   5.239 -0.0624 -0.5744 -0.6685
15854SOL    HW151350   7.776   7.363   5.157  1.1236 -1.1539 -0.4012
15854SOL    HW251351   7.832   7.489   5.218  1.7840 -1.6027 -0.0725
15855SOL     OW51352   5.080   6.095   5.753 -0.0130 -0.1479 -0.1473
15855SOL    HW151353   4.999   6.129   5.789 -0.6945 -1.5698 -0.2683
15855SOL    HW251354   5.128   6.061   5.830 -0.7469 -1.7144 -0.3427
15856SOL     OW51355   0.110   8.462   8.612  0.0332 -0.5172 -0.1144
15856SOL    HW151356   0.019   8.491   8.615  0.0813 -0.3970  0.2222
15856SOL    HW251357   0.108   8.374   8.650  0.1464 -0.2809  0.4471
15857SOL     OW51358   1.071   8.672   3.799  0.1433  0.4597 -0.1956
15857SOL    HW151359   1.031   8.752   3.834 -0.3413  0.6507 -1.1424
15857SOL    HW251360   1.109   8.699   3.715  0.2919 -0.2177 -0.3528
15858SOL     OW51361   0.982   9.569   6.919  0.4253 -0.2603 -0.5356
15858SOL    HW151362   1.009   9.517   6.995 -1.3757 -0.5771 -0.0706
15858SOL    HW251363   0.970   9.657   6.954 -2.9372 -0.9053  0.2399
15859SOL     OW51364   0.263   7.418   6.753 -1.0572  0.2133  0.3104
15859SOL    HW151365   0.311   7.388   6.675 -0.8306  1.5001 -0.0580
15859SOL    HW251366   0.254   7.512   6.741 -1.8990  0.2837  1.3750
15860SOL     OW51367   8.919   3.683   3.621  0.0948  0.2811 -0.1307
15860SOL    HW151368   8.927   3.623   3.695  2.2365  0.0858 -0.4727
15860SOL    HW251369   8.935   3.629   3.544 -1.0832  0.6980 -0.6998
15861SOL     OW51370   7.493   3.409   2.697 -0.0566  0.1117  0.0552
15861SOL    HW151371   7.577   3.423   2.741  0.0991 -1.1218  0.2036
15861SOL    HW251372   7.431   3.460   2.748  0.3339 -0.2956  0.9647
15862SOL     OW51373   0.127   2.944   7.371  0.1138  0.0994  0.2421
15862SOL    HW151374   0.169   2.898   7.444 -2.5639  0.7409  2.3271
15862SOL    HW251375   0.124   3.035   7.399 -2.7096  0.0632  0.3325
15863SOL     OW51376   5.513   6.369   0.481  0.8265  0.4900 -0.3823
15863SOL    HW151377   5.603   6.349   0.457  0.1492 -2.9653 -0.5086
15863SOL    HW251378   5.463   6.291   0.457 -1.5181  0.6071  3.2735
15864SOL     OW51379   1.387   2.791  10.171  0.5077 -0.1251 -0.1701
15864SOL    HW151380   1.329   2.717  10.186 -1.2057  1.2014  0.0246
15864SOL    HW251381   1.329   2.867  10.171  2.3595  1.3470  0.7993
15865SOL     OW51382   4.156   5.518   6.770  0.5067 -0.0775 -0.3128
15865SOL    HW151383   4.196   5.436   6.741  0.0601 -0.8791  1.2310
15865SOL    HW251384   4.063   5.497   6.781  1.0116 -0.8107  4.5704
15866SOL     OW51385   0.175   0.281   2.972  0.1988  0.2210 -0.2336
15866SOL    HW151386   0.222   0.363   2.984 -0.3455  0.6229 -0.8205
15866SOL    HW251387   0.209   0.224   3.041 -1.0742  1.6721  1.7248
15867SOL     OW51388   1.977   1.943   4.909 -0.4083  0.4073 -0.3140
15867SOL    HW151389   1.909   1.899   4.960  1.2602 -1.4702  0.4016
15867SOL    HW251390   2.033   1.985   4.974  1.7174 -1.9803 -0.4497
15868SOL     OW51391   2.975   8.043   3.414  0.3188  0.3846 -0.4787
15868SOL    HW151392   2.999   8.078   3.328  1.2743 -1.0557 -0.8335
15868SOL    HW251393   2.932   7.959   3.394 -0.1493  0.3988  0.4254
15869SOL     OW51394   5.837   5.688   1.277 -0.2635  0.0344  0.0964
15869SOL    HW151395   5.835   5.784   1.283 -0.7246  0.0450 -0.1951
15869SOL    HW251396   5.745   5.662   1.269 -0.0523 -0.2886 -1.9019
15870SOL     OW51397   5.450   0.316   2.417 -0.2768  0.0267  0.1516
15870SOL    HW151398   5.534   0.352   2.444  0.4892 -0.4974 -1.4242
15870SOL    HW251399   5.473   0.237   2.368 -1.7024 -0.2876 -0.0460
15871SOL     OW51400  10.334   2.014   3.621  0.2336 -0.3596  0.4164
15871SOL    HW151401  10.317   1.920   3.619 -0.3208 -0.2644  0.6330
15871SOL    HW251402  10.366   2.034   3.533 -1.2152 -0.4611 -0.1591
15872SOL     OW51403   0.808   1.490   6.626 -0.2365 -0.1052  0.4717
15872SOL    HW151404   0.856   1.531   6.699  1.2866 -0.9630  0.0005
15872SOL    HW251405   0.811   1.396   6.645 -1.3921 -0.2164  0.1972
15873SOL     OW51406   5.752   3.220   9.467 -0.6308 -0.2922  0.2807
15873SOL    HW151407   5.698   3.168   9.527  0.2477 -1.6842 -0.0923
15873SOL    HW251408   5.817   3.158   9.433  1.3057  1.3065  0.8164
15874SOL     OW51409   9.951   7.120   7.795 -0.0159  0.2205  0.0890
15874SOL    HW151410   9.918   7.198   7.750  0.7618 -0.1712 -1.2404
15874SOL    HW251411   9.902   7.116   7.876 -1.9998  0.5989 -1.0227
15875SOL     OW51412   4.127   9.404   2.724  0.0079 -0.4299 -0.3969
15875SOL    HW151413   4.158   9.355   2.648 -0.9646  1.8404 -2.3871
15875SOL    HW251414   4.198   9.466   2.743  0.4581 -1.3098  0.9129
15876SOL     OW51415   3.142   1.681   5.861 -0.2844 -0.1092  0.0631
15876SOL    HW151416   3.086   1.608   5.888 -2.3378  1.2863 -0.2067
15876SOL    HW251417   3.159   1.664   5.768 -0.6964 -0.2788  0.0161
15877SOL     OW51418   4.804   9.528   2.491  0.0127 -0.1626  0.4472
15877SOL    HW151419   4.898   9.509   2.485 -0.3306 -2.0562  0.5652
15877SOL    HW251420   4.789   9.593   2.422  1.1851 -0.8261 -0.4797
15878SOL     OW51421   1.934   2.359   6.834  0.0153 -0.4702 -0.1849
15878SOL    HW151422   1.933   2.263   6.839 -2.4671 -0.4770  0.4997
15878SOL    HW251423   1.934   2.378   6.740 -0.7673 -1.1894 -0.3486
15879SOL     OW51424   1.225   8.062   5.649 -0.2438  0.0340 -0.5950
15879SOL    HW151425   1.173   8.120   5.594 -0.5805 -0.2083 -0.5377
15879SOL    HW251426   1.168   7.986   5.664  0.7607 -1.0398 -1.9716
15880SOL     OW51427   7.046   1.926   9.077 -0.5065 -0.3638  0.0589
15880SOL    HW151428   7.113   1.964   9.020 -1.8251  0.2798 -1.1469
15880SOL    HW251429   6.972   1.987   9.070 -1.6281 -1.6351  0.4331
15881SOL     OW51430   6.641   1.512   5.716 -0.2331 -0.0405 -0.2381
15881SOL    HW151431   6.642   1.586   5.656 -0.8057 -0.5245 -0.8611
15881SOL    HW251432   6.725   1.517   5.762  0.0665  0.5420 -0.8337
15882SOL     OW51433   1.172   5.685   0.047 -0.1825 -0.1394  0.4439
15882SOL    HW151434   1.150   5.711  -0.042 -1.7142 -1.6628  0.3430
15882SOL    HW251435   1.114   5.737   0.103 -1.9650 -1.9043  0.3252
15883SOL     OW51436   6.936   6.593   3.211  0.2830  0.4988  0.3451
15883SOL    HW151437   7.018   6.641   3.203 -0.4431  1.7790  0.3788
15883SOL    HW251438   6.924   6.581   3.305  0.1718  0.7585  0.3629
15884SOL     OW51439   2.654   2.160   6.912 -0.2336  0.0891 -0.1182
15884SOL    HW151440   2.653   2.108   6.832 -0.6622 -0.2588  0.1058
15884SOL    HW251441   2.679   2.248   6.884  1.4103 -0.4224 -0.3840
15885SOL     OW51442   5.343   6.289   9.664 -0.1116  0.2135 -0.4398
15885SOL    HW151443   5.376   6.366   9.710 -0.7027  0.4301 -0.3624
15885SOL    HW251444   5.354   6.218   9.726 -0.0351  0.3303 -0.3175
15886SOL     OW51445   7.486   5.944   0.350  0.2210 -0.3011 -0.2365
15886SOL    HW151446   7.522   6.006   0.286  0.5836 -0.7071 -0.4322
15886SOL    HW251447   7.510   5.982   0.435 -1.0088  0.6882 -0.3059
15887SOL     OW51448   4.112   5.247   6.028  0.2651  0.1899  0.2119
15887SOL    HW151449   4.196   5.202   6.033  0.2688  0.2047  0.2918
15887SOL    HW251450   4.117   5.298   5.947  0.6579  0.8378  0.6291
15888SOL     OW51451   3.752   6.726   0.718  0.0942  0.3375  0.3920
15888SOL    HW151452   3.657   6.731   0.708 -0.0726 -1.6526  0.5040
15888SOL    HW251453   3.779   6.654   0.661  1.4705  0.5225  0.7655
15889SOL     OW51454   6.521   5.230   2.584  0.0664 -0.1559 -0.4193
15889SOL    HW151455   6.574   5.296   2.539 -1.4572 -0.3583 -2.6307
15889SOL    HW251456   6.450   5.279   2.624  0.9025 -0.0914  1.0550
15890SOL     OW51457   3.606   8.101   3.989  0.0712  0.3210  0.6320
15890SOL    HW151458   3.569   8.019   4.024 -0.0493  0.6526  1.3038
15890SOL    HW251459   3.694   8.105   4.027 -0.0581  0.6834  0.9003
15891SOL     OW51460   0.874   8.599  10.061 -0.2513  0.0068  0.3370
15891SOL    HW151461   0.958   8.645  10.067 -0.4916  0.3547  1.0690
15891SOL    HW251462   0.828   8.622  10.141 -0.6261 -1.0306  0.4357
15892SOL     OW51463   6.007   1.851   9.116  0.0820  0.4313 -0.3797
15892SOL    HW151464   6.001   1.873   9.209  0.8571  0.3164 -0.2961
15892SOL    HW251465   6.040   1.761   9.115  0.7400  0.6654 -0.7670
15893SOL     OW51466   0.047   5.895   3.735 -0.4623  0.2077  0.1295
15893SOL    HW151467   0.029   5.853   3.650 -1.5997  0.1669  0.3722
15893SOL    HW251468   0.139   5.875   3.753 -0.1368  0.4043 -1.2011
15894SOL     OW51469   1.409   2.151   2.872  0.3896  0.6833 -0.5565
15894SOL    HW151470   1.460   2.119   2.946 -1.0427 -0.4840 -0.0395
15894SOL    HW251471   1.442   2.100   2.797 -0.6229 -0.7472 -0.0601
15895SOL     OW51472   4.592   5.811   0.975  0.4961  0.1472  0.3651
15895SOL    HW151473   4.565   5.902   0.987  0.9686  0.1653  1.4848
15895SOL    HW251474   4.510   5.763   0.964  0.3097  0.9709 -2.7253
15896SOL     OW51475   1.921   9.255   5.024  0.2586 -0.1195  0.2999
15896SOL    HW151476   1.928   9.279   4.931 -0.6444  0.2373  0.3099
15896SOL    HW251477   2.009   9.271   5.059  0.6543 -0.4040 -0.5233
15897SOL     OW51478   2.809   6.671   8.733 -0.6124  0.0306  0.0993
15897SOL    HW151479   2.817   6.763   8.761  0.6499  0.2323 -0.8136
15897SOL    HW251480   2.782   6.676   8.642 -1.1131 -0.5320  0.2109
15898SOL     OW51481   2.429   7.005   0.950  0.2550  0.1869 -0.1543
15898SOL    HW151482   2.392   6.923   0.916  1.5507  0.0292 -1.2606
15898SOL    HW251483   2.486   6.979   1.022  1.0531  0.0484 -0.8249
15899SOL     OW51484   5.933   1.685   7.715  0.1479 -0.5195 -0.3449
15899SOL    HW151485   6.001   1.679   7.648  1.5217 -1.8685  1.0882
15899SOL    HW251486   5.937   1.775   7.746 -1.5083  0.5791 -2.9834
15900SOL     OW51487   0.548   3.571   9.918  0.1423  0.1316  0.0329
15900SOL    HW151488   0.570   3.560  10.010  2.8554  1.5761 -0.3506
15900SOL    HW251489   0.551   3.482   9.882 -0.9002 -0.4404  1.2709
15901SOL     OW51490   6.583   9.547   6.468  0.5307  0.6410 -0.0312
15901SOL    HW151491   6.577   9.611   6.539 -0.2401  1.5112 -0.8601
15901SOL    HW251492   6.676   9.526   6.463  0.5795  0.4759  1.3057
15902SOL     OW51493   0.922   6.178   0.991  0.1157 -0.2408  0.0415
15902SOL    HW151494   1.016   6.175   1.009 -0.1007  1.6487  1.8937
15902SOL    HW251495   0.884   6.121   1.057 -0.0915 -0.5254 -0.3225
15903SOL     OW51496   5.833   1.228   4.137  0.0023 -0.4658 -0.2431
15903SOL    HW151497   5.751   1.255   4.178 -0.4129 -1.4386 -0.4058
15903SOL    HW251498   5.899   1.289   4.172 -0.8018  0.4251 -0.2358
15904SOL     OW51499  10.346   9.417   9.857 -0.3047  0.6283  0.1008
15904SOL    HW151500  10.363   9.497   9.906 -0.9485  0.8629 -0.0449
15904SOL    HW251501  10.427   9.401   9.808  0.1266  0.7209  0.7723
15905SOL     OW51502   5.454   2.705   2.290  0.2395  0.3923  0.4541
15905SOL    HW151503   5.536   2.754   2.287  0.8835 -0.6211  1.0011
15905SOL    HW251504   5.434   2.697   2.383 -0.5051  0.6573  0.3258
15906SOL     OW51505   2.935   4.543   0.698 -0.0211  0.2462 -0.7263
15906SOL    HW151506   2.880   4.621   0.697 -0.6131 -0.1516 -0.4392
15906SOL    HW251507   2.998   4.556   0.627  0.5951  1.4750  0.0090
15907SOL     OW51508   4.263   2.309   0.163 -0.3304 -0.0253  0.4455
15907SOL    HW151509   4.199   2.302   0.091 -0.4273  1.3891  0.3686
15907SOL    HW251510   4.338   2.257   0.134 -0.4242  0.4139 -0.6316
15908SOL     OW51511   6.683   6.911   1.724 -0.2469 -0.0378  0.1010
15908SOL    HW151512   6.614   6.851   1.696  0.8429 -0.2960 -2.2414
15908SOL    HW251513   6.734   6.860   1.788 -0.4581 -0.9431 -0.4243
15909SOL     OW51514   9.447   6.730   6.727  0.1272 -0.0646 -0.1631
15909SOL    HW151515   9.450   6.636   6.712  3.3737  0.0569 -1.0690
15909SOL    HW251516   9.357   6.748   6.753 -0.7702 -3.2821 -0.6833
15910SOL     OW51517   7.649   6.114   8.709 -0.0782  0.2359  0.0524
15910SOL    HW151518   7.650   6.209   8.717 -1.1992  0.2798 -0.1259
15910SOL    HW251519   7.624   6.098   8.618 -0.2014 -0.2282  0.1649
15911SOL     OW51520   5.450   6.502   9.886 -0.4218 -0.1495  0.1830
15911SOL    HW151521   5.370   6.509   9.938  0.9208  0.1073  2.3488
15911SOL    HW251522   5.473   6.592   9.863  0.2388 -0.0360  1.2252
15912SOL     OW51523   9.181  10.300   9.408 -0.1764 -0.0378 -0.0952
15912SOL    HW151524   9.232  10.236   9.360 -0.5631  0.2712 -0.9422
15912SOL    HW251525   9.096  10.301   9.364 -0.8893 -0.4753  1.2212
15913SOL     OW51526   8.033   4.520   1.138 -0.0732  0.6822 -0.3570
15913SOL    HW151527   7.965   4.583   1.113  1.9227  2.9676 -0.4142
15913SOL    HW251528   8.112   4.573   1.146  1.2802 -1.4873  1.8663
15914SOL     OW51529   6.764   9.496   7.426 -0.7395 -0.6568 -0.4817
15914SOL    HW151530   6.728   9.562   7.366 -1.5261 -0.2131  0.4427
15914SOL    HW251531   6.716   9.510   7.508  2.8444  1.3240  1.5414
15915SOL     OW51532   8.749   3.912   3.069 -0.2796 -0.4850 -0.1798
15915SOL    HW151533   8.774   3.943   3.156  0.5774  1.2608 -0.9810
15915SOL    HW251534   8.689   3.840   3.085  0.4670 -0.7156  1.8495
15916SOL     OW51535   8.680  10.009   4.932 -0.1155  0.0506 -0.5212
15916SOL    HW151536   8.588  10.020   4.957 -0.1487  0.0448 -0.6417
15916SOL    HW251537   8.727  10.070   4.989 -0.1678 -0.1250 -0.2868
15917SOL     OW51538   3.820   4.233   1.549  0.0441 -0.3035  0.1137
15917SOL    HW151539   3.795   4.284   1.626 -0.3936  1.6042 -1.2070
15917SOL    HW251540   3.915   4.233   1.549  0.0530  0.6638  0.0721
15918SOL     OW51541   6.429   3.842   0.273 -0.7709  0.3751 -0.1140
15918SOL    HW151542   6.458   3.754   0.299 -1.7482  0.2659  0.6669
15918SOL    HW251543   6.499   3.874   0.216 -0.7441 -1.2089 -1.0283
15919SOL     OW51544   3.629   0.651  10.101  0.4001  0.3599 -0.2602
15919SOL    HW151545   3.611   0.714  10.170 -1.5484  0.3345 -0.7010
15919SOL    HW251546   3.626   0.566  10.145 -2.5667  0.1949 -0.5635
15920SOL     OW51547   1.171   9.712   1.436 -0.4470  0.3025  0.2275
15920SOL    HW151548   1.220   9.682   1.512  0.6468 -0.6663 -0.8160
15920SOL    HW251549   1.234   9.765   1.386 -0.7966 -0.0017 -0.5595
15921SOL     OW51550   7.294   1.003   7.671  0.1653  0.2553  0.2946
15921SOL    HW151551   7.221   0.968   7.722 -0.0759 -0.5298 -0.5536
15921SOL    HW251552   7.368   0.947   7.695  0.6306  1.3587  1.5246
15922SOL     OW51553   5.029   2.267   4.563 -0.2625 -0.3546 -0.0410
15922SOL    HW151554   4.973   2.329   4.610  0.0868 -0.2223  0.2007
15922SOL    HW251555   4.971   2.194   4.542 -1.1150  0.7690 -1.7922
15923SOL     OW51556   0.657   2.112   0.612  0.4019  0.1714 -0.4481
15923SOL    HW151557   0.687   2.046   0.549  0.1884 -0.8580  0.4887
15923SOL    HW251558   0.563   2.098   0.619  0.3811  0.4603 -0.1125
15924SOL     OW51559   6.641   2.765   5.323 -0.1591  0.0047  0.3890
15924SOL    HW151560   6.604   2.852   5.310 -0.7157  0.0381  1.9806
15924SOL    HW251561   6.570   2.714   5.362  0.4429 -0.8897  0.3430
15925SOL     OW51562   5.592  10.290   4.311  0.0086  0.5538 -0.1000
15925SOL    HW151563   5.634  10.213   4.272 -0.0714  0.8805 -0.8397
15925SOL    HW251564   5.511  10.256   4.348 -0.5245  0.4461 -1.3283
15926SOL     OW51565   3.108   4.963   6.070 -0.2331 -0.7076  0.0495
15926SOL    HW151566   3.030   5.009   6.040  0.5150  0.1597 -0.6291
15926SOL    HW251567   3.075   4.886   6.117 -1.4774 -0.4003 -0.3039
15927SOL     OW51568   3.385   6.088   7.381  0.0570  0.3240  0.4445
15927SOL    HW151569   3.463   6.047   7.341  0.4497 -0.0073  1.5236
15927SOL    HW251570   3.379   6.049   7.468 -1.9765 -0.4786 -0.0040
15928SOL     OW51571   3.042   8.726   7.991 -0.4762  0.4109 -0.0847
15928SOL    HW151572   3.031   8.810   8.037 -0.3841  0.1605  0.3946
15928SOL    HW251573   2.960   8.716   7.941 -1.5778 -0.4161  1.8050
15929SOL     OW51574   0.320   1.424   1.485 -0.4292 -0.0763 -0.8833
15929SOL    HW151575   0.337   1.485   1.412  0.6687 -1.1128 -1.5243
15929SOL    HW251576   0.310   1.339   1.443  1.7282 -0.9691  0.2522
15930SOL     OW51577   4.009   9.655   4.503  0.9023  0.0983  0.8166
15930SOL    HW151578   3.971   9.717   4.565  1.3663 -1.7459  3.0992
15930SOL    HW251579   3.935   9.603   4.473  0.4468  1.8993 -1.4207
15931SOL     OW51580   5.211   7.657   2.266  0.3832  1.0263  0.5355
15931SOL    HW151581   5.185   7.634   2.177  0.6344  0.3098  0.6370
15931SOL    HW251582   5.133   7.639   2.319  0.6585  0.1028  0.6537
15932SOL     OW51583   4.427   0.214   0.068  0.4464 -0.3795 -1.0228
15932SOL    HW151584   4.465   0.151   0.007  0.1955 -1.0456 -0.5023
15932SOL    HW251585   4.431   0.170   0.153 -2.8028 -1.1108 -1.1114
15933SOL     OW51586   1.728   8.838  10.335  0.2499  0.0971  0.2554
15933SOL    HW151587   1.799   8.843  10.398  1.0179 -0.7471 -0.5075
15933SOL    HW251588   1.771   8.823  10.251 -0.7915  0.3010 -0.3345
15934SOL     OW51589  10.057   2.207   9.795  0.1957 -0.1547  0.2712
15934SOL    HW151590   9.987   2.145   9.775  1.4381 -0.7374 -2.8296
15934SOL    HW251591  10.127   2.153   9.832  0.7511 -0.4013 -1.1069
15935SOL     OW51592   1.005   3.704   9.413  0.5189  0.3472  0.2433
15935SOL    HW151593   0.945   3.631   9.397 -1.1442  1.2784  1.9178
15935SOL    HW251594   1.092   3.666   9.403 -0.3006 -1.2545 -1.4037
15936SOL     OW51595   3.706   9.029   4.292 -0.2546  0.5391 -0.1599
15936SOL    HW151596   3.648   9.065   4.359  0.8199  1.2011  0.4478
15936SOL    HW251597   3.794   9.045   4.326  0.2919 -0.4284 -1.0607
15937SOL     OW51598   9.057   0.858   1.939  0.2130  0.6470 -0.0546
15937SOL    HW151599   9.146   0.837   1.913 -1.3779 -2.2841 -4.0983
15937SOL    HW251600   9.026   0.920   1.872 -1.5440 -0.4912 -0.3572
15938SOL     OW51601   4.292   1.459   5.975  0.9388 -0.5101  0.3028
15938SOL    HW151602   4.197   1.463   5.988  0.8616 -0.5804 -0.2308
15938SOL    HW251603   4.327   1.445   6.063  0.4693 -0.2586  0.5350
15939SOL     OW51604   0.699   3.151   9.650  0.1801 -0.5156 -0.1521
15939SOL    HW151605   0.680   3.088   9.720  1.3131 -2.8081 -1.7910
15939SOL    HW251606   0.771   3.203   9.684 -1.2916  0.5366  1.5554
15940SOL     OW51607   5.632   1.887   1.426 -0.7314  0.2741 -0.2321
15940SOL    HW151608   5.695   1.959   1.430 -0.3668 -0.1116  1.5720
15940SOL    HW251609   5.551   1.925   1.461 -1.2002  0.4355 -1.4470
15941SOL     OW51610  10.258   3.165   9.347  0.2416  0.0929 -0.3034
15941SOL    HW151611  10.333   3.107   9.359  0.6668  0.4815 -0.9871
15941SOL    HW251612  10.252   3.177   9.253  1.1060  2.3315 -0.1427
15942SOL     OW51613   3.599   5.538   3.909  0.0761 -0.3987  0.1300
15942SOL    HW151614   3.581   5.616   3.856 -0.6261  0.1783  1.1658
15942SOL    HW251615   3.523   5.531   3.966 -0.0503 -2.0926 -0.2033
15943SOL     OW51616   3.021   6.194   1.445 -0.4514 -0.1514 -1.1803
15943SOL    HW151617   2.931   6.223   1.457 -0.2179  0.1279 -0.0478
15943SOL    HW251618   3.068   6.273   1.418  0.5495  1.1998  3.5916
15944SOL     OW51619   7.165   1.607   5.226  0.1150  0.5882 -0.5823
15944SOL    HW151620   7.075   1.574   5.225  1.3435 -3.2065 -0.3593
15944SOL    HW251621   7.192   1.607   5.134  0.7725 -1.2909 -0.4334
15945SOL     OW51622   4.169   4.825   4.610 -0.0108 -0.0364 -0.3163
15945SOL    HW151623   4.086   4.867   4.634  0.9385  1.7226  0.0478
15945SOL    HW251624   4.176   4.751   4.670 -0.2606  1.1591  1.2645
15946SOL     OW51625   1.554   6.073   8.238 -0.1000  0.0827 -0.4527
15946SOL    HW151626   1.482   6.022   8.200 -0.2353 -0.6661  0.7713
15946SOL    HW251627   1.609   6.097   8.162 -1.0340 -0.2796 -1.2619
15947SOL     OW51628   4.062   0.231   2.518  0.4836 -0.5180 -0.0177
15947SOL    HW151629   4.128   0.291   2.483  0.4363 -1.1038 -1.1559
15947SOL    HW251630   4.059   0.252   2.612  1.6001  0.1643 -0.1034
15948SOL     OW51631   0.750   8.766   2.249  0.2498  0.1867  0.3812
15948SOL    HW151632   0.835   8.755   2.206  0.4175 -1.6843  1.1334
15948SOL    HW251633   0.716   8.849   2.213  2.6770  1.3643  0.5784
15949SOL     OW51634   2.222   5.861   8.944  0.1613  0.4526  0.0141
15949SOL    HW151635   2.253   5.810   9.019  1.2953  1.8053  0.5103
15949SOL    HW251636   2.199   5.947   8.981  1.8210  1.5332 -1.3099
15950SOL     OW51637   1.540   7.539   3.525 -0.6830  0.1924 -0.0505
15950SOL    HW151638   1.556   7.450   3.557 -0.0704  0.2946 -0.0622
15950SOL    HW251639   1.454   7.562   3.561 -0.7466 -0.3182  0.1363
15951SOL     OW51640   3.515   2.069   8.657 -0.2861 -0.1587 -0.1916
15951SOL    HW151641   3.518   1.974   8.667 -0.3161 -0.1193  0.2151
15951SOL    HW251642   3.499   2.083   8.563 -1.9593 -0.5804 -0.0015
15952SOL     OW51643   4.929   2.174   3.297  0.0720  0.0942  0.0731
15952SOL    HW151644   4.946   2.121   3.219  1.2851 -0.0074  0.3892
15952SOL    HW251645   4.953   2.117   3.370  0.7079  0.8257  0.4458
15953SOL     OW51646   3.700   7.521   8.360 -0.3983 -0.3068  0.0920
15953SOL    HW151647   3.744   7.513   8.276 -1.0820  0.5040 -0.3576
15953SOL    HW251648   3.607   7.508   8.341 -0.5925  0.1473  0.6679
15954SOL     OW51649   2.266   8.280   8.469  0.5043 -0.1386  0.1837
15954SOL    HW151650   2.261   8.374   8.452  0.3173 -0.1891 -0.0440
15954SOL    HW251651   2.179   8.246   8.447  0.9516 -0.5736 -1.0362
15955SOL     OW51652   6.428   6.256   5.386 -0.3234 -0.7228  0.3185
15955SOL    HW151653   6.412   6.339   5.342 -1.6927 -1.0108  0.2328
15955SOL    HW251654   6.470   6.281   5.469 -0.5576  0.0323  0.2178
15956SOL     OW51655   9.580   9.786   6.254  0.2135  0.2789  0.0104
15956SOL    HW151656   9.597   9.813   6.164 -0.7970  0.0811 -0.2533
15956SOL    HW251657   9.663   9.750   6.284  0.5012  0.1433 -0.9163
15957SOL     OW51658   7.231   3.931   8.167  0.4544  0.1490 -0.0976
15957SOL    HW151659   7.325   3.919   8.154  0.2991  0.0163 -1.1908
15957SOL    HW251660   7.192   3.911   8.082 -0.5242  0.6344  0.2175
15958SOL     OW51661   2.100   5.433   6.320  0.1581  0.2343 -0.4970
15958SOL    HW151662   2.141   5.407   6.238 -1.7284 -0.7977 -1.1631
15958SOL    HW251663   2.037   5.500   6.295 -0.7408 -0.4005  0.0344
15959SOL     OW51664   6.092   8.915   7.880 -0.7125  0.1324 -0.0085
15959SOL    HW151665   6.180   8.939   7.907  0.6124 -1.3844 -2.5652
15959SOL    HW251666   6.061   8.856   7.949 -1.0321  2.9052  2.4229
15960SOL     OW51667   9.191   0.268   0.961 -0.1563  0.0727  0.5023
15960SOL    HW151668   9.146   0.224   0.889  0.3197 -1.9163  1.3382
15960SOL    HW251669   9.128   0.267   1.033  0.5869 -1.3033  1.1914
15961SOL     OW51670   0.836   2.570   5.166  0.5502  0.4203  0.2778
15961SOL    HW151671   0.780   2.502   5.204  0.1134  0.3580 -0.4382
15961SOL    HW251672   0.855   2.630   5.238 -1.5688  1.1906  0.2793
15962SOL     OW51673   1.316   7.243   4.378 -0.5720 -0.0777  0.4782
15962SOL    HW151674   1.306   7.284   4.293 -0.5504  0.2546  0.6345
15962SOL    HW251675   1.400   7.198   4.374 -0.5187  0.0340  0.3636
15963SOL     OW51676   8.657   4.468   0.835 -0.4028 -0.1883 -0.2248
15963SOL    HW151677   8.641   4.551   0.881 -3.8621  0.6108 -2.4392
15963SOL    HW251678   8.739   4.482   0.788 -0.3666  1.5930  0.3005
15964SOL     OW51679   2.579   1.245   1.698  0.5006 -0.5577 -0.0293
15964SOL    HW151680   2.568   1.181   1.768 -0.6899  1.6122  1.8951
15964SOL    HW251681   2.674   1.251   1.686  0.7183 -1.1072  1.2579
15965SOL     OW51682   7.688   0.969   7.036 -0.4433 -0.9249  0.7582
15965SOL    HW151683   7.690   0.930   6.949  0.3425 -0.2993  0.4833
15965SOL    HW251684   7.595   0.983   7.054 -0.6453 -1.6399  0.2896
15966SOL     OW51685   9.752   6.083   1.620 -0.0997 -0.0491  0.4703
15966SOL    HW151686   9.667   6.117   1.594 -0.4460 -0.6636  0.7627
15966SOL    HW251687   9.790   6.151   1.676  0.7612  1.4060 -1.7700
15967SOL     OW51688   3.939   7.050   3.362 -0.1094 -0.0821 -0.2714
15967SOL    HW151689   3.962   6.999   3.440  2.3875 -2.2971 -2.2537
15967SOL    HW251690   4.014   7.108   3.348 -1.3901  1.7110 -0.0208
15968SOL     OW51691   1.182   4.089   9.985  0.1928  0.7385 -0.3925
15968SOL    HW151692   1.104   4.126   9.944  0.5635  3.0271  0.7989
15968SOL    HW251693   1.253   4.111   9.925  0.0627 -0.7110 -1.1208
15969SOL     OW51694   2.024   2.379   2.799 -0.5902 -0.0102  0.1824
15969SOL    HW151695   2.055   2.290   2.814 -1.4430 -0.1426  1.2694
15969SOL    HW251696   2.097   2.423   2.756 -0.2044 -1.2573 -0.4936
15970SOL     OW51697   5.146   9.084   8.976  0.2854 -0.2649  0.3559
15970SOL    HW151698   5.200   9.124   8.908 -0.8048 -0.7182 -0.8174
15970SOL    HW251699   5.171   8.992   8.976 -0.1711 -0.3920  0.1069
15971SOL     OW51700   8.377   3.612   3.994 -0.0181 -0.2219  0.5726
15971SOL    HW151701   8.288   3.597   4.024 -0.9155  2.9743 -0.1680
15971SOL    HW251702   8.377   3.583   3.902 -1.2283  2.3556 -0.3307
15972SOL     OW51703   7.492   7.649   5.617 -0.0621 -0.3217  0.8617
15972SOL    HW151704   7.587   7.652   5.613  0.2263 -0.7672  4.3226
15972SOL    HW251705   7.465   7.610   5.534  2.6376  0.9592 -0.7205
15973SOL     OW51706   8.747   2.389   7.120  0.0965  0.8603 -0.3954
15973SOL    HW151707   8.782   2.364   7.205  0.1037 -0.2197 -0.6918
15973SOL    HW251708   8.825   2.403   7.065  0.0995  0.0465 -0.6198
15974SOL     OW51709   5.306   4.012   5.489 -0.7096  0.3373  0.1680
15974SOL    HW151710   5.393   3.975   5.501 -0.5947  0.6794  0.3877
15974SOL    HW251711   5.250   3.958   5.546 -0.6309  0.1648  0.0832
15975SOL     OW51712   7.409   9.810   2.607  0.3490 -0.0644 -0.1055
15975SOL    HW151713   7.335   9.870   2.606  1.2051  1.0290 -1.1130
15975SOL    HW251714   7.392   9.749   2.536  0.5508  0.4016 -0.5679
15976SOL     OW51715   1.892   7.356   4.247  0.0476  0.4601  0.1455
15976SOL    HW151716   1.885   7.261   4.257 -0.6306  0.6442  1.6917
15976SOL    HW251717   1.804   7.384   4.222 -0.0670  0.7961  0.9057
15977SOL     OW51718   7.129   6.541   6.717 -0.3141 -0.1464 -0.0641
15977SOL    HW151719   7.051   6.490   6.695 -1.9317  2.3600 -0.6702
15977SOL    HW251720   7.124   6.552   6.812 -1.4690  1.0218 -0.2249
15978SOL     OW51721   8.358   0.073   5.772  0.1549 -0.1224  0.0310
15978SOL    HW151722   8.441   0.059   5.818  0.0605 -2.1691 -0.3588
15978SOL    HW251723   8.379   0.061   5.679 -0.6447 -1.0841 -0.0390
15979SOL     OW51724   8.971   3.964   2.897  0.0840 -0.2581 -0.0189
15979SOL    HW151725   9.027   3.943   2.972  0.6627  1.7639  0.1521
15979SOL    HW251726   8.882   3.966   2.934  0.5404  2.7941  1.1741
15980SOL     OW51727   1.288   7.402   5.456 -0.3720 -0.4795  0.4074
15980SOL    HW151728   1.324   7.488   5.435 -0.8068  0.0949  1.9279
15980SOL    HW251729   1.212   7.393   5.397 -1.0288  0.7004  1.0532
15981SOL     OW51730   1.726   6.529   8.992  0.6464 -0.6490 -0.2594
15981SOL    HW151731   1.656   6.517   9.056 -0.8572 -2.7562 -2.1410
15981SOL    HW251732   1.715   6.619   8.962  1.0436  0.2047  1.9699
15982SOL     OW51733   3.354   0.406   5.180  0.7143  0.2775 -0.0303
15982SOL    HW151734   3.260   0.419   5.192  0.0524 -0.2407 -3.5366
15982SOL    HW251735   3.378   0.470   5.112  2.0904 -1.8295 -1.6561
15983SOL     OW51736  10.186   5.024   2.621  0.4286 -0.1824  0.4043
15983SOL    HW151737  10.153   4.970   2.550  0.4142 -1.6463  1.4924
15983SOL    HW251738  10.159   4.980   2.701  1.3275  0.8673  1.3388
15984SOL     OW51739   8.554   6.493  10.318 -0.5286 -0.6116 -0.1008
15984SOL    HW151740   8.535   6.522  10.408 -1.7616 -0.4025 -0.4074
15984SOL    HW251741   8.649   6.485  10.315 -0.3983  0.2515  0.9673
15985SOL     OW51742   1.402   3.418   9.638  0.2663 -0.1499 -0.5779
15985SOL    HW151743   1.392   3.337   9.688 -0.0827  0.2227 -0.0440
15985SOL    HW251744   1.494   3.440   9.647 -0.0077  0.5123  0.8407
15986SOL     OW51745   6.316   9.470   9.125 -1.1423  0.1911  0.2312
15986SOL    HW151746   6.303   9.565   9.130  0.1855  0.3353  2.4732
15986SOL    HW251747   6.392   9.459   9.068 -1.0595  0.4997  0.2803
15987SOL     OW51748   3.400   2.821   3.859  0.0250  0.1029  0.1754
15987SOL    HW151749   3.362   2.735   3.877  2.0700 -0.9400 -0.2273
15987SOL    HW251750   3.442   2.847   3.941  0.8076 -0.0439 -0.1739
15988SOL     OW51751   8.185   7.941   1.042 -0.2150  0.3095 -0.0227
15988SOL    HW151752   8.122   7.874   1.069 -0.0145 -0.4825 -1.4224
15988SOL    HW251753   8.150   8.023   1.078 -2.2814 -0.0397 -1.0790
15989SOL     OW51754   0.178   7.881   9.752  0.2079  0.4371  0.2898
15989SOL    HW151755   0.248   7.860   9.813  0.2552  1.3215  0.5570
15989SOL    HW251756   0.112   7.926   9.805 -0.1021  0.5156 -0.1519
15990SOL     OW51757   8.311   6.221   3.204 -0.3653 -0.6079 -0.0949
15990SOL    HW151758   8.247   6.159   3.167  0.4426  0.2274 -3.1315
15990SOL    HW251759   8.391   6.170   3.214 -0.1471 -0.4578 -1.0455
15991SOL     OW51760   7.278   7.740   1.967  0.4568 -0.0677 -0.0294
15991SOL    HW151761   7.297   7.831   1.991 -0.8750  0.5180 -1.0389
15991SOL    HW251762   7.183   7.733   1.974  0.4725 -1.1514 -0.7071
15992SOL     OW51763   5.591   2.609   3.754 -0.4464  0.7592  0.0296
15992SOL    HW151764   5.682   2.612   3.782 -0.6257 -1.5358  1.0074
15992SOL    HW251765   5.594   2.579   3.664 -0.2644 -1.0199  0.5936
15993SOL     OW51766   2.275   6.324   4.661  0.2823 -0.3104  0.1543
15993SOL    HW151767   2.215   6.341   4.588  0.3312  0.1591  0.2203
15993SOL    HW251768   2.360   6.309   4.619  0.2967 -0.1058  0.1086
15994SOL     OW51769   7.800  10.256   8.382  0.0493 -0.1187 -0.2353
15994SOL    HW151770   7.709  10.240   8.356  0.5101 -1.8156 -0.9126
15994SOL    HW251771   7.833  10.318   8.317 -0.4410  0.0458 -0.3357
15995SOL     OW51772   6.270   6.238   5.911  0.1128  0.0971  0.0075
15995SOL    HW151773   6.275   6.302   5.841  2.5907  1.0821  1.0066
15995SOL    HW251774   6.319   6.276   5.983 -0.9604 -1.5959  1.7359
15996SOL     OW51775   6.340   7.010   1.737  0.0337 -0.0492 -0.3433
15996SOL    HW151776   6.350   7.104   1.721 -1.0212  0.3825  1.2940
15996SOL    HW251777   6.387   6.969   1.664  0.6017  1.7284 -1.0566
15997SOL     OW51778   9.902   2.869   0.242  0.1646 -0.2157 -0.5774
15997SOL    HW151779   9.962   2.859   0.168 -0.7172 -0.8820 -1.2201
15997SOL    HW251780   9.944   2.935   0.298  0.9801  0.0904 -1.5204
15998SOL     OW51781   5.310   0.505   2.207  0.3147 -0.2944 -0.1206
15998SOL    HW151782   5.269   0.527   2.291  0.2493 -0.1200 -0.1971
15998SOL    HW251783   5.270   0.566   2.145  0.9408  0.1074 -0.1353
15999SOL     OW51784   3.439   1.149   0.868  0.1594  0.6273  0.1844
15999SOL    HW151785   3.461   1.215   0.934  0.2758  0.1504  0.6285
15999SOL    HW251786   3.460   1.191   0.784  2.0049  0.4892  0.5388
16000SOL     OW51787   1.061   1.274   3.217  0.0710  0.3569 -0.1151
16000SOL    HW151788   0.969   1.257   3.236  0.5055 -1.1499  0.7768
16000SOL    HW251789   1.076   1.364   3.247 -0.7101  0.0475  1.2443
16001SOL     OW51790   7.260   0.319   8.059  0.1039  0.0341 -0.4837
16001SOL    HW151791   7.307   0.398   8.084  2.0597 -0.9804 -0.7583
16001SOL    HW251792   7.326   0.250   8.061 -1.2807 -1.3935 -1.3900
16002SOL     OW51793   7.733   3.027   7.051  0.3031 -0.2295 -0.2935
16002SOL    HW151794   7.718   2.945   7.097  1.7754 -0.3731 -0.0146
16002SOL    HW251795   7.819   3.057   7.082 -0.6135  1.9321  0.3728
16003SOL     OW51796   8.458   6.041   7.309 -0.1789 -0.4300  0.1238
16003SOL    HW151797   8.397   5.968   7.294 -0.9446 -0.0577  1.2720
16003SOL    HW251798   8.506   6.049   7.227 -0.6813 -1.6717 -0.3239
16004SOL     OW51799   8.269   2.339   5.454  0.1450  0.0331 -0.1763
16004SOL    HW151800   8.186   2.356   5.496 -0.0359  1.2085 -0.9432
16004SOL    HW251801   8.281   2.244   5.460 -1.4271 -0.2004 -0.4005
16005SOL     OW51802   2.677   9.679   9.940  0.2782 -0.7995  0.1560
16005SOL    HW151803   2.605   9.637   9.892  0.5778 -1.3562  0.1861
16005SOL    HW251804   2.659   9.658  10.032  0.1041 -0.3505  0.2286
16006SOL     OW51805   1.839   3.770   0.147 -0.4630  0.0274  0.1479
16006SOL    HW151806   1.778   3.721   0.093  0.2214  1.5214 -2.1157
16006SOL    HW251807   1.784   3.831   0.196 -1.0234 -0.7943  0.5688
16007SOL     OW51808   1.814   3.652   7.291  0.1813  0.5607 -0.4475
16007SOL    HW151809   1.796   3.564   7.256 -1.4661  1.0912 -1.0015
16007SOL    HW251810   1.834   3.705   7.214  0.1947  0.9046 -0.2077
16008SOL     OW51811   5.947   1.933   9.483  0.5373  0.6190 -0.3373
16008SOL    HW151812   5.921   1.992   9.553 -0.1684  0.9363 -0.8435
16008SOL    HW251813   6.033   1.964   9.455  1.2908 -0.1508  1.0670
16009SOL     OW51814  10.316   9.621   8.889  0.1327  0.1112  0.2362
16009SOL    HW151815  10.386   9.566   8.922  0.5289  0.1407 -0.5348
16009SOL    HW251816  10.239   9.565   8.889  0.7760 -0.8468 -1.6724
16010SOL     OW51817   1.675   6.449   8.411  1.2071  0.3384  0.0510
16010SOL    HW151818   1.743   6.438   8.478  0.0314 -1.2441  1.0576
16010SOL    HW251819   1.610   6.383   8.432 -0.2078  1.1759 -1.4585
16011SOL     OW51820   3.097   3.001   7.251 -0.5267 -0.2857  0.1058
16011SOL    HW151821   3.025   3.061   7.236 -0.9227 -0.6695  0.4543
16011SOL    HW251822   3.062   2.935   7.310 -0.6759 -1.9291 -1.7432
16012SOL     OW51823   3.760   4.463   3.500  0.2719  0.2706 -0.1321
16012SOL    HW151824   3.739   4.519   3.425 -0.0644  2.9221  1.8022
16012SOL    HW251825   3.849   4.431   3.482  0.5571  1.5936 -1.2526
16013SOL     OW51826   7.262   1.405   9.958  0.4510 -0.1630  0.6626
16013SOL    HW151827   7.347   1.440   9.933 -0.7866  0.9619 -2.5117
16013SOL    HW251828   7.205   1.482   9.966 -1.1557 -1.0475 -1.3508
16014SOL     OW51829   0.251   8.468   4.926  0.6881 -0.0279 -0.1500
16014SOL    HW151830   0.282   8.453   4.837  0.0508  0.9306 -0.5596
16014SOL    HW251831   0.272   8.560   4.943 -1.1164  0.4256 -0.1406
16015SOL     OW51832   2.325  10.308   1.737 -0.3774  0.4011 -0.4758
16015SOL    HW151833   2.380  10.341   1.666 -0.4900  1.0854 -0.2564
16015SOL    HW251834   2.237  10.339   1.716 -0.0933  2.4150  0.9861
16016SOL     OW51835   3.119   9.648   2.812 -0.1520  0.3031  0.2080
16016SOL    HW151836   3.053   9.634   2.880 -1.4918 -0.5430 -1.1972
16016SOL    HW251837   3.191   9.691   2.857 -0.7163 -0.7884  2.3028
16017SOL     OW51838   9.632   8.591   6.431  0.0811 -0.7469 -0.0959
16017SOL    HW151839   9.622   8.686   6.436  1.3922 -0.5910 -0.0959
16017SOL    HW251840   9.577   8.557   6.503 -1.0167 -0.0609 -0.5847
16018SOL     OW51841   1.745   5.335   3.624 -0.3170 -0.0193 -0.3359
16018SOL    HW151842   1.811   5.266   3.631 -0.0759  0.2036 -0.3975
16018SOL    HW251843   1.678   5.310   3.688 -0.9694 -1.1071 -1.4036
16019SOL     OW51844   1.766   5.849   5.224  0.5349  0.0987  0.0120
16019SOL    HW151845   1.854   5.850   5.188  0.3660  2.2778 -0.5079
16019SOL    HW251846   1.723   5.925   5.184 -1.4502 -0.6577  0.5734
16020SOL     OW51847   1.702   9.402   3.810 -0.7013 -0.0084  0.0440
16020SOL    HW151848   1.751   9.478   3.842  0.0852 -0.6575  0.4125
16020SOL    HW251849   1.736   9.328   3.860 -0.0770 -0.9313 -1.6687
16021SOL     OW51850   1.251   8.403   9.077 -0.6246 -0.4756  0.6856
16021SOL    HW151851   1.173   8.417   9.023  0.0063  1.6485  0.2244
16021SOL    HW251852   1.271   8.490   9.112  2.1168 -0.7498 -0.0162
16022SOL     OW51853   4.138   0.637   3.629 -0.0409 -0.0325 -0.7238
16022SOL    HW151854   4.162   0.545   3.617  0.8138  0.1267 -0.2362
16022SOL    HW251855   4.053   0.644   3.586  0.2944 -0.8431 -1.5583
16023SOL     OW51856   0.714   4.378   4.524  0.3105  0.2639 -0.2020
16023SOL    HW151857   0.710   4.448   4.459  2.1474 -1.8569 -2.7961
16023SOL    HW251858   0.666   4.413   4.600  0.7547  4.1062 -1.4761
16024SOL     OW51859   6.299   6.629   4.482 -0.0545  0.7870 -0.1235
16024SOL    HW151860   6.218   6.679   4.476 -0.1346  0.4561 -2.8589
16024SOL    HW251861   6.361   6.689   4.522 -0.8702  2.1292 -0.8051
16025SOL     OW51862   0.537   1.160   2.339 -0.4526 -0.7199  0.0798
16025SOL    HW151863   0.544   1.159   2.243 -2.0092 -1.2553 -0.0560
16025SOL    HW251864   0.474   1.091   2.359 -1.1493  0.2644  1.4059
16026SOL     OW51865   8.994   8.890   2.276  0.1788 -0.0646  0.1158
16026SOL    HW151866   9.086   8.875   2.296  0.4595 -0.4512 -1.3912
16026SOL    HW251867   8.954   8.803   2.283 -0.0396  0.0654  0.5432
16027SOL     OW51868   4.299   9.853   2.480 -0.2544  0.5924 -0.1634
16027SOL    HW151869   4.342   9.806   2.409 -1.0288 -1.7598  0.8335
16027SOL    HW251870   4.218   9.887   2.441  0.4876  1.4612 -0.9876
16028SOL     OW51871   3.150   2.741   4.095  0.6408 -0.0047  0.4165
16028SOL    HW151872   3.202   2.678   4.045  1.3031  0.9982 -0.2031
16028SOL    HW251873   3.129   2.695   4.176 -0.3917 -1.6548 -0.7167
16029SOL     OW51874   9.072   0.568  10.221 -0.0114  0.5295  0.4183
16029SOL    HW151875   9.161   0.537  10.200 -0.4811  0.5438 -1.8498
16029SOL    HW251876   9.070   0.658  10.188 -0.9201  0.4658  0.2909
16030SOL     OW51877   2.171   5.032   4.871  0.0598  0.3711 -0.1421
16030SOL    HW151878   2.145   5.084   4.795 -1.0354  0.1107  0.0413
16030SOL    HW251879   2.097   5.039   4.932  0.8423  0.4329  0.8332
16031SOL     OW51880   2.035   1.885   9.314 -0.1326 -0.2900  0.2487
16031SOL    HW151881   2.126   1.916   9.318 -0.3059  0.2004  0.5709
16031SOL    HW251882   2.040   1.792   9.334  0.3199 -0.3117  0.0533
16032SOL     OW51883   6.417   6.469   1.670  0.2513 -0.4285 -0.3916
16032SOL    HW151884   6.499   6.500   1.633 -0.0419  0.6396 -0.1720
16032SOL    HW251885   6.371   6.428   1.596  0.3493  0.2834 -0.8571
16033SOL     OW51886   2.753   9.637   7.959 -0.2599 -0.3321  0.4483
16033SOL    HW151887   2.660   9.632   7.978 -0.1258  0.2439  1.3306
16033SOL    HW251888   2.787   9.550   7.979 -0.4286 -0.2300  1.2179
16034SOL     OW51889   6.335   5.030   0.357 -0.1191  0.6046  0.1010
16034SOL    HW151890   6.353   5.034   0.451 -0.7503 -1.4715  0.3610
16034SOL    HW251891   6.398   4.965   0.324 -0.6686  0.4687 -0.6991
16035SOL     OW51892   2.422  10.343   1.471  0.6409  0.0672  0.6865
16035SOL    HW151893   2.450  10.389   1.392 -2.9271  0.0396 -0.8049
16035SOL    HW251894   2.452  10.253   1.460 -1.5657 -0.4920 -1.8545
16036SOL     OW51895   9.740   2.703  10.264  0.0821  0.2127 -0.2033
16036SOL    HW151896   9.770   2.784  10.304  0.6671  0.2175 -0.6293
16036SOL    HW251897   9.656   2.725  10.224 -1.3923 -0.2070  2.4121
16037SOL     OW51898   5.583   7.277   0.938 -0.4488 -0.4305 -0.4546
16037SOL    HW151899   5.548   7.194   0.970 -0.6447 -0.4733 -0.7756
16037SOL    HW251900   5.509   7.318   0.893 -0.6397  0.3850  0.5758
16038SOL     OW51901   5.271   6.959   8.891  0.3064 -0.0640  0.2337
16038SOL    HW151902   5.194   6.933   8.942 -0.3069 -0.7552 -0.9940
16038SOL    HW251903   5.343   6.957   8.954 -0.5324 -0.2683  1.2147
16039SOL     OW51904   1.373   7.851   9.186 -0.0496  0.0569 -0.0514
16039SOL    HW151905   1.294   7.889   9.147 -1.0364  0.7542  2.4367
16039SOL    HW251906   1.354   7.757   9.191 -2.3058  0.5191  3.5179
16040SOL     OW51907   3.090  10.113   0.505  0.4508  0.2791 -0.2592
16040SOL    HW151908   3.142  10.040   0.470  0.5504  0.5369 -0.6434
16040SOL    HW251909   3.136  10.191   0.476  1.9164  0.5365  2.3818
16041SOL     OW51910  10.229   2.862   7.547 -0.6614 -0.5690  0.1490
16041SOL    HW151911  10.297   2.883   7.482 -2.0033  0.1528 -1.0784
16041SOL    HW251912  10.212   2.769   7.533 -0.4116 -0.5936 -0.0094
16042SOL     OW51913   5.458   2.414   3.975 -0.5748 -0.4818 -0.0953
16042SOL    HW151914   5.496   2.386   3.892  0.3701 -0.3348  0.2777
16042SOL    HW251915   5.445   2.332   4.024  2.5953 -0.3871  1.1701
16043SOL     OW51916   7.572   7.157   6.994 -0.2363  0.6452 -0.4755
16043SOL    HW151917   7.523   7.121   6.920  2.0966 -0.6450 -1.5202
16043SOL    HW251918   7.616   7.081   7.033  1.2360  1.7394  0.1194
16044SOL     OW51919   2.658   7.748   3.325 -0.1813  0.0570  0.1278
16044SOL    HW151920   2.654   7.771   3.232 -0.7393 -2.4204 -0.5333
16044SOL    HW251921   2.748   7.720   3.340 -0.8806 -2.9341 -0.6515
16045SOL     OW51922   4.370   8.420   8.793  0.3001  0.2380  0.6943
16045SOL    HW151923   4.433   8.451   8.728  0.3114 -0.8693  0.1525
16045SOL    HW251924   4.421   8.359   8.847  0.0515  0.4304  1.1449
16046SOL     OW51925   6.065   7.795   9.461  0.4894  0.2937  0.3078
16046SOL    HW151926   6.019   7.869   9.420  1.3626  0.9517  0.4910
16046SOL    HW251927   6.023   7.786   9.547 -0.9578 -0.7211 -0.4522
16047SOL     OW51928   1.997   0.485   7.779  0.2503  0.0881 -0.2325
16047SOL    HW151929   2.027   0.477   7.689  1.2359  0.1208  0.0779
16047SOL    HW251930   1.986   0.579   7.792  0.4287  0.1102 -0.2291
16048SOL     OW51931   7.454   3.768   3.652 -0.1474 -0.3275  0.1456
16048SOL    HW151932   7.381   3.822   3.683 -1.5621 -1.4158 -1.1322
16048SOL    HW251933   7.528   3.828   3.648 -1.5432  1.4586 -0.8147
16049SOL     OW51934   3.908   5.935   0.089 -0.5464  0.0998  1.0819
16049SOL    HW151935   3.848   5.996   0.132 -0.2213  1.0497  0.2290
16049SOL    HW251936   3.992   5.950   0.132 -0.4421  0.3390  0.7977
16050SOL     OW51937   1.103   4.720   4.298  0.9636  0.7841  0.3035
16050SOL    HW151938   1.123   4.626   4.293  1.0252  0.7602  0.8710
16050SOL    HW251939   1.015   4.727   4.262  0.1167  0.1884  2.1024
16051SOL     OW51940   1.242   5.199   2.920  0.1344 -0.5509  0.2291
16051SOL    HW151941   1.215   5.291   2.924  0.4088 -0.4414 -0.3494
16051SOL    HW251942   1.323   5.200   2.870 -0.4803 -1.2331 -0.8234
16052SOL     OW51943   2.197   8.622   6.080 -0.6500 -0.3836  0.0279
16052SOL    HW151944   2.136   8.695   6.091  0.3066  0.6390 -1.1260
16052SOL    HW251945   2.141   8.547   6.062 -1.6396  0.1593  0.7178
16053SOL     OW51946   9.714   1.098   9.664 -0.0366  0.4911 -0.9976
16053SOL    HW151947   9.781   1.138   9.720  0.7906  1.1834 -2.4530
16053SOL    HW251948   9.747   1.108   9.575 -0.6946 -1.7767 -1.5625
16054SOL     OW51949   1.420   5.363   1.768  0.2878 -0.2518  0.3729
16054SOL    HW151950   1.480   5.365   1.694 -0.0242 -3.0713 -0.0779
16054SOL    HW251951   1.473   5.331   1.841 -0.6063 -3.2199 -0.1400
16055SOL     OW51952   0.248   2.019   9.864  0.0305 -0.3408 -0.3924
16055SOL    HW151953   0.187   1.962   9.911 -0.0088 -0.1735 -0.2426
16055SOL    HW251954   0.229   2.107   9.896  1.4344 -0.4464  0.8489
16056SOL     OW51955   2.982   6.145   5.044 -0.1489 -0.1734  0.4983
16056SOL    HW151956   2.982   6.147   4.949  1.5123  0.1297  0.4715
16056SOL    HW251957   3.071   6.119   5.068 -0.0601  1.3225  1.9793
16057SOL     OW51958   0.491   4.148   7.291 -0.0256  0.2050  0.4532
16057SOL    HW151959   0.583   4.171   7.298 -0.3197  2.0533 -0.9419
16057SOL    HW251960   0.490   4.055   7.267  1.3841 -0.2266  1.9172
16058SOL     OW51961   3.612   0.620   6.006 -0.0022 -0.4985  0.3351
16058SOL    HW151962   3.529   0.664   6.025  0.2117 -0.5050  1.3525
16058SOL    HW251963   3.674   0.657   6.069  0.0706 -2.5848  1.5923
16059SOL     OW51964   3.257   6.219   8.618 -0.3661 -0.1993  0.4768
16059SOL    HW151965   3.262   6.165   8.539 -1.2417 -0.4624  0.5963
16059SOL    HW251966   3.190   6.284   8.599  1.1732  1.3490  0.0557
16060SOL     OW51967   1.586   1.454   4.950  0.0337 -0.6586  0.7468
16060SOL    HW151968   1.491   1.454   4.959 -0.0218 -0.1001  0.2377
16060SOL    HW251969   1.618   1.460   5.040 -0.4108 -0.9299  0.9251
16061SOL     OW51970   9.087   2.395   5.015  0.1943 -0.1352 -0.2503
16061SOL    HW151971   9.087   2.463   5.082  0.2110  0.5779 -0.9590
16061SOL    HW251972   9.031   2.326   5.051  1.2076 -0.3297  1.0329
16062SOL     OW51973   0.589   0.545   8.142 -0.0003 -0.1570  0.2478
16062SOL    HW151974   0.588   0.629   8.189  3.2301  0.6451 -0.8710
16062SOL    HW251975   0.680   0.532   8.118 -0.7299 -3.0259 -1.4444
16063SOL     OW51976   3.210   9.541   4.654 -0.7054  0.2211  0.1281
16063SOL    HW151977   3.167   9.461   4.683  1.5786 -1.8138 -1.6697
16063SOL    HW251978   3.200   9.541   4.559  0.2760  1.5027 -0.0082
16064SOL     OW51979   7.317   9.562   4.549 -0.0621  0.0686  0.3843
16064SOL    HW151980   7.308   9.651   4.583 -1.2177 -0.8095  2.5182
16064SOL    HW251981   7.266   9.562   4.468  0.6667  1.5405 -0.1057
16065SOL     OW51982   7.325   2.654   9.644  0.4964 -0.0014  0.2954
16065SOL    HW151983   7.272   2.601   9.702 -0.1853  1.5225  1.1014
16065SOL    HW251984   7.281   2.648   9.559  0.2295 -0.4235  0.4593
16066SOL     OW51985   1.178   1.907   5.727  0.5304  0.0869 -0.0166
16066SOL    HW151986   1.205   1.828   5.774 -1.4408 -0.3769  0.4300
16066SOL    HW251987   1.129   1.875   5.652  2.0283  0.8747 -1.3896
16067SOL     OW51988   4.449  10.167   2.863 -0.0561 -0.1694 -0.2020
16067SOL    HW151989   4.477  10.125   2.782 -0.8689 -0.1621 -0.4989
16067SOL    HW251990   4.456  10.099   2.929  0.8321 -0.1121 -0.2257
16068SOL     OW51991   3.543   8.087   4.663  0.4079 -0.2696 -0.4199
16068SOL    HW151992   3.636   8.109   4.665 -0.1358  2.3109 -0.5467
16068SOL    HW251993   3.521   8.084   4.569  0.0330  0.8603 -0.3857
16069SOL     OW51994   1.465   6.637   9.082  0.4514  0.1760 -0.4479
16069SOL    HW151995   1.514   6.685   9.148 -2.2197 -0.6897  2.3958
16069SOL    HW251996   1.380   6.681   9.078 -1.2170 -2.6558  0.4706
16070SOL     OW51997   2.485   1.851   5.635 -0.0408  0.6035  0.0556
16070SOL    HW151998   2.506   1.838   5.728  1.2248 -0.0416 -0.3047
16070SOL    HW251999   2.405   1.801   5.622 -0.4821  1.0614  0.8993
16071SOL     OW52000   4.229   6.135   0.497 -0.1502  0.2710  0.0060
16071SOL    HW152001   4.158   6.150   0.560 -0.7467 -2.2659  0.0716
16071SOL    HW252002   4.280   6.064   0.535  2.7281  2.2212  0.1090
16072SOL     OW52003   6.089   0.284   8.944 -0.6309  0.2316  0.7296
16072SOL    HW152004   6.098   0.243   9.030 -1.7967  1.5073  1.5082
16072SOL    HW252005   6.127   0.372   8.957 -2.4346  1.0792  0.4829
16073SOL     OW52006   7.941   7.496   6.970  0.0527 -0.2534  0.2463
16073SOL    HW152007   7.870   7.438   6.942  0.4417 -0.7159  0.1987
16073SOL    HW252008   8.016   7.437   6.984  0.5897  0.2974 -0.2780
16074SOL     OW52009   9.956   7.983   1.935 -0.0258 -0.3516 -0.2485
16074SOL    HW152010  10.049   7.963   1.942 -0.1125 -0.2836  1.4588
16074SOL    HW252011   9.945   8.015   1.845  1.2902 -1.8096 -0.9846
16075SOL     OW52012   8.722   1.149  10.105  0.2951 -0.0199 -0.5040
16075SOL    HW152013   8.641   1.196  10.122 -0.6053 -0.4488 -3.1942
16075SOL    HW252014   8.780   1.213  10.063  0.9622 -0.0162  0.3870
16076SOL     OW52015   2.620   9.190   2.228  0.5542  0.3388  0.6675
16076SOL    HW152016   2.686   9.246   2.185  0.0197  0.1548 -0.4320
16076SOL    HW252017   2.640   9.102   2.198  0.5808  0.1172  1.3383
16077SOL     OW52018   8.488   6.783   8.228  0.3313 -0.1653  0.0716
16077SOL    HW152019   8.515   6.787   8.136 -0.4379  1.0373 -0.1233
16077SOL    HW252020   8.551   6.723   8.269  2.2828  1.2440 -0.7031
16078SOL     OW52021   0.387   6.461   3.412 -0.3676 -0.3497 -0.0055
16078SOL    HW152022   0.475   6.465   3.450 -0.3042 -2.3561  0.1307
16078SOL    HW252023   0.396   6.504   3.327  0.7379 -0.4991  0.0190
16079SOL     OW52024   8.869   9.780   6.275 -0.4019  0.5453 -0.1424
16079SOL    HW152025   8.923   9.817   6.345 -1.4861  1.7684  0.0762
16079SOL    HW252026   8.827   9.704   6.315 -1.1910  1.3706  0.6189
16080SOL     OW52027   2.421   6.147   8.610 -0.1121 -0.6011  0.3196
16080SOL    HW152028   2.326   6.148   8.597 -0.2224 -1.3566  1.0591
16080SOL    HW252029   2.447   6.057   8.592  0.2932 -0.6884  1.2904
16081SOL     OW52030   8.689   0.161   9.006  0.4921 -0.4475  0.0611
16081SOL    HW152031   8.679   0.067   9.020 -0.8234 -0.2733  0.4464
16081SOL    HW252032   8.772   0.183   9.047  1.1600 -1.5443 -0.6371
16082SOL     OW52033   0.958   5.944   4.341  0.0940 -0.3078  0.0867
16082SOL    HW152034   0.968   5.900   4.425  0.1698  0.3887  0.4454
16082SOL    HW252035   0.874   5.990   4.347  1.2409  1.8142  0.7603
16083SOL     OW52036   6.120   4.843   5.718  0.2766 -0.5393  0.1528
16083SOL    HW152037   6.076   4.897   5.653 -2.9584 -0.9326  1.8052
16083SOL    HW252038   6.096   4.753   5.695  0.8857 -0.8394  0.6582
16084SOL     OW52039   9.559   6.525   9.530 -0.8329 -0.2979  0.2552
16084SOL    HW152040   9.594   6.471   9.460  1.5543 -1.0356  1.9252
16084SOL    HW252041   9.467   6.498   9.537 -0.8892 -0.8747 -1.8801
16085SOL     OW52042   0.689   3.621   3.509  0.2957 -0.0004  0.1252
16085SOL    HW152043   0.631   3.654   3.440  0.1020 -2.2996 -0.9258
16085SOL    HW252044   0.652   3.655   3.590 -1.7855 -0.3108 -0.6264
16086SOL     OW52045   0.488   0.748   5.604  0.1246  0.1024  0.4549
16086SOL    HW152046   0.450   0.668   5.567  1.0359 -0.6662  1.1447
16086SOL    HW252047   0.576   0.754   5.566  0.2524  0.5085  0.8017
16087SOL     OW52048   4.473   5.555   8.393 -0.0131  0.4226  0.2456
16087SOL    HW152049   4.492   5.649   8.391  0.5782  0.2959 -0.2459
16087SOL    HW252050   4.514   5.520   8.314 -1.5807  0.0058 -0.4356
16088SOL     OW52051  10.357   3.696   1.414  0.2956  0.8068 -0.2461
16088SOL    HW152052  10.354   3.773   1.471  0.9392 -0.7223  2.0060
16088SOL    HW252053  10.406   3.631   1.464 -2.0468 -1.8280 -1.0905
16089SOL     OW52054   3.239   2.840   2.905 -0.0470  0.8345 -0.9695
16089SOL    HW152055   3.275   2.927   2.922  1.0011  0.2870 -0.2723
16089SOL    HW252056   3.313   2.790   2.870 -0.7647  0.3524 -1.8626
16090SOL     OW52057   0.599   4.375   2.915  0.0986  0.3685 -0.4225
16090SOL    HW152058   0.650   4.426   2.979  0.8787 -1.7349  0.7303
16090SOL    HW252059   0.518   4.353   2.961  0.1852 -0.2319 -0.5532
16091SOL     OW52060   5.035  10.329   4.766  0.5614  0.0354 -0.3094
16091SOL    HW152061   5.051  10.415   4.727 -0.4075  1.2544  1.8015
16091SOL    HW252062   5.097  10.271   4.722 -0.4734  1.2133 -3.6386
16092SOL     OW52063   3.429   1.043   7.253 -0.0356 -0.1481  0.0697
16092SOL    HW152064   3.483   1.061   7.330 -1.1235 -0.7650  0.9937
16092SOL    HW252065   3.350   1.095   7.266 -0.9265 -1.4929  0.1757
16093SOL     OW52066   5.124   6.183   3.100 -0.0527  0.5827  0.5174
16093SOL    HW152067   5.130   6.217   3.011  1.1869 -0.4130  0.1845
16093SOL    HW252068   5.179   6.241   3.152 -0.6552  1.0729  0.6223
16094SOL     OW52069   1.081   2.162   0.172  0.3170  0.1927  0.3902
16094SOL    HW152070   0.986   2.160   0.159  0.2206  0.4604  0.9823
16094SOL    HW252071   1.118   2.125   0.092 -0.3237 -1.0294  0.6376
16095SOL     OW52072   8.213   9.303  10.159 -0.7024  0.0498 -0.1816
16095SOL    HW152073   8.247   9.239  10.097 -2.6127  0.3137 -1.5841
16095SOL    HW252074   8.199   9.253  10.240 -1.2558 -1.0959 -0.9664
16096SOL     OW52075   1.885   7.845   4.362 -0.1851  0.2600 -0.2027
16096SOL    HW152076   1.886   7.900   4.283  1.9853 -0.6281 -0.8646
16096SOL    HW252077   1.971   7.803   4.362 -1.2565 -2.0736  1.0457
16097SOL     OW52078   0.688  10.137   0.743  0.7245 -0.4119  0.2313
16097SOL    HW152079   0.596  10.122   0.766 -0.3268 -0.4138 -3.3266
16097SOL    HW252080   0.702  10.230   0.756  0.1397 -0.3682  0.5757
16098SOL     OW52081   8.955   6.274   4.422 -0.3807 -0.0945 -0.1465
16098SOL    HW152082   8.969   6.217   4.346  0.8787 -0.4946  0.3714
16098SOL    HW252083   9.003   6.354   4.401  0.5811 -0.4833  0.5250
16099SOL     OW52084   2.585   8.028   0.942  0.7844  0.5547 -0.1475
16099SOL    HW152085   2.586   8.105   0.999 -0.1122  0.2056  0.3650
16099SOL    HW252086   2.555   8.061   0.857 -0.5398  0.6203  0.3300
16100SOL     OW52087   6.822   7.525   4.862  0.5276  0.4155 -0.0570
16100SOL    HW152088   6.762   7.525   4.936 -0.4740 -0.0845 -0.8402
16100SOL    HW252089   6.828   7.433   4.837 -1.0321  0.7889 -2.0467
16101SOL     OW52090   0.926   4.322   0.394 -0.6798 -0.0398  0.8220
16101SOL    HW152091   0.858   4.388   0.405  0.2991  1.2224 -0.4384
16101SOL    HW252092   0.999   4.368   0.354 -0.0562 -1.9395 -0.3879
16102SOL     OW52093   7.717   8.633   2.627  0.2078  0.2626 -0.0076
16102SOL    HW152094   7.788   8.585   2.669 -0.1501  1.1506  1.6821
16102SOL    HW252095   7.652   8.645   2.696 -0.2921  2.0237 -0.7415
16103SOL     OW52096   3.988   0.454   6.055 -0.0974  0.7519  0.4244
16103SOL    HW152097   4.002   0.393   5.982 -1.1500  0.2408  0.6313
16103SOL    HW252098   3.970   0.397   6.130  0.1470  1.2976  0.9082
16104SOL     OW52099   1.570   3.843   3.991 -0.6912 -1.0553  0.1910
16104SOL    HW152100   1.513   3.866   3.918 -0.5900  2.1561  0.9663
16104SOL    HW252101   1.657   3.872   3.963 -0.3141 -1.5100  0.8777
16105SOL     OW52102   6.268   0.378   8.499 -0.2294  0.0828 -0.3175
16105SOL    HW152103   6.345   0.426   8.529 -0.8364  1.2587 -0.6011
16105SOL    HW252104   6.247   0.319   8.572 -0.1257  1.0319  0.4999
16106SOL     OW52105   0.023   0.016   3.901  0.2207  0.5139  0.1151
16106SOL    HW152106  -0.030   0.068   3.841 -1.6028  0.1589  1.3566
16106SOL    HW252107  -0.036  -0.050   3.935  1.4471  0.1428  1.6322
16107SOL     OW52108   7.971   1.245   3.700 -0.0339  0.0752 -0.0593
16107SOL    HW152109   8.011   1.319   3.653 -1.2642  2.9033  2.9112
16107SOL    HW252110   8.045   1.200   3.742  0.6267  0.7454 -0.4818
16108SOL     OW52111   1.851   3.813   3.309  0.2258 -0.5949 -0.0946
16108SOL    HW152112   1.903   3.871   3.253 -1.1605 -0.1219 -0.9596
16108SOL    HW252113   1.906   3.798   3.386  1.2881  0.5529 -0.5873
16109SOL     OW52114   9.983   9.963   2.475 -0.9401 -0.0924  0.3250
16109SOL    HW152115   9.908   9.981   2.533 -0.9966 -1.0820  0.5837
16109SOL    HW252116   9.961   9.879   2.434  0.0137 -0.3804  0.3817
16110SOL     OW52117   0.650   9.586   7.475 -0.7645 -0.2865  0.3614
16110SOL    HW152118   0.719   9.610   7.537  0.6941  0.2320 -1.3781
16110SOL    HW252119   0.652   9.490   7.473 -0.5872 -0.2939  0.8592
16111SOL     OW52120   5.194   6.523   9.638 -0.5694 -0.7159  0.4341
16111SOL    HW152121   5.138   6.598   9.659 -1.6491 -1.4731  0.3729
16111SOL    HW252122   5.273   6.561   9.600 -0.6172  0.4408  1.4214
16112SOL     OW52123   8.110   3.425   4.531 -0.1030 -0.0966 -0.0444
16112SOL    HW152124   8.132   3.447   4.440 -1.5665 -1.4296 -0.7762
16112SOL    HW252125   8.118   3.330   4.535 -1.5740 -0.2091  0.7894
16113SOL     OW52126   6.815   2.367   3.527 -0.2232  0.1419  1.0012
16113SOL    HW152127   6.905   2.335   3.523 -0.2286 -0.1688  2.7315
16113SOL    HW252128   6.763   2.293   3.495  0.0241 -0.3083  1.6193
16114SOL     OW52129   8.146   0.975   0.290  0.5349 -0.6291  0.4490
16114SOL    HW152130   8.241   0.977   0.276  0.5527  1.9328  0.3392
16114SOL    HW252131   8.123   1.067   0.305 -1.6864 -1.3935  2.2526
16115SOL     OW52132   8.109   7.536   9.882  0.0747  0.3018  0.0865
16115SOL    HW152133   8.172   7.581   9.938 -0.0591 -2.5112  2.7553
16115SOL    HW252134   8.031   7.591   9.885  0.7986  1.3331  0.8224
16116SOL     OW52135   6.296   8.712   0.124 -0.2364  0.0307 -0.0291
16116SOL    HW152136   6.252   8.796   0.135 -1.1974 -0.2975 -1.0740
16116SOL    HW252137   6.386   8.734   0.102 -0.1693  0.7488  0.9061
16117SOL     OW52138   4.391   6.821   2.807  0.4116 -0.0587 -0.4718
16117SOL    HW152139   4.440   6.829   2.726 -0.0605  1.8226 -0.5962
16117SOL    HW252140   4.423   6.893   2.862 -0.2050 -0.5185  0.5188
16118SOL     OW52141   8.151   9.468   3.826  0.2371  0.3461  0.4903
16118SOL    HW152142   8.098   9.448   3.904  0.0768  0.7741  0.4943
16118SOL    HW252143   8.122   9.405   3.760 -0.7630  1.0103  0.2794
16119SOL     OW52144   0.719  10.255   2.646  0.1113  0.1056 -0.2962
16119SOL    HW152145   0.753  10.263   2.557 -0.1267 -1.2946 -0.5328
16119SOL    HW252146   0.743  10.167   2.673 -1.4245 -0.1470  0.3390
16120SOL     OW52147   7.444   3.880   9.152  0.6891  0.0920  0.0159
16120SOL    HW152148   7.488   3.806   9.192  0.5814  0.6098  1.1468
16120SOL    HW252149   7.401   3.844   9.075  4.0085 -0.2310 -1.8792
16121SOL     OW52150   5.507   8.872   2.327 -0.4875 -0.0185  0.7743
16121SOL    HW152151   5.506   8.937   2.257  0.4473  0.4528  1.1726
16121SOL    HW252152   5.573   8.809   2.300 -0.5523 -0.1601  0.9450
16122SOL     OW52153   0.184   7.758   0.123  0.6201 -0.6190 -0.2310
16122SOL    HW152154   0.146   7.707   0.195  0.4153  0.3026  0.3188
16122SOL    HW252155   0.268   7.715   0.106  0.2540 -1.4181 -0.0860
16123SOL     OW52156   0.766   9.088   9.004  0.4428 -0.2424  0.5352
16123SOL    HW152157   0.741   9.180   8.998 -2.9165 -0.8080  2.6412
16123SOL    HW252158   0.706   9.043   8.945  2.1344 -1.1337 -0.5720
16124SOL     OW52159   6.676   0.349   4.000  0.3137  0.5392  0.6937
16124SOL    HW152160   6.664   0.428   3.948  1.4871 -0.7027 -1.5784
16124SOL    HW252161   6.622   0.283   3.957  0.3031 -0.2190  1.8223
16125SOL     OW52162   0.221   4.681   6.248 -0.4503 -0.0230  0.3590
16125SOL    HW152163   0.261   4.598   6.273 -1.7392 -0.7305  0.0905
16125SOL    HW252164   0.149   4.658   6.190  1.9786  1.4861 -3.7005
16126SOL     OW52165   2.379   0.731   9.164 -0.3018  0.1043 -0.1391
16126SOL    HW152166   2.442   0.800   9.143  0.8020 -1.0975 -0.8926
16126SOL    HW252167   2.408   0.698   9.250  0.9943 -1.3552 -1.0727
16127SOL     OW52168   3.946   9.912   3.310  0.0915  0.3213 -0.1804
16127SOL    HW152169   3.953   9.875   3.398  0.8030  0.1652 -0.3010
16127SOL    HW252170   4.004   9.987   3.310 -0.0425  0.4282 -0.4637
16128SOL     OW52171   5.100   1.138   5.090  0.3515 -0.1185  0.3738
16128SOL    HW152172   5.132   1.085   5.017  0.4961 -0.9022  0.9814
16128SOL    HW252173   5.161   1.119   5.161 -0.7385 -0.6686  1.1815
16129SOL     OW52174   7.933   3.301   2.637  0.6595 -0.5740  0.4420
16129SOL    HW152175   8.028   3.313   2.637  0.5351  0.6675 -0.8785
16129SOL    HW252176   7.903   3.351   2.562 -0.9904 -1.5086  0.4394
16130SOL     OW52177   1.591   4.812   9.813  0.0057  0.0290  0.8772
16130SOL    HW152178   1.629   4.724   9.816 -2.1903 -0.9858  0.8877
16130SOL    HW252179   1.514   4.806   9.868 -0.2979  1.9296  0.7038
16131SOL     OW52180   3.063   8.985   6.136  0.1961  0.3625 -0.0048
16131SOL    HW152181   3.147   8.963   6.176  0.7675 -0.6761 -1.7063
16131SOL    HW252182   3.059   8.932   6.056 -1.6212  1.1603 -0.4965
16132SOL     OW52183   7.297   0.755   4.890 -0.3841  0.1096  0.0768
16132SOL    HW152184   7.280   0.685   4.828 -1.8466  0.5354 -0.0580
16132SOL    HW252185   7.387   0.742   4.918 -0.3842 -1.3435 -0.5303
16133SOL     OW52186   2.262   0.106   5.429 -0.1048 -0.1888 -0.6081
16133SOL    HW152187   2.318   0.029   5.430  1.0113  0.5912 -0.0728
16133SOL    HW252188   2.294   0.159   5.356 -0.7549 -0.1566 -0.8753
16134SOL     OW52189   1.121   0.276   4.588  0.6690 -0.2192  0.1287
16134SOL    HW152190   1.075   0.325   4.656  2.4672  1.5278  0.1658
16134SOL    HW252191   1.128   0.187   4.623 -3.4122 -0.9183 -0.2956
16135SOL     OW52192   9.650   9.652   4.452  0.5316  0.0493 -0.1534
16135SOL    HW152193   9.650   9.706   4.373  0.5485 -1.3435 -1.1285
16135SOL    HW252194   9.577   9.592   4.442  0.3023  0.0848  1.0759
16136SOL     OW52195   1.672   9.525   9.813 -0.5836  0.2299  0.0124
16136SOL    HW152196   1.671   9.449   9.754 -2.2359 -0.2743  0.6224
16136SOL    HW252197   1.730   9.499   9.884  0.4812  0.3710 -0.7851
16137SOL     OW52198   4.644   8.518   6.834  0.0349 -0.1805 -0.0487
16137SOL    HW152199   4.681   8.605   6.820  0.1610 -0.2075  0.1155
16137SOL    HW252200   4.617   8.517   6.925 -1.8390  0.3844 -0.5518
16138SOL     OW52201   6.133   2.434  10.024  0.2968 -0.4501  0.2138
16138SOL    HW152202   6.102   2.488  10.096  0.0240  0.5037 -0.6015
16138SOL    HW252203   6.186   2.492   9.970  0.6927 -1.2059 -0.2408
16139SOL     OW52204   7.193   9.124   4.410 -0.1195  0.0176  0.1476
16139SOL    HW152205   7.191   9.220   4.415  1.0153  0.1666 -1.3490
16139SOL    HW252206   7.120   9.102   4.352  0.6439  0.1560 -0.9135
16140SOL     OW52207   7.028   9.754   3.354  0.0302  0.3798  0.1431
16140SOL    HW152208   6.937   9.758   3.325  0.2957 -0.9742 -0.9874
16140SOL    HW252209   7.039   9.831   3.409 -1.7592  0.6364  0.1943
16141SOL     OW52210   9.343   3.649   6.374 -0.1705  0.0812  0.2897
16141SOL    HW152211   9.257   3.670   6.339 -1.3596 -2.2327  1.5847
16141SOL    HW252212   9.348   3.698   6.456 -1.0574 -1.1484  1.1080
16142SOL     OW52213   3.713   3.148   2.600  0.4025  0.7775 -0.2690
16142SOL    HW152214   3.661   3.088   2.547  1.0258 -1.1407  1.1638
16142SOL    HW252215   3.801   3.142   2.562  0.4042  0.9940 -0.2973
16143SOL     OW52216   3.900   4.220   4.268  0.0561  0.5709  0.0119
16143SOL    HW152217   3.840   4.279   4.315  0.1775  0.1010  0.7858
16143SOL    HW252218   3.880   4.133   4.304  1.4549  0.4586  0.5788
16144SOL     OW52219   5.477   2.347   5.621 -0.2846  0.6499  0.1111
16144SOL    HW152220   5.552   2.384   5.574  0.5030 -0.2537  0.6164
16144SOL    HW252221   5.499   2.358   5.714 -1.1725  1.1335  0.2767
16145SOL     OW52222   8.456   7.008   7.374  0.3268  0.3945 -0.2188
16145SOL    HW152223   8.420   6.975   7.292 -1.1289  1.5765 -0.0884
16145SOL    HW252224   8.528   7.066   7.346  1.4267 -1.0439 -0.5216
16146SOL     OW52225   6.713   0.671   4.292  0.1035 -0.3163 -0.5413
16146SOL    HW152226   6.663   0.744   4.328 -0.0418 -0.7278  0.1139
16146SOL    HW252227   6.646   0.608   4.264  0.1646 -1.9202  2.4892
16147SOL     OW52228   8.263   3.282   4.807 -0.3514  0.3364  0.0825
16147SOL    HW152229   8.243   3.253   4.718  1.0233  1.3324 -0.5726
16147SOL    HW252230   8.349   3.324   4.801  0.0085 -0.0225  1.9814
16148SOL     OW52231   8.478   3.675   9.851  0.0005 -0.6476  0.4847
16148SOL    HW152232   8.399   3.689   9.903  0.6463 -1.2451  1.7053
16148SOL    HW252233   8.459   3.598   9.797 -0.5701 -0.2182  0.0725
16149SOL     OW52234  10.316   2.500   0.610  0.6169 -0.4325 -0.0594
16149SOL    HW152235  10.256   2.504   0.535 -0.0213  1.0331  0.4901
16149SOL    HW252236  10.399   2.533   0.576  0.6600 -0.8917 -0.4091
16150SOL     OW52237   1.947   7.536   3.967  0.8300 -0.2488 -0.5107
16150SOL    HW152238   1.989   7.450   3.972  2.6462  0.6351  0.8738
16150SOL    HW252239   1.922   7.555   4.058 -0.2157  0.3833 -0.9155
16151SOL     OW52240   3.033   0.145   6.480 -0.1060 -0.1593 -0.2184
16151SOL    HW152241   2.959   0.206   6.483 -0.2020 -0.2778 -0.1829
16151SOL    HW252242   3.103   0.194   6.437  0.1243  0.3064  0.6677
16152SOL     OW52243   9.300   1.565   8.486 -0.6019  0.4441 -0.2878
16152SOL    HW152244   9.219   1.559   8.537  0.1875  0.1523  0.9663
16152SOL    HW252245   9.367   1.531   8.544  0.3402  0.1285 -1.5340
16153SOL     OW52246   3.003   8.541   1.000 -0.0320  0.3954 -0.2024
16153SOL    HW152247   2.990   8.449   1.019  1.4421  0.4718  1.4749
16153SOL    HW252248   2.937   8.562   0.934 -2.5053 -1.0722  1.6577
16154SOL     OW52249   5.940   8.583   0.356 -0.0153  0.3526  1.1223
16154SOL    HW152250   6.031   8.553   0.359 -0.2383 -0.4148  0.5723
16154SOL    HW252251   5.946   8.674   0.327  0.5087 -0.1596 -0.5436
16155SOL     OW52252   2.126   0.004   5.165  0.0321 -0.5203  0.6879
16155SOL    HW152253   2.032   0.002   5.148 -0.0636  0.4018  1.0429
16155SOL    HW252254   2.145  -0.080   5.207 -0.6739 -0.6253  0.8028
16156SOL     OW52255   8.724   3.617   5.522  0.3182 -0.5529  0.5568
16156SOL    HW152256   8.734   3.565   5.602 -1.6696  2.3563  2.8897
16156SOL    HW252257   8.630   3.617   5.505  0.6319 -0.4687 -1.3840
16157SOL     OW52258   1.237   1.634   1.469 -0.2876  0.7899 -0.2125
16157SOL    HW152259   1.231   1.552   1.419 -2.1275  0.7946 -0.0777
16157SOL    HW252260   1.246   1.702   1.403 -1.0844  0.6561 -0.4726
16158SOL     OW52261   0.829   5.876   1.384  0.5232  0.0240  0.3709
16158SOL    HW152262   0.872   5.791   1.383  1.7434  0.6039  1.7692
16158SOL    HW252263   0.875   5.927   1.450 -2.4852  0.5904  2.2715
16159SOL     OW52264   9.006   9.876   2.402 -0.1962 -0.1297  0.5961
16159SOL    HW152265   9.083   9.871   2.346 -0.0016  0.7418  0.7802
16159SOL    HW252266   8.973   9.786   2.406 -0.1337 -0.2273 -0.8028
16160SOL     OW52267   2.495   7.203   1.494 -0.0133  0.5711  0.5339
16160SOL    HW152268   2.571   7.146   1.490 -0.7340 -0.4017  0.0795
16160SOL    HW252269   2.495   7.249   1.410 -1.2516 -1.2638 -0.5524
16161SOL     OW52270   6.961   3.948   1.465 -0.1778  0.5075 -0.3120
16161SOL    HW152271   6.938   3.923   1.375  0.7159  1.0189 -0.7045
16161SOL    HW252272   6.916   4.031   1.479  0.3322  0.8405 -0.5980
16162SOL     OW52273   5.159   5.633   3.217 -0.0991  0.9143  0.2850
16162SOL    HW152274   5.101   5.652   3.143 -0.9357 -2.2488 -0.0251
16162SOL    HW252275   5.155   5.711   3.272 -3.1773  1.5405 -0.6539
16163SOL     OW52276   1.550   9.270   4.403 -0.2138 -0.2736  0.3300
16163SOL    HW152277   1.570   9.181   4.372  1.3529  0.3332 -0.5149
16163SOL    HW252278   1.576   9.270   4.495 -2.2506 -1.2664  0.9835
16164SOL     OW52279   1.518   5.822   3.998  0.1682 -0.2370 -0.8020
16164SOL    HW152280   1.477   5.769   3.929 -2.2017  0.4443 -0.0038
16164SOL    HW252281   1.463   5.807   4.075  1.2396  1.0349  0.2467
16165SOL     OW52282   1.528   2.530   0.508 -0.2902  0.2486 -1.0232
16165SOL    HW152283   1.532   2.485   0.424  0.8738 -0.9007 -0.3879
16165SOL    HW252284   1.436   2.526   0.534 -0.0557 -3.0335 -0.3601
16166SOL     OW52285   1.835   9.884   9.261 -0.1679 -0.0222  0.4906
16166SOL    HW152286   1.793   9.963   9.295 -0.0204 -0.1004  0.8627
16166SOL    HW252287   1.829   9.821   9.333  0.0097 -0.2410  0.3141
16167SOL     OW52288   6.721   6.441   5.636  0.0150 -0.1698  0.8534
16167SOL    HW152289   6.676   6.505   5.692  0.7492  1.4763 -0.3515
16167SOL    HW252290   6.798   6.414   5.687  0.1069  0.5008  1.0788
16168SOL     OW52291   6.181   9.685   2.899  0.5008  0.3001 -0.1277
16168SOL    HW152292   6.135   9.608   2.865  0.0612  1.0887 -1.4230
16168SOL    HW252293   6.159   9.687   2.992  0.6984 -1.2499 -0.0189
16169SOL     OW52294   3.100   4.987   6.770  0.6177  0.0648  0.1631
16169SOL    HW152295   3.093   4.947   6.683 -2.1258  0.7676 -0.0336
16169SOL    HW252296   3.108   5.081   6.753 -0.9420  0.3137  0.6091
16170SOL     OW52297   2.458   5.982   0.172  0.2643 -0.2262  0.6020
16170SOL    HW152298   2.491   6.040   0.103  0.3086 -1.0946 -0.1324
16170SOL    HW252299   2.528   5.917   0.185 -0.7647 -1.6107 -0.4127
16171SOL     OW52300   7.226   1.954   2.533 -0.2871 -0.0714  0.0207
16171SOL    HW152301   7.161   2.007   2.580  0.3432  0.6035  0.1463
16171SOL    HW252302   7.196   1.864   2.544 -0.7750  0.1717  0.7417
16172SOL     OW52303   9.039   3.617   6.641 -0.8609  0.8577 -0.8442
16172SOL    HW152304   9.100   3.689   6.628  0.4694 -0.1189 -0.2492
16172SOL    HW252305   8.970   3.633   6.577 -1.1746  3.2204 -0.0113
16173SOL     OW52306   1.720   3.413  10.095  0.2126  0.8680 -0.7045
16173SOL    HW152307   1.676   3.330  10.114 -0.4461  1.4052  0.1889
16173SOL    HW252308   1.814   3.391  10.095  0.1772  0.5043  1.6410
16174SOL     OW52309   9.693   2.909   5.381  0.4614 -0.1036  0.3467
16174SOL    HW152310   9.748   2.909   5.460 -0.7016 -0.3093  1.1782
16174SOL    HW252311   9.681   2.816   5.361  1.3168 -0.0465 -0.4949
16175SOL     OW52312   7.085   3.807   2.051 -0.3853 -0.3217  0.5452
16175SOL    HW152313   7.088   3.835   1.959  0.6150  1.4165  1.0667
16175SOL    HW252314   7.039   3.723   2.048 -1.9755  0.5247 -1.3270
16176SOL     OW52315   9.125   9.355   4.488 -0.5165  0.0996  0.7043
16176SOL    HW152316   9.115   9.407   4.408 -1.3829 -1.1183 -0.0161
16176SOL    HW252317   9.208   9.385   4.526 -0.6850  1.5367 -0.0075
16177SOL     OW52318   9.368   1.175   9.642  0.2314 -0.3801  0.3037
16177SOL    HW152319   9.427   1.119   9.693  0.7888  0.6695  0.8375
16177SOL    HW252320   9.425   1.245   9.608 -0.4684 -0.0756 -0.2737
16178SOL     OW52321   3.910   5.613  10.052 -0.2585  0.5163  0.5760
16178SOL    HW152322   3.868   5.551  10.111  1.4443 -0.3190  0.9614
16178SOL    HW252323   3.951   5.559   9.984 -0.0656  1.3192  0.0294
16179SOL     OW52324   0.079   9.261  10.087  0.1141 -0.5516 -0.6161
16179SOL    HW152325   0.156   9.316  10.101 -0.2594 -0.2474  0.3355
16179SOL    HW252326   0.032   9.305  10.015 -0.7286  1.0352  0.8293
16180SOL     OW52327   5.057   2.776   0.062 -0.2667  0.5065 -0.2308
16180SOL    HW152328   5.091   2.802  -0.023  1.3261 -2.0690 -0.5085
16180SOL    HW252329   4.962   2.779   0.053 -0.1274  0.3293 -2.1032
16181SOL     OW52330   9.722   3.946   7.621 -0.0562  0.3085 -0.3727
16181SOL    HW152331   9.733   4.004   7.696  0.6193 -1.2611  0.7858
16181SOL    HW252332   9.628   3.928   7.618  0.0626 -0.6625  0.9498
16182SOL     OW52333   6.070   8.519   3.021 -0.3071  0.0330  0.0536
16182SOL    HW152334   6.135   8.515   2.950  1.7407 -0.8907  1.8600
16182SOL    HW252335   6.054   8.613   3.033  1.2244  0.3370 -0.0400
16183SOL     OW52336   2.123   0.198   3.621 -0.6542 -0.1082  0.2940
16183SOL    HW152337   2.181   0.273   3.610 -0.3287 -0.2057  1.2254
16183SOL    HW252338   2.036   0.236   3.630 -0.5676  0.1217  0.1555
16184SOL     OW52339   3.374   3.067   0.258 -0.0644 -0.1708 -0.3026
16184SOL    HW152340   3.439   3.072   0.188  0.9636 -0.9039  0.5644
16184SOL    HW252341   3.321   2.991   0.237  0.4391 -0.5743 -0.1338
16185SOL     OW52342   9.546   7.087   2.956  0.3919 -0.0151  0.2065
16185SOL    HW152343   9.626   7.123   2.995 -0.9073  0.3584  2.7117
16185SOL    HW252344   9.509   7.159   2.905 -0.1887  1.0243  2.0309
16186SOL     OW52345   5.953   4.960   9.098 -0.2079 -0.0031  0.0684
16186SOL    HW152346   5.939   5.053   9.083  0.6148  0.2498  0.7996
16186SOL    HW252347   5.971   4.924   9.011  1.7757  0.9375  0.0403
16187SOL     OW52348   7.508   7.850   4.744 -0.2344 -0.1202  0.8204
16187SOL    HW152349   7.583   7.790   4.748  1.5940  1.9531 -0.2622
16187SOL    HW252350   7.484   7.864   4.836 -0.7766 -2.5159  1.0906
16188SOL     OW52351   3.045   2.066  10.255 -0.5486 -0.1981 -0.1132
16188SOL    HW152352   2.956   2.070  10.221 -0.5094  2.6641 -0.0677
16188SOL    HW252353   3.097   2.031  10.182 -1.4793 -0.6536 -0.5806
16189SOL     OW52354   9.302   0.335   5.133 -0.2983 -0.2421 -0.6245
16189SOL    HW152355   9.397   0.336   5.120  0.1526  1.2634  2.0074
16189SOL    HW252356   9.271   0.412   5.084  0.0637  0.0922 -0.3387
16190SOL     OW52357   2.304   8.786   2.571  0.3748 -0.0707 -0.1035
16190SOL    HW152358   2.339   8.860   2.522 -0.0283 -0.4981 -1.0532
16190SOL    HW252359   2.218   8.769   2.532  0.3696 -0.9038  0.2398
16191SOL     OW52360   1.489  10.065   4.651 -0.2696 -0.4469 -0.8070
16191SOL    HW152361   1.461  10.079   4.560 -1.0289  0.1785 -0.4867
16191SOL    HW252362   1.431  10.120   4.703  0.4179 -0.4881  0.0357
16192SOL     OW52363   5.139   3.561   9.652 -0.2683  0.0139 -0.3892
16192SOL    HW152364   5.186   3.507   9.588  0.6001  1.0495 -0.6492
16192SOL    HW252365   5.169   3.650   9.636  2.0585  0.0850  3.1567
16193SOL     OW52366   8.876   4.522   9.464 -0.6379 -0.2125  0.1595
16193SOL    HW152367   8.910   4.533   9.375 -1.6437 -0.5656 -0.2844
16193SOL    HW252368   8.926   4.584   9.517  0.4945 -0.5362 -0.5127
16194SOL     OW52369   3.583   3.197   1.172  0.3081 -0.1852 -0.6155
16194SOL    HW152370   3.507   3.249   1.199  0.2938 -0.5900  0.1413
16194SOL    HW252371   3.629   3.253   1.109  0.5082  0.9177  0.4731
16195SOL     OW52372   0.032   8.599   9.688 -0.0385  0.9442 -0.2977
16195SOL    HW152373   0.029   8.662   9.760 -0.5739  0.6894 -0.0873
16195SOL    HW252374  -0.023   8.638   9.620  1.3072  1.6846 -0.9977
16196SOL     OW52375   9.667   5.782   6.460  0.4623 -0.1595 -0.1393
16196SOL    HW152376   9.644   5.863   6.505 -1.4304 -1.4607  1.3941
16196SOL    HW252377   9.715   5.731   6.525  2.2703 -0.0765 -1.3100
16197SOL     OW52378   3.006   5.728   8.261 -0.6299  0.0415  0.5333
16197SOL    HW152379   2.976   5.752   8.349 -1.4274 -1.0510  0.5701
16197SOL    HW252380   3.092   5.687   8.275 -0.4181  0.5380  0.7167
16198SOL     OW52381   6.815   3.324   3.051 -0.1287 -0.9668 -0.4036
16198SOL    HW152382   6.728   3.341   3.087  0.5457 -2.5598  2.2814
16198SOL    HW252383   6.807   3.239   3.007  0.0148 -1.0383 -0.2945
16199SOL     OW52384   8.862   9.827   9.383  0.4076  0.1525  0.2870
16199SOL    HW152385   8.942   9.879   9.379  0.2820  0.3089 -0.3073
16199SOL    HW252386   8.815   9.862   9.458 -0.3356  1.8928 -0.9078
16200SOL     OW52387   6.664   4.653   9.690  0.1813  0.1339 -0.2151
16200SOL    HW152388   6.714   4.633   9.769 -1.9974 -2.6665  0.6265
16200SOL    HW252389   6.586   4.699   9.721  0.1050  0.5166 -0.9557
16201SOL     OW52390   0.347   5.183   6.059 -0.0167 -0.3201 -0.2407
16201SOL    HW152391   0.265   5.230   6.042  0.8285  0.7342 -1.5274
16201SOL    HW252392   0.326   5.091   6.039 -1.0304 -0.1748  0.0497
16202SOL     OW52393   9.891   6.123   8.966 -0.0928  0.0096 -0.2058
16202SOL    HW152394   9.824   6.073   9.013 -0.3110  0.4299 -0.0644
16202SOL    HW252395   9.956   6.057   8.940 -1.6047 -0.7672 -2.2656
16203SOL     OW52396   7.282  10.018   3.022 -0.6906 -0.5127  0.0374
16203SOL    HW152397   7.285  10.025   2.927  1.3191  1.1568  0.1297
16203SOL    HW252398   7.199  10.059   3.047 -1.8880 -2.1845 -1.0017
16204SOL     OW52399   8.466   7.781   4.423  0.5860 -0.4107 -0.2497
16204SOL    HW152400   8.435   7.841   4.492 -1.1369 -0.4789 -0.9068
16204SOL    HW252401   8.422   7.698   4.442  1.6725 -1.0003 -0.2898
16205SOL     OW52402   7.833   6.787  10.001 -0.2048 -0.0676  0.2032
16205SOL    HW152403   7.807   6.698  10.023  1.9010 -1.0357 -0.9033
16205SOL    HW252404   7.864   6.782   9.911  0.1967  1.7403  0.1902
16206SOL     OW52405   8.854   7.958   4.116 -0.0005 -0.1341  0.0151
16206SOL    HW152406   8.781   7.934   4.174 -0.1257 -1.1193 -0.5329
16206SOL    HW252407   8.861   8.053   4.125 -1.0835 -0.0722  0.3868
16207SOL     OW52408   9.253   5.898   9.036  0.1135 -0.1570 -0.0453
16207SOL    HW152409   9.192   5.950   9.088 -0.7744 -1.7253  0.5332
16207SOL    HW252410   9.325   5.959   9.017  1.3757  0.1575  4.4656
16208SOL     OW52411   8.486   8.559   3.414  0.0501  0.1053  0.7091
16208SOL    HW152412   8.574   8.538   3.384 -0.5926  1.9402 -3.0401
16208SOL    HW252413   8.441   8.474   3.417  1.3122 -0.5962  0.4500
16209SOL     OW52414   0.877   9.436   8.303  0.0809  0.4122 -0.1395
16209SOL    HW152415   0.812   9.377   8.264  1.7967 -2.6251  1.2379
16209SOL    HW252416   0.832   9.476   8.377 -1.0407  0.6211 -0.9155
16210SOL     OW52417   0.914   8.765   3.238 -0.3592 -0.0075 -0.5251
16210SOL    HW152418   0.835   8.800   3.280  0.9241  1.2277  0.9949
16210SOL    HW252419   0.985   8.816   3.276  1.1540 -0.8160 -2.1523
16211SOL     OW52420   4.730  10.012   2.495 -0.0079 -0.0396  0.3407
16211SOL    HW152421   4.807  10.017   2.553 -0.7828  0.2499  1.3708
16211SOL    HW252422   4.752  10.070   2.422  1.0609 -0.5406  0.2491
16212SOL     OW52423   3.541   8.754   2.364 -0.4554  0.2804  0.0819
16212SOL    HW152424   3.555   8.841   2.326  0.4822 -0.6012 -1.7232
16212SOL    HW252425   3.456   8.725   2.329 -0.5461  0.2723  0.3040
16213SOL     OW52426   8.143   2.742   2.948 -0.3288  0.2471  0.2453
16213SOL    HW152427   8.183   2.758   3.034  3.0397 -1.0969 -0.9264
16213SOL    HW252428   8.190   2.801   2.888  0.0629 -1.5027 -1.2448
16214SOL     OW52429   7.103   1.217   9.851  0.0075 -0.2729  0.2027
16214SOL    HW152430   7.158   1.266   9.913  0.1047 -1.0785  0.7621
16214SOL    HW252431   7.160   1.203   9.775  0.3824 -0.5560  0.5262
16215SOL     OW52432  10.135   0.709   0.617 -0.5351 -0.0858  0.4226
16215SOL    HW152433  10.117   0.725   0.524 -0.5445  0.4311  0.5143
16215SOL    HW252434  10.197   0.636   0.617  0.9528  1.1295 -0.0627
16216SOL     OW52435   4.266   2.679   8.482 -0.5020  0.1400  0.2496
16216SOL    HW152436   4.190   2.701   8.536 -0.5283  1.1702 -0.1683
16216SOL    HW252437   4.250   2.590   8.451 -0.3144 -0.6304  2.2137
16217SOL     OW52438   2.139   9.147   1.759  0.1425 -0.2442  0.2107
16217SOL    HW152439   2.201   9.074   1.746 -0.5298 -1.0355  1.2636
16217SOL    HW252440   2.080   9.116   1.827 -0.7097  0.9631  0.0509
16218SOL     OW52441   3.652   2.448   6.054 -0.0093  0.1482  0.3957
16218SOL    HW152442   3.622   2.537   6.037 -0.6263 -0.1270 -0.0068
16218SOL    HW252443   3.722   2.458   6.118  0.9158  1.0538 -0.6965
16219SOL     OW52444   8.596   0.072   1.732 -0.4187  0.0207  0.4589
16219SOL    HW152445   8.657   0.071   1.806  1.8527 -0.0738 -1.3207
16219SOL    HW252446   8.651   0.089   1.655 -2.7571  0.7044 -1.1799
16220SOL     OW52447   0.112   0.248   0.771 -0.3812 -0.0855 -0.2319
16220SOL    HW152448   0.089   0.155   0.764 -0.3525 -0.1350  0.2597
16220SOL    HW252449   0.037   0.294   0.734 -1.5762 -0.2174  1.8217
16221SOL     OW52450   3.505   2.354   1.824 -0.6565  0.3568 -0.9162
16221SOL    HW152451   3.539   2.443   1.811 -0.3754  0.4379  0.3045
16221SOL    HW252452   3.580   2.297   1.810 -0.2910  0.4597  0.4698
16222SOL     OW52453   7.152   0.735   2.231  0.7788 -0.3352 -0.3675
16222SOL    HW152454   7.101   0.738   2.311  0.2309  0.1752 -0.7262
16222SOL    HW252455   7.117   0.660   2.183 -1.0736  1.1761 -1.5240
16223SOL     OW52456   7.616  10.045   9.896  0.5820  0.2871  0.5407
16223SOL    HW152457   7.525  10.028   9.917  0.6447  0.0815  0.6530
16223SOL    HW252458   7.654   9.958   9.881  0.2506  0.4672 -1.7198
16224SOL     OW52459   1.943   0.693   9.242 -0.3979 -0.4076  0.1474
16224SOL    HW152460   1.977   0.780   9.225 -1.5596 -0.2241 -1.5021
16224SOL    HW252461   1.862   0.708   9.290  0.4035 -0.7084  1.6496
16225SOL     OW52462  10.237   3.292   1.903 -0.2020  0.4550  0.0766
16225SOL    HW152463  10.164   3.328   1.854  0.0495  0.2018 -0.4911
16225SOL    HW252464  10.313   3.303   1.845  0.3580  1.3956  0.9377
16226SOL     OW52465   2.566   2.944   8.861  0.5830 -0.0451  0.5912
16226SOL    HW152466   2.578   2.863   8.811 -1.2297  1.0026 -1.7318
16226SOL    HW252467   2.642   2.997   8.837  0.3751 -0.0349 -0.0691
16227SOL     OW52468   3.567   6.846   0.399 -0.0331 -0.2020  0.0220
16227SOL    HW152469   3.629   6.774   0.401 -0.7570 -0.8639 -0.8431
16227SOL    HW252470   3.506   6.827   0.470 -0.3664 -0.5825 -0.3606
16228SOL     OW52471   4.491   7.285   0.039 -0.0808 -0.5211  0.0601
16228SOL    HW152472   4.455   7.228   0.107  0.0933 -0.4985  0.1734
16228SOL    HW252473   4.427   7.282  -0.032 -0.6589  0.0663  0.5394
16229SOL     OW52474   3.480   4.552   4.652 -0.4889 -0.1951 -0.2219
16229SOL    HW152475   3.426   4.569   4.729 -0.0018  2.1942 -0.3371
16229SOL    HW252476   3.500   4.458   4.657 -1.1221 -0.2686  2.1003
16230SOL     OW52477   9.433   8.976   5.651  0.0827  0.6004  0.6727
16230SOL    HW152478   9.477   8.893   5.670  1.0514  0.8119 -0.5566
16230SOL    HW252479   9.426   8.978   5.556 -1.8911  0.9553  0.7922
16231SOL     OW52480   7.198   4.732   8.951 -0.0439 -0.1868 -0.8151
16231SOL    HW152481   7.215   4.826   8.963 -1.1285 -0.0148 -0.4827
16231SOL    HW252482   7.200   4.696   9.039  1.3354 -0.6786 -1.0188
16232SOL     OW52483   8.686   8.820   3.106 -0.6451 -0.4930 -0.0217
16232SOL    HW152484   8.756   8.859   3.159  0.5680 -2.3932 -0.1115
16232SOL    HW252485   8.605   8.846   3.150  0.2174  0.1038  1.2745
16233SOL     OW52486   3.269   5.189   2.888 -0.0775 -0.6812  0.2614
16233SOL    HW152487   3.347   5.215   2.839 -1.1230 -0.0959 -1.1759
16233SOL    HW252488   3.277   5.235   2.972  0.5379  0.3413 -0.3297
16234SOL     OW52489   2.882   6.456   0.273 -0.2017 -0.5434  0.2301
16234SOL    HW152490   2.882   6.454   0.177  2.3824 -1.9429  0.1661
16234SOL    HW252491   2.903   6.547   0.295 -0.7298 -0.2252 -0.5254
16235SOL     OW52492   8.355   9.974   2.827  0.5185  0.2992 -0.1010
16235SOL    HW152493   8.388  10.022   2.751  2.1661 -0.7885 -0.1344
16235SOL    HW252494   8.416   9.997   2.898  0.7385 -0.9274  0.1288
16236SOL     OW52495   1.449   3.977   9.226 -0.3486  0.3487  0.1755
16236SOL    HW152496   1.495   3.894   9.213  0.1559  0.8392 -1.4476
16236SOL    HW252497   1.412   3.971   9.314  0.0686 -1.4024  0.2656
16237SOL     OW52498   9.756   6.846   8.356 -0.3316 -0.0496 -0.2209
16237SOL    HW152499   9.688   6.884   8.301 -1.3943 -2.4401 -0.6819
16237SOL    HW252500   9.835   6.897   8.336 -1.2849  0.7958 -2.0280
16238SOL     OW52501   0.555   2.345   5.826  0.3000 -0.0184  0.2177
16238SOL    HW152502   0.613   2.312   5.895  2.0968  0.3139 -1.0497
16238SOL    HW252503   0.493   2.274   5.810  0.4603 -0.4653  1.4945
16239SOL     OW52504   5.207   7.149   3.060  0.1699 -0.6003  0.1350
16239SOL    HW152505   5.257   7.176   3.138  0.0823  0.9344 -0.3102
16239SOL    HW252506   5.123   7.118   3.095  0.5982 -1.1329  0.7256
16240SOL     OW52507   7.930   4.307   6.671  0.1026  0.5014  1.1068
16240SOL    HW152508   7.859   4.372   6.666 -0.9642 -0.5052  2.3818
16240SOL    HW252509   7.998   4.351   6.723  0.7347  1.7138 -0.6702
16241SOL     OW52510   1.413   0.599   3.752  0.2642  0.4576 -0.0124
16241SOL    HW152511   1.453   0.583   3.838 -0.0629  0.1232  0.0810
16241SOL    HW252512   1.468   0.667   3.712  0.1665  0.9240  0.6354
16242SOL     OW52513   8.627   6.388   4.869  0.1577  0.0601 -0.1658
16242SOL    HW152514   8.641   6.450   4.799 -0.5835  0.6200  0.1665
16242SOL    HW252515   8.641   6.302   4.829  1.0444  0.4234 -0.6568
16243SOL     OW52516   1.267   0.004   4.193 -0.0144 -0.1965  0.1662
16243SOL    HW152517   1.226  -0.073   4.153 -0.1938  0.5983 -1.2863
16243SOL    HW252518   1.346   0.019   4.140  0.7741 -0.1995  1.3187
16244SOL     OW52519   0.481   2.684   4.993 -0.1710 -0.1607  0.2111
16244SOL    HW152520   0.539   2.760   4.987  0.0326 -0.4162 -2.5733
16244SOL    HW252521   0.451   2.683   5.084  0.4834  2.7303  0.5454
16245SOL     OW52522   9.106   4.885   0.326  0.1089  0.2494 -0.0120
16245SOL    HW152523   9.022   4.903   0.284 -0.2435  2.0821  1.3514
16245SOL    HW252524   9.153   4.969   0.321  1.4726 -0.4782  0.1292
16246SOL     OW52525   8.204   4.716   5.668 -0.1283  0.4209  0.7690
16246SOL    HW152526   8.280   4.668   5.635  0.7108 -1.4024  4.6822
16246SOL    HW252527   8.233   4.807   5.673  0.8629  0.1736 -0.1213
16247SOL     OW52528   5.071   4.136   7.298 -0.3197  0.9798  0.2486
16247SOL    HW152529   5.046   4.190   7.222 -0.3569  1.4998  0.6232
16247SOL    HW252530   5.011   4.061   7.295  1.3030 -0.3437 -1.6875
16248SOL     OW52531  10.181   0.923   5.937 -0.0441 -0.3196 -0.3317
16248SOL    HW152532  10.265   0.967   5.946 -0.2004 -0.3854  2.2143
16248SOL    HW252533  10.174   0.904   5.843  2.0015  1.1309 -0.8572
16249SOL     OW52534   6.586   9.875   5.933 -0.0048  0.1090  0.1663
16249SOL    HW152535   6.588   9.875   5.837 -1.3961  2.8504  0.0468
16249SOL    HW252536   6.672   9.839   5.958  0.8027  0.2641 -2.1121
16250SOL     OW52537   5.161   7.922   8.310 -0.4648  0.3709 -0.0895
16250SOL    HW152538   5.122   7.842   8.277 -1.0457  0.6778 -0.1628
16250SOL    HW252539   5.252   7.899   8.329 -0.0783  0.1772 -1.9353
16251SOL     OW52540   2.755   6.626   1.987 -0.3498 -0.2405 -0.2540
16251SOL    HW152541   2.817   6.557   2.013  0.5648 -0.1494 -2.0482
16251SOL    HW252542   2.801   6.675   1.920 -2.3048 -0.0278 -1.5125
16252SOL     OW52543   7.749   6.309   7.595  0.0770  0.2410  0.0965
16252SOL    HW152544   7.743   6.312   7.691  3.3137  0.9253  0.3997
16252SOL    HW252545   7.772   6.218   7.576  0.7702  0.4025  0.1275
16253SOL     OW52546   4.661   4.921   5.146  0.1169 -0.7595  0.7864
16253SOL    HW152547   4.577   4.877   5.150  0.8423 -2.3571 -0.1562
16253SOL    HW252548   4.694   4.920   5.235 -0.8356 -0.1482  1.1536
16254SOL     OW52549   9.268   5.420   5.405  0.2106  0.5015 -1.2510
16254SOL    HW152550   9.247   5.454   5.319 -0.8827  2.0448 -0.4088
16254SOL    HW252551   9.232   5.331   5.405 -2.2447  1.4326 -1.4713
16255SOL     OW52552   1.265   9.066   7.200 -0.2569 -0.2821 -0.6376
16255SOL    HW152553   1.243   9.133   7.264 -1.0744  1.3539 -2.5330
16255SOL    HW252554   1.361   9.067   7.197 -0.1549 -1.0330  1.1530
16256SOL     OW52555   7.391   0.131   4.835 -0.0377 -0.0015 -0.3891
16256SOL    HW152556   7.427   0.044   4.815  0.8220  0.2031  0.2324
16256SOL    HW252557   7.468   0.187   4.845 -0.5115  0.3926  1.2066
16257SOL     OW52558   5.482   9.171   6.263 -0.2348 -0.4893 -0.1720
16257SOL    HW152559   5.573   9.173   6.294 -0.3172  1.5436  0.0847
16257SOL    HW252560   5.431   9.204   6.337 -1.2263 -1.7020 -0.2824
16258SOL     OW52561   1.799   7.966   0.482 -0.1179 -0.0722 -0.2012
16258SOL    HW152562   1.753   7.967   0.399 -0.2186 -0.0431 -0.1455
16258SOL    HW252563   1.889   7.945   0.460 -0.2965 -0.7898 -0.2417
16259SOL     OW52564   3.090   3.383   8.958  0.2595 -0.3089 -0.4460
16259SOL    HW152565   3.027   3.411   8.891 -0.1571 -0.4455 -0.1165
16259SOL    HW252566   3.127   3.464   8.992 -0.5821 -0.1643  0.1631
16260SOL     OW52567   0.121   5.885   1.428  0.0480  0.3814  0.1904
16260SOL    HW152568   0.160   5.971   1.417 -0.1947  0.5326  0.4694
16260SOL    HW252569   0.189   5.823   1.402 -0.4374  0.6808 -1.9795
16261SOL     OW52570   2.633   8.354   2.845 -0.1705 -0.2491  0.0123
16261SOL    HW152571   2.693   8.334   2.774 -0.3277 -0.6661 -0.0043
16261SOL    HW252572   2.680   8.417   2.900  0.5782 -1.1458  0.4140
16262SOL     OW52573   5.010   3.647   3.470 -0.0092  0.5614  0.2833
16262SOL    HW152574   5.078   3.686   3.525  0.2060  0.7331 -0.1041
16262SOL    HW252575   5.053   3.572   3.429 -0.3153  0.1309  0.7401
16263SOL     OW52576   2.873   4.407   2.751 -0.1530 -0.3008  0.3934
16263SOL    HW152577   2.892   4.484   2.697 -1.0625  0.5284  1.2062
16263SOL    HW252578   2.938   4.342   2.724 -0.2898  0.2292 -1.3649
16264SOL     OW52579   3.603   0.796   3.359  0.5299 -0.4946 -0.4127
16264SOL    HW152580   3.681   0.742   3.364 -0.3661 -2.0155 -1.9047
16264SOL    HW252581   3.583   0.802   3.266 -0.8101  0.3414 -0.1119
16265SOL     OW52582   0.111   8.955   2.896  0.1232 -0.6572 -0.0111
16265SOL    HW152583   0.077   8.964   2.985  2.6397 -1.6192  1.1420
16265SOL    HW252584   0.088   8.866   2.870 -0.3209 -0.4885 -0.2082
16266SOL     OW52585   5.223   9.625   2.163  0.2257  0.4051 -0.1961
16266SOL    HW152586   5.136   9.653   2.191  0.3844  0.6538  0.0440
16266SOL    HW252587   5.209   9.590   2.075 -0.2917 -0.5063  0.2351
16267SOL     OW52588   5.508   7.008   3.886 -0.3295  0.0501 -0.3112
16267SOL    HW152589   5.441   6.983   3.950  1.5365 -1.0006  1.3290
16267SOL    HW252590   5.589   6.971   3.920  0.9015  0.1314 -2.9207
16268SOL     OW52591   8.910   4.571   9.189  0.1044 -0.2812 -0.1598
16268SOL    HW152592   8.832   4.621   9.167  0.2878 -0.2159 -0.6602
16268SOL    HW252593   8.951   4.550   9.105  0.7392 -0.1309  0.1008
16269SOL     OW52594   5.545   4.662   7.983  0.6165 -0.2901 -0.2128
16269SOL    HW152595   5.514   4.690   7.897  0.2763  1.1096  0.3316
16269SOL    HW252596   5.536   4.567   7.982 -0.4438 -0.2080 -1.3208
16270SOL     OW52597   6.995   3.512   6.347 -0.3434 -0.0842  0.0070
16270SOL    HW152598   6.961   3.567   6.417 -0.2366  0.2321 -0.1847
16270SOL    HW252599   6.922   3.502   6.286  0.2177  1.6077 -1.0216
16271SOL     OW52600   9.264   4.749   2.307  0.3410 -0.1905  0.0613
16271SOL    HW152601   9.197   4.786   2.249  0.8141  0.0850 -0.3188
16271SOL    HW252602   9.250   4.655   2.304  2.0843 -0.4753 -2.7381
16272SOL     OW52603   4.763   0.801  10.199 -0.4625 -0.5365  0.5071
16272SOL    HW152604   4.761   0.739  10.271 -1.4675 -0.5826  0.4564
16272SOL    HW252605   4.801   0.753  10.126 -3.1584 -1.8442 -0.1664
16273SOL     OW52606   0.289   4.173  10.185 -0.1698  0.3382  0.3847
16273SOL    HW152607   0.194   4.163  10.176 -0.0270 -0.7495 -0.1483
16273SOL    HW252608   0.311   4.127  10.266 -0.1721  1.1371  0.8419
16274SOL     OW52609   4.379   3.320   9.953  0.4678 -0.9410 -0.6416
16274SOL    HW152610   4.401   3.317  10.047 -0.6831 -1.0997 -0.3640
16274SOL    HW252611   4.304   3.379   9.948 -0.8870 -2.6430 -1.1708
16275SOL     OW52612   9.045   3.623   0.238  0.8359  0.3513  0.0018
16275SOL    HW152613   9.114   3.561   0.262 -0.8664 -1.9936 -0.7867
16275SOL    HW252614   8.979   3.613   0.306  0.7638  1.7632  0.1621
16276SOL     OW52615   1.622   9.069   1.154  0.0259  0.1931  0.5491
16276SOL    HW152616   1.672   9.110   1.225  0.0170  2.4268 -0.6179
16276SOL    HW252617   1.679   9.079   1.077 -1.5617  1.4835 -0.5249
16277SOL     OW52618   7.674   2.665   2.964  0.5682 -0.2923  0.3302
16277SOL    HW152619   7.669   2.682   2.870  0.6018  0.6422  0.4955
16277SOL    HW252620   7.764   2.635   2.978  0.1778 -1.8116 -0.1379
16278SOL     OW52621   6.131   6.671   5.058 -0.0973 -1.0562 -0.1250
16278SOL    HW152622   6.175   6.622   4.989 -0.3400 -1.8970  0.3078
16278SOL    HW252623   6.197   6.683   5.126 -0.1065 -0.9748 -0.1289
16279SOL     OW52624  10.064   6.729   7.230  0.0031 -0.1586  0.0300
16279SOL    HW152625  10.067   6.655   7.290 -0.0069 -0.7056 -0.6353
16279SOL    HW252626  10.021   6.695   7.152 -1.0624  0.8602  0.1476
16280SOL     OW52627   0.132   5.289   3.254  0.0386 -0.2974 -0.6534
16280SOL    HW152628   0.207   5.298   3.195  1.3353  1.7872  1.2023
16280SOL    HW252629   0.132   5.196   3.278  1.7597 -0.4270 -1.0146
16281SOL     OW52630   5.940   1.190   7.871 -0.0101 -0.2291 -0.5280
16281SOL    HW152631   5.979   1.278   7.878  1.5521 -1.0102  1.8290
16281SOL    HW252632   6.013   1.134   7.844  0.6943 -1.7026  3.7685
16282SOL     OW52633   3.960   8.510   7.979 -0.3761 -0.3790 -0.5728
16282SOL    HW152634   3.927   8.596   7.953 -1.7383 -0.9479 -0.8295
16282SOL    HW252635   4.055   8.517   7.972 -0.4082  1.3262  0.1165
16283SOL     OW52636   8.055   4.155   5.330  0.5277  0.7997 -0.6490
16283SOL    HW152637   8.133   4.100   5.326  0.2329  0.3189 -0.1079
16283SOL    HW252638   8.083   4.234   5.376  0.4820  0.2151  0.4214
16284SOL     OW52639   6.379   0.813   0.162 -0.3698  0.1693 -0.0161
16284SOL    HW152640   6.436   0.772   0.097 -0.7601 -0.4646  0.0380
16284SOL    HW252641   6.420   0.898   0.179  0.5875 -0.2939  0.0564
16285SOL     OW52642   5.646   3.542   8.163  0.3588 -0.5184  0.0156
16285SOL    HW152643   5.638   3.581   8.076 -0.1192 -0.7320 -0.0371
16285SOL    HW252644   5.645   3.448   8.148  0.1823 -0.5579  0.2576
16286SOL     OW52645   8.450   0.788   0.226  0.0812  0.3784  0.3754
16286SOL    HW152646   8.545   0.801   0.238 -0.0350  0.5397  1.2050
16286SOL    HW252647   8.418   0.770   0.314 -0.4255 -1.2788 -0.1192
16287SOL     OW52648   5.625   3.401   3.846  0.2541  0.0998 -0.1757
16287SOL    HW152649   5.544   3.351   3.860  0.1295  0.7450  1.7655
16287SOL    HW252650   5.597   3.492   3.845  0.9130  0.3107  0.1142
16288SOL     OW52651   8.606   9.438   8.135 -0.2058 -0.1084 -0.3978
16288SOL    HW152652   8.679   9.438   8.197  0.0795 -0.9279 -0.7151
16288SOL    HW252653   8.528   9.448   8.189 -0.1672 -3.1116  0.3921
16289SOL     OW52654   9.869   6.410   7.114  0.4786  0.3224 -1.0585
16289SOL    HW152655   9.899   6.398   7.024 -1.1302 -0.1544 -1.5692
16289SOL    HW252656   9.796   6.349   7.124  1.4810 -0.6497  1.0373
16290SOL     OW52657   6.725   5.494   2.703  0.3633  0.4793 -0.4240
16290SOL    HW152658   6.814   5.514   2.732  0.2162  2.0818 -0.9870
16290SOL    HW252659   6.736   5.461   2.614  0.4463 -0.1852 -0.1770
16291SOL     OW52660   5.377   3.855   7.306  0.2952 -0.3734 -0.4858
16291SOL    HW152661   5.302   3.797   7.294  0.9202 -1.2101 -0.4000
16291SOL    HW252662   5.445   3.819   7.248  1.1752 -0.6083  0.6488
16292SOL     OW52663   1.766   2.678   4.014  0.1023 -0.5250 -0.2637
16292SOL    HW152664   1.760   2.598   3.960 -0.2600 -1.0079  0.4733
16292SOL    HW252665   1.680   2.684   4.055 -0.8372  1.7217 -2.3329
16293SOL     OW52666   4.359   6.419   0.731  0.2785 -0.8519  0.1826
16293SOL    HW152667   4.381   6.328   0.712  0.0422 -0.6567 -1.0937
16293SOL    HW252668   4.353   6.423   0.827  1.6172 -1.8621  0.3318
16294SOL     OW52669   7.763   9.225   2.403  0.0526  0.0316  0.5559
16294SOL    HW152670   7.748   9.317   2.422 -0.0900  0.0852  0.1822
16294SOL    HW252671   7.679   9.182   2.423 -0.4001  0.2257 -0.8459
16295SOL     OW52672   4.182   5.428   2.521  0.2736 -0.0333  0.0778
16295SOL    HW152673   4.162   5.479   2.442  1.6900  1.9537  0.9223
16295SOL    HW252674   4.096   5.406   2.557 -0.4074 -0.9160 -1.9101
16296SOL     OW52675  10.302   4.327   8.533  0.2626  0.0921  0.4393
16296SOL    HW152676  10.236   4.392   8.558  1.7624  2.5261 -1.4603
16296SOL    HW252677  10.291   4.318   8.439  1.4148 -0.9045  0.3832
16297SOL     OW52678   1.264  10.038   8.683  0.0043  0.1329  0.3364
16297SOL    HW152679   1.251  10.112   8.743  1.4521 -0.4903  1.4570
16297SOL    HW252680   1.264  10.078   8.596 -0.1789  1.3243  0.8628
16298SOL     OW52681   3.619   0.819   2.469  0.9970 -0.0525 -0.7094
16298SOL    HW152682   3.659   0.887   2.523  3.2346 -0.4457 -1.7673
16298SOL    HW252683   3.566   0.768   2.530  2.5215  0.2136  0.9094
16299SOL     OW52684   0.728   1.095   1.882  0.2359  0.6754 -0.0293
16299SOL    HW152685   0.782   1.024   1.846  1.3293  0.9254  1.0312
16299SOL    HW252686   0.761   1.174   1.840  1.0325  0.8805  0.9300
16300SOL     OW52687   6.267   4.494   3.522 -0.0183 -0.3141  0.5297
16300SOL    HW152688   6.320   4.441   3.464 -0.6493  1.6728 -2.0388
16300SOL    HW252689   6.210   4.432   3.567  1.6823 -2.0789  0.3733
16301SOL     OW52690   4.907   7.587   1.407  0.6357 -0.0657 -0.1917
16301SOL    HW152691   4.836   7.624   1.461 -0.9951  1.2092 -3.0022
16301SOL    HW252692   4.986   7.602   1.459 -0.7823  1.3101  1.7446
16302SOL     OW52693   9.212   6.566   0.960  0.4023 -0.4001  0.1210
16302SOL    HW152694   9.274   6.638   0.951 -0.6235  0.4241 -0.4521
16302SOL    HW252695   9.267   6.487   0.953  1.4662  0.3005  0.2698
16303SOL     OW52696   0.826   6.899   2.262 -0.4681  0.2339  0.2953
16303SOL    HW152697   0.823   6.993   2.278 -0.5281  0.2104  0.4223
16303SOL    HW252698   0.751   6.882   2.205  0.4345  0.5095 -1.0316
16304SOL     OW52699   4.935   1.910   7.253  0.4601  0.3748 -0.1080
16304SOL    HW152700   4.895   1.906   7.340 -0.2867 -1.0993 -0.4808
16304SOL    HW252701   4.878   1.969   7.204  0.3307  0.4443  0.1204
16305SOL     OW52702   3.721   8.967   9.002  0.3720  0.1795  0.5218
16305SOL    HW152703   3.676   9.003   8.926 -0.9413 -1.7832  0.2990
16305SOL    HW252704   3.788   9.032   9.023 -0.3695  1.5967 -1.2189
16306SOL     OW52705   1.338   8.574   4.284  0.4295 -0.4790  0.6261
16306SOL    HW152706   1.411   8.526   4.245  0.7586 -1.2551  2.1032
16306SOL    HW252707   1.335   8.657   4.237 -0.3429 -2.0144 -2.2488
16307SOL     OW52708   8.177   9.065   7.528  0.4784  0.2197  0.5407
16307SOL    HW152709   8.259   9.022   7.506 -0.7038 -1.7487 -0.2664
16307SOL    HW252710   8.175   9.065   7.624  1.7443  1.0420  0.5972
16308SOL     OW52711   4.962   6.945   3.840 -0.0730 -0.1278  0.3032
16308SOL    HW152712   4.927   6.856   3.832 -2.8067  0.8841 -0.1861
16308SOL    HW252713   4.972   6.974   3.749  0.2151  0.2794  0.4648
16309SOL     OW52714   2.819   6.918   5.112 -0.1233 -0.0098  0.0194
16309SOL    HW152715   2.875   6.924   5.034 -1.2451 -0.5294 -0.8579
16309SOL    HW252716   2.880   6.908   5.185  1.0185  2.0296 -0.5939
16310SOL     OW52717   7.401   3.074   0.052  0.3936  0.0014  0.1063
16310SOL    HW152718   7.371   3.068  -0.039  0.6854  3.5902 -0.3680
16310SOL    HW252719   7.321   3.074   0.104  0.2215 -2.0535 -0.0654
16311SOL     OW52720   1.018   1.845   9.116 -0.0914 -0.5614 -0.1387
16311SOL    HW152721   0.962   1.902   9.065  0.8303  1.4482  0.9541
16311SOL    HW252722   0.980   1.846   9.204  0.0984 -1.4270 -0.0339
16312SOL     OW52723   8.033   1.684   1.534 -0.6269 -0.8513 -0.2132
16312SOL    HW152724   8.123   1.701   1.561 -0.4023 -0.6138 -1.0652
16312SOL    HW252725   8.037   1.686   1.438 -1.7831  0.4964 -0.2585
16313SOL     OW52726   6.740   6.125   9.227 -0.0276 -0.4915  0.0830
16313SOL    HW152727   6.742   6.218   9.246  1.1127 -0.6656  0.8905
16313SOL    HW252728   6.714   6.120   9.135 -2.8777  0.4882  0.7311
16314SOL     OW52729   7.609   2.985   7.459 -0.0264  0.2851 -0.0652
16314SOL    HW152730   7.525   3.029   7.472 -0.2506 -0.3148  0.5346
16314SOL    HW252731   7.648   2.981   7.546  0.0452 -0.5994 -0.1339
16315SOL     OW52732   9.428   5.950   2.672  0.2247 -0.2766 -0.2889
16315SOL    HW152733   9.339   5.969   2.643  0.1740 -2.2489 -1.5462
16315SOL    HW252734   9.482   6.016   2.629 -0.6707  1.7120  1.4274
16316SOL     OW52735   2.098   7.704   1.945 -0.1753  0.5926  0.1795
16316SOL    HW152736   2.009   7.668   1.934 -0.7528  1.5097  1.6110
16316SOL    HW252737   2.104   7.725   2.038  1.2460  1.3608 -0.0601
16317SOL     OW52738   8.637   8.031   2.252 -0.0825  0.1679 -0.3118
16317SOL    HW152739   8.706   8.056   2.191  0.3574 -1.8631 -0.6881
16317SOL    HW252740   8.616   7.941   2.229 -1.6112  0.1660  0.9752
16318SOL     OW52741   7.972   2.573   1.681  0.2755  0.1958 -1.1804
16318SOL    HW152742   7.971   2.479   1.663 -0.4642 -0.1470  0.4011
16318SOL    HW252743   7.880   2.599   1.676 -0.0222  0.0764  1.6185
16319SOL     OW52744   8.756   1.842   3.894  0.2175 -0.5689 -0.5297
16319SOL    HW152745   8.843   1.802   3.885  1.0478  0.8633  0.5843
16319SOL    HW252746   8.697   1.770   3.913  1.6831 -1.2656  1.6111
16320SOL     OW52747   5.123   3.393  10.094 -0.0920 -0.2559  0.6940
16320SOL    HW152748   5.103   3.414  10.002  0.8307  0.4633  0.6373
16320SOL    HW252749   5.165   3.307  10.090  1.4591  0.4874  0.2270
16321SOL     OW52750   9.949   1.864   5.998 -0.0382  0.1470 -0.5256
16321SOL    HW152751   9.926   1.956   6.004 -0.1307  0.0677  0.7248
16321SOL    HW252752   9.930   1.840   5.907  0.4381  1.4568 -0.9929
16322SOL     OW52753   2.928   7.129   1.901 -0.2757 -0.0683  0.5540
16322SOL    HW152754   2.840   7.153   1.872  1.0016  3.2234 -1.2009
16322SOL    HW252755   2.976   7.112   1.820  1.4647  1.4167  1.2050
16323SOL     OW52756   3.263   5.785   8.405  0.4240 -0.2766 -0.2068
16323SOL    HW152757   3.298   5.797   8.493 -1.1831 -2.0123  0.7491
16323SOL    HW252758   3.194   5.852   8.397 -1.6606 -2.1248  1.1999
16324SOL     OW52759   7.709   9.807   9.797 -0.4521  0.3061  0.0091
16324SOL    HW152760   7.740   9.719   9.818  2.9673  1.7211  1.7525
16324SOL    HW252761   7.698   9.807   9.701  2.4053 -1.2564 -0.4165
16325SOL     OW52762   1.990   0.377   5.382  0.2617  0.2607  0.1825
16325SOL    HW152763   2.030   0.405   5.300  1.0660 -1.8387 -0.2157
16325SOL    HW252764   1.963   0.286   5.365  0.3129 -0.1720  2.2000
16326SOL     OW52765   2.772   5.122   7.730  0.1540  0.4502  0.0065
16326SOL    HW152766   2.717   5.067   7.786 -1.5832 -0.5304 -2.4581
16326SOL    HW252767   2.794   5.066   7.655  1.8522  1.8515 -0.6186
16327SOL     OW52768   8.064   1.973   1.809 -0.3887  0.3169  0.4745
16327SOL    HW152769   8.045   1.895   1.861  0.0508 -1.2020 -1.5137
16327SOL    HW252770   7.986   1.986   1.755 -0.2950  1.0204  0.4966
16328SOL     OW52771   1.065   3.792   4.558  0.4638 -0.3645  0.0959
16328SOL    HW152772   1.092   3.828   4.473  1.3068  0.6589  0.7817
16328SOL    HW252773   1.130   3.725   4.578 -0.5903 -1.6882 -0.7498
16329SOL     OW52774  10.282   0.190   2.963  0.3562 -0.1313  0.0974
16329SOL    HW152775  10.376   0.208   2.965  0.4033 -0.1780 -1.1262
16329SOL    HW252776  10.245   0.251   3.027  0.9882  1.3708 -0.9186
16330SOL     OW52777   7.385   8.393  10.293  0.0525  0.6257  1.1193
16330SOL    HW152778   7.323   8.360  10.358 -1.6638 -0.3633 -0.9016
16330SOL    HW252779   7.394   8.486  10.314 -1.3654  0.5786  2.0842
16331SOL     OW52780   2.359   5.670  10.304  0.4238  0.1127 -0.5004
16331SOL    HW152781   2.426   5.712  10.251  0.9962 -0.2818 -0.0948
16331SOL    HW252782   2.405   5.641  10.383 -0.0496 -0.8980 -0.5831
16332SOL     OW52783   1.266   0.441   6.495  0.9181  0.1566 -0.0466
16332SOL    HW152784   1.181   0.482   6.509  0.4040 -1.7641  4.0721
16332SOL    HW252785   1.330   0.505   6.525  0.7757  0.7230 -0.9237
16333SOL     OW52786   2.129   1.294   8.986 -0.5007  0.1545  0.0708
16333SOL    HW152787   2.067   1.277   8.915 -1.1851 -0.4664  0.7984
16333SOL    HW252788   2.074   1.312   9.063  0.2162  1.5849  0.2929
16334SOL     OW52789   8.160   3.467   9.605 -0.4127  0.3760 -0.1001
16334SOL    HW152790   8.102   3.419   9.664 -0.5547  0.4454 -0.1804
16334SOL    HW252791   8.199   3.400   9.549  0.6427  0.1811  0.8533
16335SOL     OW52792   8.273   4.689   4.189 -0.3215  0.0361 -0.1187
16335SOL    HW152793   8.331   4.656   4.258  0.4135  0.0277 -0.7311
16335SOL    HW252794   8.231   4.611   4.154 -0.2146 -0.0246 -0.1121
16336SOL     OW52795   3.754   8.964   0.348 -0.2298  0.3704 -0.9721
16336SOL    HW152796   3.823   8.997   0.405 -0.3771  0.1339 -0.6577
16336SOL    HW252797   3.735   8.876   0.380 -1.2365  0.7218 -0.5412
16337SOL     OW52798   7.806   4.937   0.610  0.0678 -0.2319  0.2461
16337SOL    HW152799   7.804   4.848   0.645 -0.6724 -0.0654  0.6461
16337SOL    HW252800   7.856   4.930   0.528  0.8614 -0.8292  0.7658
16338SOL     OW52801   6.063   9.385   8.376 -0.3616 -0.2297 -0.3070
16338SOL    HW152802   6.053   9.430   8.460 -0.2584 -0.3179 -0.2469
16338SOL    HW252803   6.039   9.294   8.394  0.8982 -0.5352 -0.0632
16339SOL     OW52804   0.396   8.768   8.958  0.0827 -1.0345 -0.4107
16339SOL    HW152805   0.423   8.746   9.047  2.0414 -1.2481 -1.0094
16339SOL    HW252806   0.339   8.695   8.932 -2.7335  0.2780  1.4985
16340SOL     OW52807   9.630   6.394   5.396 -0.0984  0.4910 -0.8358
16340SOL    HW152808   9.641   6.318   5.453  0.4960 -0.3734 -2.0905
16340SOL    HW252809   9.694   6.458   5.429  0.8919 -0.3444 -1.0845
16341SOL     OW52810   5.582   0.217   4.186  0.5230  0.5698  0.2369
16341SOL    HW152811   5.547   0.137   4.225 -1.1451  1.4112  0.5863
16341SOL    HW252812   5.646   0.249   4.250 -0.6157  0.7998  1.3010
16342SOL     OW52813  10.203   4.542   0.446 -0.7088  0.3449  0.1754
16342SOL    HW152814  10.251   4.544   0.528 -0.3399 -2.1791  0.1089
16342SOL    HW252815  10.129   4.602   0.459  0.3766  1.4295  1.6101
16343SOL     OW52816   5.420   6.659   6.163  0.5189  0.0236  0.4152
16343SOL    HW152817   5.514   6.649   6.176  0.8424 -0.4164 -1.8801
16343SOL    HW252818   5.409   6.663   6.068 -1.9933 -2.3939  0.4644
16344SOL     OW52819   2.523   7.723   6.116 -0.2620 -0.2891  0.2399
16344SOL    HW152820   2.482   7.808   6.130  1.6348  0.5623  0.9681
16344SOL    HW252821   2.478   7.665   6.178 -2.8213 -0.3408 -1.5056
16345SOL     OW52822   2.975   5.385   4.027  0.0114 -0.0761 -0.0085
16345SOL    HW152823   2.912   5.445   4.068  0.2777 -0.7026  1.3612
16345SOL    HW252824   2.926   5.345   3.955 -0.3533  1.3374 -0.5803
16346SOL     OW52825   5.976   6.867   4.193 -0.1356 -0.1244 -0.4937
16346SOL    HW152826   6.059   6.863   4.145 -0.0107 -0.2769 -0.2634
16346SOL    HW252827   5.984   6.944   4.249 -0.1866 -0.0870 -0.5373
16347SOL     OW52828   7.624   7.917   5.509 -0.2047 -0.2651 -0.5621
16347SOL    HW152829   7.679   7.921   5.587  1.5227  0.3053 -1.7538
16347SOL    HW252830   7.682   7.886   5.440 -1.2121  0.9161 -2.0131
16348SOL     OW52831   3.596   9.281   4.657 -0.2572 -0.0023  0.1177
16348SOL    HW152832   3.637   9.196   4.641  0.3576  0.1270  0.9044
16348SOL    HW252833   3.505   9.269   4.630  0.1653 -0.4573 -1.1698
16349SOL     OW52834   5.559   1.883   8.317 -0.2545  0.1721 -0.1141
16349SOL    HW152835   5.526   1.905   8.230 -1.2512 -2.0102 -0.3646
16349SOL    HW252836   5.481   1.863   8.368  0.4452 -2.1079  0.1921
16350SOL     OW52837   7.894   5.801  10.012  0.0263  0.0133 -0.4092
16350SOL    HW152838   7.845   5.857   9.951 -1.3256 -2.2883 -1.5828
16350SOL    HW252839   7.976   5.782   9.966  0.5820  1.1433  0.0832
16351SOL     OW52840   3.402   3.504   3.221 -0.3783 -0.2205  0.1145
16351SOL    HW152841   3.473   3.502   3.285  0.2177 -0.2232 -0.5443
16351SOL    HW252842   3.350   3.581   3.246 -0.7421 -0.8073  1.2201
16352SOL     OW52843   0.991   7.424   4.043  0.3028  0.2684  0.6431
16352SOL    HW152844   0.962   7.338   4.014  2.3834 -0.1088 -0.5379
16352SOL    HW252845   1.012   7.471   3.962 -1.1645  2.0670  1.2428
16353SOL     OW52846   6.207   4.074   6.798 -0.1367  0.2031  0.3145
16353SOL    HW152847   6.284   4.093   6.852 -0.2420 -1.7121  1.2239
16353SOL    HW252848   6.133   4.082   6.858 -0.4418 -0.0464 -0.0234
16354SOL     OW52849   7.918   0.649   0.065 -0.1973  0.3797  0.1206
16354SOL    HW152850   7.907   0.631   0.159 -1.4015  3.2979  0.6223
16354SOL    HW252851   7.968   0.730   0.062  1.1623 -0.4754 -1.8442
16355SOL     OW52852   0.689   8.414   6.988  0.4525  0.1041 -0.3839
16355SOL    HW152853   0.753   8.403   6.917  0.9185  1.1813 -0.1430
16355SOL    HW252854   0.738   8.393   7.067  0.9749  2.3862 -0.0472
16356SOL     OW52855   3.810  10.202   0.800 -0.2163 -0.3620  0.1733
16356SOL    HW152856   3.798  10.258   0.877 -1.8497 -0.8308  0.3014
16356SOL    HW252857   3.903  10.182   0.800 -0.1778 -0.4292  2.1146
16357SOL     OW52858   8.309   2.957   9.289  0.2373  0.0208  0.3013
16357SOL    HW152859   8.395   2.967   9.249 -0.3241 -2.5984 -1.8144
16357SOL    HW252860   8.310   2.869   9.327 -0.4728  1.1355  3.1631
16358SOL     OW52861   9.728   8.385   4.575 -0.0189  0.7232 -0.3802
16358SOL    HW152862   9.693   8.393   4.486 -1.1074  1.7072  0.1239
16358SOL    HW252863   9.691   8.303   4.608 -1.8657  1.7241  0.1265
16359SOL     OW52864   3.413   7.965   0.832 -1.0639  0.1020  0.8109
16359SOL    HW152865   3.332   7.959   0.780 -0.0112  0.3614 -0.9597
16359SOL    HW252866   3.407   8.050   0.876 -0.4656  1.5706 -1.7274
16360SOL     OW52867   1.413   3.478   7.982  0.1124 -0.4135  0.1730
16360SOL    HW152868   1.362   3.402   8.009 -0.6896  0.0899  0.1093
16360SOL    HW252869   1.412   3.536   8.059  2.5078 -1.3343  1.0029
16361SOL     OW52870   7.074   7.293   2.028  0.4209  0.0776  0.5583
16361SOL    HW152871   7.002   7.237   2.058 -0.9454  0.5284 -1.6643
16361SOL    HW252872   7.087   7.356   2.099 -2.4931  0.9722  0.4110
16362SOL     OW52873   3.013   5.712   1.711 -0.0977  0.0960 -0.1503
16362SOL    HW152874   2.959   5.789   1.729  0.5190  0.9665 -1.7749
16362SOL    HW252875   2.975   5.643   1.765 -1.7674  1.0921  0.0316
16363SOL     OW52876   9.993   2.459   4.694  0.8969 -0.2529 -0.6233
16363SOL    HW152877   9.974   2.435   4.784  4.1169  2.7404  1.1287
16363SOL    HW252878  10.038   2.383   4.657  1.3548 -0.8204  1.0297
16364SOL     OW52879   6.960   5.327   2.972 -0.2636 -0.2065  0.6614
16364SOL    HW152880   6.966   5.240   2.934  1.6098 -0.1688  0.7995
16364SOL    HW252881   7.001   5.320   3.058 -1.7105  0.4177  1.4374
16365SOL     OW52882   2.225   7.939   7.875  0.1433 -0.2177 -0.3268
16365SOL    HW152883   2.298   7.882   7.850 -1.4158 -1.4678 -2.4263
16365SOL    HW252884   2.266   8.021   7.900  2.3000 -1.1646 -0.5316
16366SOL     OW52885   7.311   1.607   7.714 -0.4942 -0.4816 -0.1362
16366SOL    HW152886   7.278   1.546   7.649 -0.3231 -0.5158 -0.1923
16366SOL    HW252887   7.281   1.572   7.798  0.7520 -1.4033 -0.0478
16367SOL     OW52888   0.776   4.369   1.785  0.0123 -0.0785  0.3437
16367SOL    HW152889   0.715   4.295   1.780 -1.3015  0.9958 -0.2903
16367SOL    HW252890   0.828   4.352   1.863 -0.7829 -1.2854  0.6470
16368SOL     OW52891   1.688   5.131   9.168 -0.6275 -0.0752  0.5072
16368SOL    HW152892   1.747   5.179   9.111 -0.9261 -0.6628 -0.3300
16368SOL    HW252893   1.744   5.072   9.217 -0.1239  1.8503  2.3609
16369SOL     OW52894   2.688   2.934   3.938  0.1960  0.0417  0.1948
16369SOL    HW152895   2.661   2.937   4.030  1.8971  1.1229  0.6951
16369SOL    HW252896   2.622   2.878   3.896 -1.5423  0.8046  1.7347
16370SOL     OW52897   7.989   8.553   5.064  0.8726  0.0809 -0.3316
16370SOL    HW152898   8.081   8.559   5.041  1.2479 -0.4773  0.9455
16370SOL    HW252899   7.966   8.461   5.049  0.2214  0.4243 -1.6375
16371SOL     OW52900  10.265   0.161   7.959  0.2624  0.4072  0.6982
16371SOL    HW152901  10.181   0.199   7.934 -0.4423 -1.0142  0.8139
16371SOL    HW252902  10.326   0.190   7.890 -1.4449 -2.7443 -2.4998
16372SOL     OW52903   2.053   0.395   8.643 -0.1126  0.3202  0.3232
16372SOL    HW152904   2.144   0.419   8.659 -0.1972 -0.3450  2.0009
16372SOL    HW252905   2.053   0.356   8.556  1.0390  1.1112 -0.0527
16373SOL     OW52906   8.672   3.279   7.731  0.1579  0.3452 -0.2697
16373SOL    HW152907   8.606   3.231   7.681  0.7384 -1.7159  0.8334
16373SOL    HW252908   8.756   3.246   7.700  0.5990  0.9600  0.2291
16374SOL     OW52909   9.589   6.594  10.057 -0.5544 -0.1138  0.4670
16374SOL    HW152910   9.541   6.604   9.974 -1.0440 -3.0462  0.2935
16374SOL    HW252911   9.590   6.500  10.073  2.3124  0.0839  2.2031
16375SOL     OW52912   5.035   2.688   1.005  0.4067 -0.3714  0.1748
16375SOL    HW152913   5.117   2.639   1.002  0.0686 -0.9645  0.3202
16375SOL    HW252914   5.061   2.779   1.010  1.0854 -0.2282 -3.5057
16376SOL     OW52915   9.115   1.424   8.987 -0.0740  0.5099 -0.4402
16376SOL    HW152916   9.058   1.349   8.972 -0.1723  0.5871 -0.4557
16376SOL    HW252917   9.120   1.431   9.083 -1.0626  1.2247 -0.4199
16377SOL     OW52918   9.291   4.083   5.029  0.1732  0.0777  0.1012
16377SOL    HW152919   9.296   3.988   5.040  0.0960  0.0867  0.2154
16377SOL    HW252920   9.203   4.099   4.996 -0.1037  0.1884  0.8910
16378SOL     OW52921   4.480   3.698   9.379 -0.1539 -0.4168  0.0573
16378SOL    HW152922   4.396   3.650   9.383 -1.5842  1.9268  0.0142
16378SOL    HW252923   4.542   3.640   9.423 -2.2094 -1.4675  1.7787
16379SOL     OW52924   2.034   3.886   1.869  0.5665  0.1552 -0.1845
16379SOL    HW152925   1.965   3.821   1.861  1.1652 -0.5986  0.5841
16379SOL    HW252926   2.020   3.924   1.956 -0.8592  2.3641 -1.2633
16380SOL     OW52927   9.024   2.980   3.751 -0.6414  0.1114 -0.0651
16380SOL    HW152928   9.114   2.975   3.720 -0.8367 -1.9337 -0.4283
16380SOL    HW252929   9.019   2.919   3.824 -1.8990 -0.3963 -0.5319
16381SOL     OW52930   0.945   4.622   7.453  0.2365 -0.2512 -0.0950
16381SOL    HW152931   0.904   4.570   7.383  2.4977 -0.1610 -1.5749
16381SOL    HW252932   0.913   4.581   7.534 -1.4054 -1.2077 -1.1547
16382SOL     OW52933   3.787   5.218   6.596 -0.2130 -0.3022 -0.0822
16382SOL    HW152934   3.802   5.286   6.661 -0.1005 -1.2173  0.8796
16382SOL    HW252935   3.857   5.231   6.531  2.7355 -2.2311  2.4162
16383SOL     OW52936   3.267   0.690   5.558 -0.1178  0.2266 -0.4770
16383SOL    HW152937   3.289   0.723   5.645  0.4234 -0.6863 -0.2592
16383SOL    HW252938   3.344   0.640   5.531 -0.6581 -0.2891 -1.0834
16384SOL     OW52939   7.750   4.671   2.923 -0.0463  0.2482 -0.2454
16384SOL    HW152940   7.769   4.764   2.909  0.1969  0.1930 -0.2942
16384SOL    HW252941   7.740   4.662   3.018 -0.1276  0.3346 -0.2458
16385SOL     OW52942   1.139   8.949   1.267  0.4828 -0.0460 -0.2185
16385SOL    HW152943   1.065   8.897   1.297  1.0434 -0.9458 -0.3717
16385SOL    HW252944   1.100   9.034   1.243 -1.1054 -1.5148 -3.4684
16386SOL     OW52945   7.861   6.176   5.891  0.3272 -0.2363  0.8919
16386SOL    HW152946   7.950   6.155   5.865  0.0244  0.3324 -0.7167
16386SOL    HW252947   7.819   6.091   5.906  0.1922 -0.6972 -1.7207
16387SOL     OW52948  10.231   3.520   8.726  0.3625 -0.1292 -0.4917
16387SOL    HW152949  10.194   3.578   8.793  2.7639  0.5225  0.3955
16387SOL    HW252950  10.185   3.543   8.646  0.1911  1.9792  0.1506
16388SOL     OW52951   8.745   9.704   5.740  0.4203 -0.6263  0.1808
16388SOL    HW152952   8.794   9.651   5.803  0.6699  0.2954  0.7784
16388SOL    HW252953   8.666   9.730   5.788  1.2020  1.1364  0.5860
16389SOL     OW52954   2.628   2.485   9.264 -0.3541  0.4660 -0.2194
16389SOL    HW152955   2.717   2.492   9.300 -0.0238  0.0323 -0.9228
16389SOL    HW252956   2.637   2.422   9.193 -1.1428  0.7678 -0.5881
16390SOL     OW52957   8.281   8.269   2.754  0.1280  0.8028 -0.3022
16390SOL    HW152958   8.365   8.278   2.799  0.6092 -0.8670 -0.7853
16390SOL    HW252959   8.262   8.175   2.758 -1.5110  1.1079 -0.5719
16391SOL     OW52960   0.542   0.173   9.152  0.3044  0.9567 -0.4047
16391SOL    HW152961   0.560   0.221   9.233 -1.6778 -1.7899  1.8868
16391SOL    HW252962   0.622   0.123   9.136  0.1202  0.1563  0.9895
16392SOL     OW52963   7.758   0.963   3.362  0.1201 -0.6365  0.3644
16392SOL    HW152964   7.666   0.991   3.361 -0.4164 -2.1507  2.3206
16392SOL    HW252965   7.802   1.029   3.416  0.2666  0.1842 -0.7102
16393SOL     OW52966   9.038   3.125   9.201  0.1875  0.5156  0.3884
16393SOL    HW152967   9.114   3.067   9.207  0.2888  0.7845  2.7381
16393SOL    HW252968   8.968   3.069   9.167  0.8093 -0.4111  0.5731
16394SOL     OW52969   9.997   5.290   2.761 -0.2465  0.0201 -0.2948
16394SOL    HW152970   9.976   5.379   2.790  0.8456  0.4350 -0.7524
16394SOL    HW252971  10.087   5.276   2.789  0.5161  0.0502 -2.5193
16395SOL     OW52972   1.364   4.925   2.931  0.6075 -0.7697  0.3018
16395SOL    HW152973   1.389   5.017   2.941  0.3474 -0.7055  0.3721
16395SOL    HW252974   1.338   4.898   3.018 -3.0748  0.2023 -0.3322
16396SOL     OW52975   8.580   9.907   1.525  0.2157  0.2305  0.0361
16396SOL    HW152976   8.489   9.932   1.542  0.1355  0.2951 -0.4471
16396SOL    HW252977   8.623   9.912   1.610 -0.0858  0.8340  0.1626
16397SOL     OW52978   8.552   6.326   1.700  0.0317 -0.3686  0.5047
16397SOL    HW152979   8.533   6.252   1.643  1.5293  0.5685 -1.3116
16397SOL    HW252980   8.509   6.401   1.659  0.2266  0.1424  1.1989
16398SOL     OW52981   4.868   2.065   4.445 -0.0166 -0.1467  0.0191
16398SOL    HW152982   4.900   1.987   4.492 -0.1581  0.7669  1.7140
16398SOL    HW252983   4.853   2.034   4.356  3.3014 -1.2140 -0.2981
16399SOL     OW52984   1.913   0.567   4.372  0.1740  0.1753 -0.5502
16399SOL    HW152985   1.975   0.640   4.384 -1.0145  1.2158 -0.4772
16399SOL    HW252986   1.952   0.514   4.303  1.1054  0.8578 -0.5746
16400SOL     OW52987   1.666   5.774   3.702 -0.1723  0.1828 -0.2896
16400SOL    HW152988   1.643   5.793   3.793 -0.7427 -3.5095  0.5158
16400SOL    HW252989   1.761   5.773   3.701 -0.1657 -0.0499  0.3481
16401SOL     OW52990   5.415   9.250   2.664  0.0204 -0.1157  0.1689
16401SOL    HW152991   5.483   9.301   2.708 -1.0178 -0.0934  1.8295
16401SOL    HW252992   5.348   9.238   2.730 -1.4811 -0.3823 -1.3455
16402SOL     OW52993   4.341   0.292  10.110  0.1437 -0.0761  0.1720
16402SOL    HW152994   4.379   0.204  10.112 -2.0320 -1.0748  0.3883
16402SOL    HW252995   4.336   0.314  10.017 -0.1447 -0.5816  0.0625
16403SOL     OW52996   6.569   9.129   1.496  0.7823 -0.0971 -0.2332
16403SOL    HW152997   6.608   9.070   1.431  2.2606  2.5293 -1.9253
16403SOL    HW252998   6.578   9.083   1.579  1.3835 -2.4311 -1.5073
16404SOL     OW52999   5.325   1.650   4.615  0.2101  0.4009 -0.5721
16404SOL    HW153000   5.270   1.614   4.545  0.7428 -2.1558  0.2193
16404SOL    HW253001   5.275   1.724   4.650 -1.3398 -0.0258 -1.8065
16405SOL     OW53002   8.971   4.250   6.531 -0.6545  1.0623  0.1210
16405SOL    HW153003   8.974   4.172   6.587 -0.1096  1.1740  0.2513
16405SOL    HW253004   8.878   4.260   6.509 -0.6840  0.1607 -0.2005
16406SOL     OW53005   1.744   2.117   0.801 -0.4306  0.3699 -0.3149
16406SOL    HW153006   1.719   2.040   0.750  1.2011 -0.5399  0.1970
16406SOL    HW253007   1.749   2.188   0.736 -2.9174  0.3556 -0.6457
16407SOL     OW53008   7.171   3.601   1.103  0.0893  0.0804 -0.1140
16407SOL    HW153009   7.189   3.691   1.075  0.0631  0.3408  0.6692
16407SOL    HW253010   7.216   3.547   1.039 -0.0203  0.6487 -0.6830
16408SOL     OW53011   4.940   3.922   6.149 -0.1409 -0.7096  0.0688
16408SOL    HW153012   4.989   3.863   6.207  0.3661  0.6856  1.0881
16408SOL    HW253013   4.848   3.897   6.162 -0.0742 -0.1768  1.7770
16409SOL     OW53014   5.859   2.897   3.181  0.4944  0.3350  0.5553
16409SOL    HW153015   5.895   2.810   3.196  2.2544  0.5140 -1.9876
16409SOL    HW253016   5.774   2.881   3.139  0.4615 -0.1486  0.8064
16410SOL     OW53017   9.695   7.071  10.352  0.1669 -0.2378  0.1689
16410SOL    HW153018   9.628   7.081  10.420  0.1748  0.1745  0.1196
16410SOL    HW253019   9.646   7.061  10.271  0.1675  0.2876  0.1041
16411SOL     OW53020   9.050   1.547   0.421  0.8102 -0.1985  0.3617
16411SOL    HW153021   9.138   1.584   0.428  0.6689  0.2579 -0.2497
16411SOL    HW253022   9.011   1.591   0.346 -0.2545  0.2393  1.1464
16412SOL     OW53023   5.905   0.523   4.795  0.5056  0.2408  0.1887
16412SOL    HW153024   5.922   0.437   4.758 -1.8877  0.1515 -0.9430
16412SOL    HW253025   5.844   0.508   4.867  0.8336  0.8938  0.6146
16413SOL     OW53026   2.720   6.102   5.398  0.1598 -0.0677  0.3153
16413SOL    HW153027   2.765   6.031   5.353  0.5874 -0.7584  1.7776
16413SOL    HW253028   2.744   6.181   5.348  1.5661 -0.6503  0.0391
16414SOL     OW53029   9.376   8.457   9.736  0.6782  0.2472 -0.4287
16414SOL    HW153030   9.457   8.426   9.694  1.3285  1.6819 -0.3051
16414SOL    HW253031   9.351   8.535   9.685 -1.2812 -0.7909 -1.1704
16415SOL     OW53032   1.677   6.355   5.053  0.1667 -0.1708 -0.0734
16415SOL    HW153033   1.665   6.379   5.145 -0.2195 -0.3709 -0.0674
16415SOL    HW253034   1.696   6.438   5.009 -0.2481  0.0184  0.0927
16416SOL     OW53035   0.815   0.975   2.568  0.5394 -0.3372  0.4219
16416SOL    HW153036   0.845   1.066   2.568  1.7093 -0.6984  0.3052
16416SOL    HW253037   0.722   0.979   2.546  0.4928  0.8516  0.7866
16417SOL     OW53038   4.873   8.189   8.694 -0.8414 -0.3143 -0.3518
16417SOL    HW153039   4.949   8.148   8.654  0.4845  1.8399 -0.2115
16417SOL    HW253040   4.880   8.168   8.787  0.1560  0.6437 -0.1900
16418SOL     OW53041   2.389   5.878   2.156 -0.5750 -0.2684 -0.0312
16418SOL    HW153042   2.388   5.964   2.197 -0.1229  0.2058 -0.9701
16418SOL    HW253043   2.479   5.868   2.124 -0.7209 -0.9341 -0.2563
16419SOL     OW53044   3.121   8.500   8.926 -0.1229  0.3747 -0.0502
16419SOL    HW153045   3.155   8.439   8.861 -1.7414 -0.0079 -0.5828
16419SOL    HW253046   3.093   8.445   8.999 -1.9394  0.3688 -0.6873
16420SOL     OW53047   0.779  10.161   2.368  0.4104  0.1835 -0.1165
16420SOL    HW153048   0.826  10.230   2.322 -0.3200 -0.1911 -1.5003
16420SOL    HW253049   0.818  10.079   2.336  1.3889 -0.0639  1.6407
16421SOL     OW53050   8.797   8.819   3.457 -0.2333  0.4176 -0.9162
16421SOL    HW153051   8.748   8.880   3.511  1.8439  0.4286  1.0965
16421SOL    HW253052   8.881   8.862   3.442  0.2137 -0.7432 -1.9445
16422SOL     OW53053   5.602   1.164   5.117  0.5923 -0.1687  0.3222
16422SOL    HW153054   5.595   1.188   5.209 -0.1392 -3.0796  1.1063
16422SOL    HW253055   5.695   1.149   5.103  1.2542  3.5088 -0.4524
16423SOL     OW53056   4.806   0.122   1.282  0.1048  0.3460  0.3901
16423SOL    HW153057   4.873   0.091   1.221  0.2507  1.9039 -0.2887
16423SOL    HW253058   4.784   0.045   1.335  0.5935 -0.8371 -1.0479
16424SOL     OW53059   6.218   9.228   1.902 -0.1704 -0.4051  0.4976
16424SOL    HW153060   6.286   9.229   1.834 -0.5214 -0.2861  0.1420
16424SOL    HW253061   6.136   9.216   1.853 -0.3669 -0.9689  0.9544
16425SOL     OW53062   5.688   2.609   6.036 -0.4601 -0.0830 -0.6695
16425SOL    HW153063   5.606   2.634   6.079 -0.4704  0.5259 -1.0295
16425SOL    HW253064   5.754   2.616   6.104 -0.7070 -0.6221 -0.3647
16426SOL     OW53065   0.587   8.819   0.484  0.3486  0.4395  0.0335
16426SOL    HW153066   0.588   8.728   0.513  0.8638  1.3519  3.3737
16426SOL    HW253067   0.516   8.824   0.420 -0.8713 -1.9710  1.0790
16427SOL     OW53068   4.038   1.953   3.523 -0.0813  0.0558  0.1686
16427SOL    HW153069   3.993   2.031   3.555  1.4231  0.5774  1.1271
16427SOL    HW253070   4.109   1.987   3.468  1.1004 -0.5367  1.2485
16428SOL     OW53071   5.205   1.403   0.028  0.3586  0.7106  0.2058
16428SOL    HW153072   5.213   1.346  -0.048  0.1260 -0.3419  0.9424
16428SOL    HW253073   5.138   1.362   0.082  1.6753  0.4772  1.7621
16429SOL     OW53074   9.315   4.130   2.145  0.8860  0.6236 -0.0552
16429SOL    HW153075   9.338   4.221   2.126 -0.7469  0.7288 -1.8891
16429SOL    HW253076   9.349   4.081   2.070  1.7748 -0.3275  0.9286
16430SOL     OW53077   7.525   6.118   9.202  0.7154 -0.1610  0.5183
16430SOL    HW153078   7.472   6.191   9.170  0.4270 -0.1462  1.0190
16430SOL    HW253079   7.581   6.094   9.127  0.4447  0.2281  0.1874
16431SOL     OW53080   0.483   7.418   9.926  0.3839  0.0774  0.4620
16431SOL    HW153081   0.510   7.462   9.845  1.7914 -1.7957 -0.1469
16431SOL    HW253082   0.524   7.469   9.995  2.1788 -0.3433 -0.2411
16432SOL     OW53083   3.677   5.295   2.490  0.0884  0.4584 -0.3312
16432SOL    HW153084   3.758   5.346   2.490  0.1117  0.4831  1.4278
16432SOL    HW253085   3.685   5.238   2.414  1.4380  0.9491 -0.5880
16433SOL     OW53086   5.353   6.047   3.479 -0.1265  0.2151 -0.1877
16433SOL    HW153087   5.267   6.085   3.497 -0.1672  0.4287 -0.8261
16433SOL    HW253088   5.352   5.963   3.526 -0.6785  0.2220 -0.1842
16434SOL     OW53089   0.762   0.897   6.023  0.1867  0.1259 -0.0825
16434SOL    HW153090   0.721   0.843   6.091  2.1590  0.2920  1.3154
16434SOL    HW253091   0.697   0.898   5.953 -2.5917  1.0732  2.2653
16435SOL     OW53092   1.117   2.952   2.438 -0.2341 -0.0988 -0.2714
16435SOL    HW153093   1.094   3.011   2.366 -4.1127 -0.8405  0.1448
16435SOL    HW253094   1.089   2.865   2.408  1.5342 -1.0855  0.7552
16436SOL     OW53095   0.740   8.228   7.906 -0.7642  0.2008 -0.4830
16436SOL    HW153096   0.718   8.167   7.836 -0.4715 -1.2670  0.6559
16436SOL    HW253097   0.832   8.212   7.925 -0.4016  1.7078 -0.8124
16437SOL     OW53098   2.908   1.174   0.576  0.0752 -0.1215  0.1014
16437SOL    HW153099   2.915   1.097   0.631  2.1380 -0.3621 -0.4012
16437SOL    HW253100   2.880   1.141   0.490 -0.9639 -0.0333  0.3968
16438SOL     OW53101   7.351   0.142   9.256 -0.2307  0.1177 -0.0580
16438SOL    HW153102   7.342   0.058   9.211 -0.9690 -0.6132  1.3716
16438SOL    HW253103   7.285   0.139   9.325  2.4649  0.0298  2.7379
16439SOL     OW53104   9.503   9.398   5.026  0.0258  0.8873 -0.3806
16439SOL    HW153105   9.488   9.489   5.001  0.3761  0.9165 -0.4896
16439SOL    HW253106   9.566   9.365   4.963 -0.0708  0.5760 -0.3214
16440SOL     OW53107  10.239   9.030   4.462 -0.4818  0.3343  0.0867
16440SOL    HW153108  10.177   9.098   4.436 -1.9084 -1.0782 -0.3927
16440SOL    HW253109  10.199   8.949   4.431  1.3534 -0.6964  0.2871
16441SOL     OW53110   9.682   1.120   2.106  0.0796  0.6334  0.1272
16441SOL    HW153111   9.765   1.166   2.116  0.0894  0.3944  1.3553
16441SOL    HW253112   9.619   1.171   2.157 -0.6408  1.0591 -1.1536
16442SOL     OW53113   5.123   1.173   6.739  0.6113 -0.1036 -0.1772
16442SOL    HW153114   5.141   1.087   6.778  0.6320 -0.6894 -1.4218
16442SOL    HW253115   5.174   1.234   6.792  0.5622 -0.8460  0.7586
16443SOL     OW53116   1.545   3.552   9.896 -0.3742 -0.0979  0.2507
16443SOL    HW153117   1.568   3.496   9.823 -0.8654 -1.4773  1.1241
16443SOL    HW253118   1.593   3.517   9.971 -0.6084  0.7053  0.7973
16444SOL     OW53119   2.213   6.920   3.526 -0.3039  0.1153 -0.8117
16444SOL    HW153120   2.190   7.013   3.517 -0.2082  0.0896 -1.3595
16444SOL    HW253121   2.308   6.918   3.512 -0.5279 -0.2625 -2.4398
16445SOL     OW53122  10.016   0.222   0.011 -0.2571  0.3620 -0.0311
16445SOL    HW153123   9.973   0.223  -0.074 -1.0826  0.7932  0.3790
16445SOL    HW253124  10.068   0.302   0.013 -1.3752  1.1093  0.4158
16446SOL     OW53125   3.789   3.709   1.949 -0.1180  0.3572 -0.2473
16446SOL    HW153126   3.745   3.625   1.954  0.8605 -0.2670 -1.6746
16446SOL    HW253127   3.749   3.761   2.020 -1.4923 -0.9165 -0.0387
16447SOL     OW53128   6.546   3.049   6.635 -0.0503  0.0356 -0.1839
16447SOL    HW153129   6.485   3.117   6.605 -1.4731 -0.7808  0.7632
16447SOL    HW253130   6.536   2.978   6.571  0.1573  0.0388 -0.2196
16448SOL     OW53131   9.017   2.128   2.596 -0.1244  0.1592  0.4993
16448SOL    HW153132   9.077   2.127   2.521  0.5157  2.0088  0.9156
16448SOL    HW253133   8.930   2.120   2.557  0.3027 -1.8893 -0.1738
16449SOL     OW53134   0.744   3.038   8.769 -0.5641  0.1613 -0.0144
16449SOL    HW153135   0.732   3.088   8.688  1.6770 -0.7532 -0.9988
16449SOL    HW253136   0.794   2.961   8.743 -0.4295 -0.5473  2.1349
16450SOL     OW53137   9.063   8.553   4.220  0.3057 -0.3164 -0.0089
16450SOL    HW153138   9.024   8.638   4.238  1.4241  0.3471 -0.6267
16450SOL    HW253139   8.998   8.490   4.251 -0.9917  0.7467 -0.4595
16451SOL     OW53140   1.479   2.359   3.989 -0.3094  0.7850 -0.2952
16451SOL    HW153141   1.489   2.335   4.081 -1.3694 -0.7079 -0.5380
16451SOL    HW253142   1.388   2.337   3.968 -0.5554  2.5660 -1.3090
16452SOL     OW53143   3.353   3.372   1.224 -0.2806 -0.0805 -0.6980
16452SOL    HW153144   3.328   3.432   1.153 -0.0643  1.0861  0.1885
16452SOL    HW253145   3.283   3.307   1.225  0.5055 -1.0785 -3.0157
16453SOL     OW53146   0.760   5.746   8.281 -0.3284 -0.6431 -0.1138
16453SOL    HW153147   0.790   5.672   8.230 -1.3049 -1.2473  0.1515
16453SOL    HW253148   0.816   5.746   8.359  1.2884  0.3975 -1.2130
16454SOL     OW53149   6.623   0.920   4.388  0.0299 -0.3309 -0.6604
16454SOL    HW153150   6.583   0.935   4.474  1.0390  1.0443 -0.4062
16454SOL    HW253151   6.574   0.976   4.328 -0.2591 -0.8114 -0.8837
16455SOL     OW53152   0.919   7.870   3.144 -0.5071 -0.4106  0.4506
16455SOL    HW153153   0.848   7.807   3.131  0.6961 -1.6433 -0.5063
16455SOL    HW253154   0.956   7.883   3.057  0.0333  0.7071  0.8293
16456SOL     OW53155   1.388   1.582   7.201 -0.4762  0.3766  0.0231
16456SOL    HW153156   1.468   1.602   7.250 -0.4670 -0.6330  0.4512
16456SOL    HW253157   1.370   1.661   7.151 -0.1011  1.2037  1.1493
16457SOL     OW53158   1.776   4.841   2.377  0.3697  0.3800 -0.0546
16457SOL    HW153159   1.718   4.777   2.337  0.8754 -1.3143  1.7331
16457SOL    HW253160   1.854   4.840   2.321 -0.5060  1.2001 -1.3402
16458SOL     OW53161   6.758   0.198   9.711  0.0907  0.6801 -0.7438
16458SOL    HW153162   6.744   0.230   9.800 -1.9323 -1.2606 -0.2668
16458SOL    HW253163   6.679   0.223   9.664  0.1599 -0.2259 -1.3698
16459SOL     OW53164   9.003   4.179   4.967  0.2247 -0.2638 -0.1499
16459SOL    HW153165   8.985   4.108   5.028 -0.0314 -0.7246 -0.7492
16459SOL    HW253166   8.975   4.258   5.013  0.3046 -0.5704  0.4366
16460SOL     OW53167  10.353   3.934   5.723  0.4428 -0.0017 -0.1551
16460SOL    HW153168  10.357   4.026   5.750 -2.7522 -0.2084  1.5836
16460SOL    HW253169  10.345   3.938   5.628  1.6802  1.4250 -0.2341
16461SOL     OW53170   5.735   8.936  10.216 -0.3408  0.1855 -0.0150
16461SOL    HW153171   5.815   8.959  10.263 -1.0503  2.2532  0.2803
16461SOL    HW253172   5.746   8.843  10.194  1.8515  0.2642  0.5312
16462SOL     OW53173   7.079   9.560  10.289  0.2372 -0.2378  0.2168
16462SOL    HW153174   7.025   9.638  10.283 -2.4456 -2.0448 -1.2026
16462SOL    HW253175   7.123   9.554  10.204  2.2841  0.8399  1.1171
16463SOL     OW53176   3.037   2.125   0.425  0.1411  0.2994  0.1800
16463SOL    HW153177   3.012   2.147   0.335  1.8678  2.9224  0.2232
16463SOL    HW253178   3.104   2.190   0.447 -0.1715 -0.3161  3.3366
16464SOL     OW53179   6.920   8.715   4.467  0.5149  0.0506 -0.5341
16464SOL    HW153180   6.848   8.675   4.515  0.4336  2.4542  1.5379
16464SOL    HW253181   6.998   8.692   4.518  0.5705  1.6170  0.1401
16465SOL     OW53182   4.747   3.427   6.805  0.3448  0.3774 -0.1224
16465SOL    HW153183   4.674   3.384   6.761  1.4566 -2.8522  0.8978
16465SOL    HW253184   4.799   3.465   6.734  0.6119 -2.2415 -1.4657
16466SOL     OW53185   8.468   7.406   0.607 -0.3186  0.1496 -0.1893
16466SOL    HW153186   8.420   7.361   0.538  0.5872 -0.4642 -0.4309
16466SOL    HW253187   8.486   7.338   0.672 -0.3067  0.5120  0.1934
16467SOL     OW53188   4.013   5.082   4.473 -0.0353 -0.4519 -0.1725
16467SOL    HW153189   4.037   5.140   4.400 -0.2996  0.3311  0.3570
16467SOL    HW253190   3.929   5.045   4.446 -0.4706  0.3613  0.0203
16468SOL     OW53191   7.023   9.201   4.143 -0.1017  0.1673  0.4256
16468SOL    HW153192   6.932   9.191   4.117 -0.2007  1.4467  0.1828
16468SOL    HW253193   7.067   9.232   4.063  1.3306 -3.8394 -0.5496
16469SOL     OW53194   8.568   8.095   4.913 -0.3666  0.0555  0.1227
16469SOL    HW153195   8.528   8.181   4.923  0.3268  0.5518 -1.1207
16469SOL    HW253196   8.603   8.095   4.823 -0.4934 -1.5738  0.0361
16470SOL     OW53197   5.914   8.470   2.779  0.4716 -0.1628 -0.8208
16470SOL    HW153198   5.913   8.411   2.855  1.7983 -0.8694 -1.3218
16470SOL    HW253199   5.926   8.557   2.816 -1.4453 -0.1756 -0.0695
16471SOL     OW53200   5.036   1.723   6.216  0.0461 -0.0356 -0.0953
16471SOL    HW153201   5.097   1.784   6.175 -0.7349  0.1916 -0.9208
16471SOL    HW253202   4.963   1.717   6.156 -0.2043 -1.2590  0.3045
16472SOL     OW53203  10.117   7.845   0.864 -0.6306  0.1057  0.5083
16472SOL    HW153204  10.184   7.824   0.798 -0.6213 -0.9414  0.8369
16472SOL    HW253205  10.069   7.919   0.826 -0.3139 -0.1668 -0.4559
16473SOL     OW53206   5.445   0.026   9.509 -0.4364  0.5328  0.0298
16473SOL    HW153207   5.383   0.090   9.473 -0.2500 -0.4903 -2.2503
16473SOL    HW253208   5.516   0.079   9.544 -1.1251  1.6186 -0.1591
16474SOL     OW53209   2.938   4.985   2.296 -0.4298 -0.2024 -0.2480
16474SOL    HW153210   2.912   4.991   2.204  0.9506  1.6424 -0.5788
16474SOL    HW253211   2.889   5.055   2.340 -2.3616 -2.1232  0.8088
16475SOL     OW53212   8.830   2.262   9.384 -0.4456  0.3038 -0.1495
16475SOL    HW153213   8.789   2.347   9.368  1.2182  1.4370  1.2877
16475SOL    HW253214   8.904   2.281   9.441 -1.0062 -2.3460  1.6571
16476SOL     OW53215   4.163   3.091   8.548 -0.3958  0.7940 -0.1587
16476SOL    HW153216   4.135   2.999   8.542  1.0090  0.3582 -0.4474
16476SOL    HW253217   4.081   3.140   8.558 -1.1261 -0.5717  1.0499
16477SOL     OW53218   5.170   3.748   6.073  0.1560 -0.7530 -0.4502
16477SOL    HW153219   5.176   3.840   6.049  0.0927  0.2344  2.8052
16477SOL    HW253220   5.260   3.716   6.070  0.3134 -0.2905 -0.6315
16478SOL     OW53221  10.274   8.733   2.101  0.7315 -0.2728 -0.4756
16478SOL    HW153222  10.190   8.709   2.061  0.4819  0.0119 -0.1315
16478SOL    HW253223  10.250   8.775   2.183  1.2495 -1.7622  0.4850
16479SOL     OW53224   2.890   6.087   8.385 -0.2705 -0.0775  0.2150
16479SOL    HW153225   2.898   6.124   8.473 -0.5613 -0.8305  0.5655
16479SOL    HW253226   2.979   6.059   8.363  0.1174  1.5070 -0.3744
16480SOL     OW53227   2.872   8.815  10.063  0.0213  0.5848 -0.3248
16480SOL    HW153228   2.853   8.909  10.068 -0.6858  0.5247 -1.6047
16480SOL    HW253229   2.875   8.787  10.154 -1.4474  1.5205  0.0430
16481SOL     OW53230   9.839   5.515   4.794  0.3216 -0.3798 -0.4094
16481SOL    HW153231   9.786   5.455   4.742  0.9915 -0.7678 -0.6496
16481SOL    HW253232   9.916   5.464   4.819 -0.0475 -0.2590  1.0958
16482SOL     OW53233   4.696   1.365   3.837 -0.2655  0.3833  0.2921
16482SOL    HW153234   4.678   1.371   3.743  0.0754 -0.2709  0.1791
16482SOL    HW253235   4.707   1.456   3.865 -0.7976  0.6140 -0.2106
16483SOL     OW53236   2.192   8.846   8.185  0.2469 -0.1151 -0.0391
16483SOL    HW153237   2.106   8.824   8.220  0.8066 -1.9917  0.2532
16483SOL    HW253238   2.235   8.893   8.256 -0.6780  1.2789 -0.3633
16484SOL     OW53239   8.615   7.683   7.765 -0.2285  0.0345  0.6807
16484SOL    HW153240   8.570   7.724   7.691  2.4381  0.0087 -1.1071
16484SOL    HW253241   8.625   7.752   7.830 -1.8900  0.2809  0.7023
16485SOL     OW53242   1.145   0.325   4.971 -0.0812 -0.2687 -0.4961
16485SOL    HW153243   1.228   0.372   4.983  0.9303 -2.0784 -0.0093
16485SOL    HW253244   1.082   0.393   4.946  1.8180  0.9860 -2.1784
16486SOL     OW53245   1.936   0.982   4.580 -0.1110 -0.4786 -0.1463
16486SOL    HW153246   1.980   1.061   4.611  0.8847 -1.5944  1.4424
16486SOL    HW253247   1.847   1.010   4.558  0.5953  1.3026 -0.8471
16487SOL     OW53248   5.013   2.537   0.565  0.2646 -0.4872  0.2487
16487SOL    HW153249   5.018   2.630   0.588  0.2932 -1.1100  3.3004
16487SOL    HW253250   5.098   2.516   0.528  0.0181  0.8187 -1.1307
16488SOL     OW53251   8.808   7.443   2.229 -0.2482  0.3024  0.0775
16488SOL    HW153252   8.812   7.450   2.324 -2.1456 -0.2237  0.2285
16488SOL    HW253253   8.820   7.350   2.211  0.5361  0.4553 -0.2468
16489SOL     OW53254   3.873   2.941   3.902  0.2320 -0.5585 -0.3423
16489SOL    HW153255   3.840   2.997   3.973  1.4394 -1.5327  1.0586
16489SOL    HW253256   3.807   2.872   3.894  0.5226 -0.9478  0.4896
16490SOL     OW53257   3.911   8.779   7.936  0.0451 -0.2311 -0.0869
16490SOL    HW153258   3.911   8.833   7.857 -0.9600  0.5377  0.4135
16490SOL    HW253259   3.874   8.836   8.004 -0.6498 -1.4163  0.5596
16491SOL     OW53260   6.948   5.060   3.893 -0.2127  0.0331 -0.3956
16491SOL    HW153261   6.894   5.093   3.965  1.3452  2.4618 -0.2121
16491SOL    HW253262   6.943   5.130   3.827 -0.0883 -1.3048 -1.8667
16492SOL     OW53263   6.719   0.507   8.676  0.1710 -0.6658  0.1567
16492SOL    HW153264   6.792   0.545   8.627 -0.7328 -1.2965 -1.7620
16492SOL    HW253265   6.647   0.569   8.665 -0.5942 -1.7003 -0.9500
16493SOL     OW53266   6.684   5.333   2.916 -0.4731  0.5703 -0.1054
16493SOL    HW153267   6.683   5.361   2.824 -1.7341 -2.0375 -0.9676
16493SOL    HW253268   6.770   5.361   2.947 -0.1503  1.8607 -1.9436
16494SOL     OW53269   3.241   9.723  10.094 -0.9504  0.1146 -0.3311
16494SOL    HW153270   3.149   9.750  10.104 -1.0116 -0.7727  2.4746
16494SOL    HW253271   3.238   9.628  10.102  0.3388  0.1941  1.5425
16495SOL     OW53272   5.866   4.187   8.912 -0.5981 -0.2426 -0.0791
16495SOL    HW153273   5.771   4.195   8.923 -0.8404  0.4328 -2.1819
16495SOL    HW253274   5.899   4.170   9.000 -2.3293  2.6143  1.2618
16496SOL     OW53275   0.790   8.293   5.309 -0.4005  0.2034  0.7078
16496SOL    HW153276   0.840   8.344   5.373  0.0650 -0.4569  0.8832
16496SOL    HW253277   0.722   8.249   5.361 -1.4909  1.4702  0.4019
16497SOL     OW53278   9.578   3.610   8.539  0.0871 -0.1290 -0.3858
16497SOL    HW153279   9.585   3.550   8.613  1.5745 -0.5477 -0.8263
16497SOL    HW253280   9.597   3.696   8.577 -1.2837 -0.0162  0.0993
16498SOL     OW53281   9.625   8.272   8.683 -0.0315 -0.0637 -0.2155
16498SOL    HW153282   9.641   8.197   8.625  2.1913 -0.3763  0.7383
16498SOL    HW253283   9.537   8.302   8.658 -0.7305 -2.5505 -1.0814
16499SOL     OW53284   8.386   6.134   9.774 -0.2794 -0.0203  0.3095
16499SOL    HW153285   8.447   6.187   9.826  0.6480 -0.2817 -0.5020
16499SOL    HW253286   8.401   6.161   9.684 -2.8262  1.4098  0.2151
16500SOL     OW53287   2.368   7.360   2.308  0.2856 -0.7882 -0.2871
16500SOL    HW153288   2.418   7.279   2.320 -0.1784 -1.1250 -0.5863
16500SOL    HW253289   2.330   7.377   2.394 -0.0469 -1.1807 -0.3539
16501SOL     OW53290   1.791   1.996   9.066  0.1379 -0.6136 -0.1334
16501SOL    HW153291   1.761   2.086   9.056  0.7188 -0.2205  1.3133
16501SOL    HW253292   1.874   1.993   9.017  0.6652 -0.0280  0.6854
16502SOL     OW53293   9.131   0.021   7.235 -0.1450  0.4486 -0.3293
16502SOL    HW153294   9.066   0.006   7.303  0.3606 -3.2205 -0.4547
16502SOL    HW253295   9.080   0.033   7.155 -0.6786  2.2600  0.2401
16503SOL     OW53296   2.278   2.555   2.844  0.0416  0.4973  0.6396
16503SOL    HW153297   2.347   2.496   2.813  1.1906  2.2344 -0.2701
16503SOL    HW253298   2.275   2.540   2.938  0.6517 -0.6342  0.4995
16504SOL     OW53299   3.801   9.165   2.225  0.0000  0.0458  0.1854
16504SOL    HW153300   3.878   9.209   2.261 -0.0495  0.3097 -0.0255
16504SOL    HW253301   3.785   9.210   2.142  0.1533 -0.5873 -0.1989
16505SOL     OW53302   4.580   1.486   9.828 -0.3938 -0.2161 -1.0579
16505SOL    HW153303   4.606   1.524   9.912  1.0120 -3.1135 -0.0408
16505SOL    HW253304   4.493   1.449   9.845  0.0038 -1.0371 -0.7621
16506SOL     OW53305   2.237   9.833   2.710  0.1730  0.2245  0.2651
16506SOL    HW153306   2.282   9.887   2.645 -1.1400 -0.3812 -1.1856
16506SOL    HW253307   2.144   9.849   2.695 -0.1840 -0.7932  1.2462
16507SOL     OW53308   6.898   4.667   8.357 -0.1866  0.0357 -0.0419
16507SOL    HW153309   6.912   4.679   8.451 -0.3754  0.4699 -0.0672
16507SOL    HW253310   6.804   4.655   8.349 -0.5184  2.4155 -0.4140
16508SOL     OW53311   5.308   9.302   1.246 -0.3340  0.1853  0.5002
16508SOL    HW153312   5.362   9.341   1.178  0.1598  0.0849  0.8336
16508SOL    HW253313   5.364   9.299   1.324 -0.5455 -0.6646  0.6336
16509SOL     OW53314   2.916   9.047   0.513 -0.3663 -0.0314  0.0373
16509SOL    HW153315   2.896   9.140   0.516  2.2847  0.7149 -1.8411
16509SOL    HW253316   2.843   9.008   0.463 -1.1818  1.1202  0.3049
16510SOL     OW53317   3.508   1.275   3.051  0.3909 -0.8511 -0.0254
16510SOL    HW153318   3.416   1.249   3.056  0.5565 -1.4232  0.1016
16510SOL    HW253319   3.545   1.216   2.984  0.5902 -0.4014 -0.3152
16511SOL     OW53320   6.876   2.594   2.272  0.2244 -0.0164 -0.3565
16511SOL    HW153321   6.891   2.503   2.297 -0.6298 -0.0652  0.0271
16511SOL    HW253322   6.880   2.594   2.176 -1.3785 -0.7800 -0.4503
16512SOL     OW53323   4.520   2.236   0.042  0.4807  0.2156 -0.1262
16512SOL    HW153324   4.532   2.142   0.057  0.3273  0.3828  1.2194
16512SOL    HW253325   4.601   2.276   0.072 -0.0371  0.6274  0.7764
16513SOL     OW53326   0.759   0.586   3.425  0.3919  0.2676 -0.3120
16513SOL    HW153327   0.679   0.596   3.373 -0.2961  0.2015  0.7121
16513SOL    HW253328   0.729   0.549   3.508  1.4530  0.5145  0.1933
16514SOL     OW53329   7.014   4.657   9.624 -0.1550  0.0818 -0.0797
16514SOL    HW153330   6.956   4.694   9.691 -2.0079 -0.6699 -1.2109
16514SOL    HW253331   6.972   4.574   9.599  1.5419 -0.6100 -0.7860
16515SOL     OW53332   8.642   7.151   1.451 -0.0061 -0.5114 -0.1771
16515SOL    HW153333   8.576   7.082   1.454  0.8809 -1.3715  0.1305
16515SOL    HW253334   8.683   7.142   1.366  0.0125 -0.2537 -0.1969
16516SOL     OW53335   7.167   6.503   8.428 -0.2250 -0.1911  0.5197
16516SOL    HW153336   7.126   6.562   8.492 -1.5629 -0.0486 -0.4315
16516SOL    HW253337   7.167   6.553   8.346  1.6303 -0.2998  0.4116
16517SOL     OW53338   7.262   8.928   7.643 -0.3804 -0.5816 -1.5344
16517SOL    HW153339   7.197   8.900   7.708 -0.7825  0.9171 -1.2552
16517SOL    HW253340   7.259   8.861   7.575 -0.3504 -1.9047 -0.2906
16518SOL     OW53341   7.778   3.970   8.787 -0.1133 -1.0315  0.1001
16518SOL    HW153342   7.707   3.993   8.726 -0.0893  0.2605  0.5425
16518SOL    HW253343   7.738   3.975   8.874  0.1789 -1.6518  0.2779
16519SOL     OW53344   6.589   1.649   3.776  0.2540 -0.6379 -0.1925
16519SOL    HW153345   6.593   1.729   3.724  0.5156 -0.9205 -0.6228
16519SOL    HW253346   6.677   1.641   3.814  0.3283 -0.8843 -0.4110
16520SOL     OW53347   2.560   6.541   0.259 -0.1678  0.0723 -0.4787
16520SOL    HW153348   2.653   6.548   0.276 -0.0966 -0.1447 -0.7606
16520SOL    HW253349   2.538   6.618   0.206 -0.2832  0.4687  0.1404
16521SOL     OW53350   4.020   7.400   3.474 -0.4198  0.1494  0.6603
16521SOL    HW153351   3.989   7.354   3.552  0.9614 -1.1202  0.5091
16521SOL    HW253352   4.070   7.475   3.507 -1.6560  0.8852  0.9265
16522SOL     OW53353   0.345   0.359   0.484 -0.1322 -0.2051  0.1298
16522SOL    HW153354   0.250   0.354   0.476 -0.2842 -0.0982  1.4953
16522SOL    HW253355   0.372   0.269   0.502  0.0581 -0.2757 -0.4993
16523SOL     OW53356   9.971   2.865   2.574 -0.3962 -0.1165  0.3165
16523SOL    HW153357   9.971   2.936   2.510 -0.2355  0.1748  0.6331
16523SOL    HW253358   9.879   2.849   2.592 -0.4225  0.3159  0.5725
16524SOL     OW53359   5.198  10.346   3.540 -0.0357 -0.8906  0.0962
16524SOL    HW153360   5.269  10.405   3.564 -1.2475  0.9440 -0.5690
16524SOL    HW253361   5.126  10.405   3.515 -1.0945 -2.6654 -1.2497
16525SOL     OW53362   7.420   8.496   5.492  0.2043 -0.2611 -0.1113
16525SOL    HW153363   7.470   8.416   5.476 -2.3562 -1.5619 -2.5195
16525SOL    HW253364   7.390   8.489   5.582  1.7911 -0.9169  0.3938
16526SOL     OW53365   3.293   4.215   4.203 -0.2641 -0.6219  0.1675
16526SOL    HW153366   3.387   4.195   4.204  0.6006  2.7435  1.6281
16526SOL    HW253367   3.259   4.174   4.282 -0.0571 -1.7731 -0.3142
16527SOL     OW53368  10.074   6.437   3.720  0.1604 -0.2231  0.2146
16527SOL    HW153369  10.152   6.389   3.694  0.3982 -0.6489  1.6346
16527SOL    HW253370  10.015   6.370   3.754 -0.3978  0.2278  0.1518
16528SOL     OW53371   5.544   8.923   2.583 -0.1071  0.0056  0.5246
16528SOL    HW153372   5.531   8.912   2.488 -0.4541 -0.4968  0.6252
16528SOL    HW253373   5.575   9.013   2.593  2.7535 -0.7554 -0.3747
16529SOL     OW53374   6.345   7.988   2.317  0.3043  0.2534  0.0081
16529SOL    HW153375   6.383   8.073   2.297  0.2231  0.6291  1.3733
16529SOL    HW253376   6.288   7.970   2.243 -0.3096  1.7711  0.0715
16530SOL     OW53377   1.604   6.559   9.920  0.9433  1.0118  0.6160
16530SOL    HW153378   1.684   6.562   9.972  2.0878  0.4241 -1.0070
16530SOL    HW253379   1.580   6.467   9.918  2.9006  0.3963 -2.5788
16531SOL     OW53380   9.565   1.683   5.482 -0.4721 -0.2321  0.0871
16531SOL    HW153381   9.486   1.698   5.430 -1.0990 -1.2765  0.7017
16531SOL    HW253382   9.538   1.622   5.550  0.5495  0.4116  1.1129
16532SOL     OW53383   6.778   8.531   4.669 -0.2152 -0.2221  0.7111
16532SOL    HW153384   6.724   8.504   4.594  1.3703 -2.2854  0.2127
16532SOL    HW253385   6.845   8.463   4.675  2.4834  2.2957  1.1439
16533SOL     OW53386   4.835   5.928   8.740  0.0283  0.3194  0.1672
16533SOL    HW153387   4.840   5.964   8.828  0.6890 -0.9163  0.6473
16533SOL    HW253388   4.926   5.912   8.714 -0.1721  0.3705 -0.6139
16534SOL     OW53389   2.049   1.334   8.084 -0.2197 -0.0556 -0.3021
16534SOL    HW153390   1.972   1.295   8.123 -0.7074 -0.0762 -1.2539
16534SOL    HW253391   2.039   1.320   7.990  1.2425 -0.6084 -0.4073
16535SOL     OW53392   8.272   0.672   8.331 -0.4169 -0.0716 -0.2999
16535SOL    HW153393   8.246   0.595   8.383  1.2773 -0.3099  0.2635
16535SOL    HW253394   8.201   0.735   8.345 -1.2522 -1.0833  0.2094
16536SOL     OW53395   1.488   9.363   5.515  0.0486 -0.0053 -1.0829
16536SOL    HW153396   1.445   9.392   5.596 -2.6429 -0.7482 -2.1476
16536SOL    HW253397   1.485   9.439   5.457 -0.2329 -0.1969 -1.3198
16537SOL     OW53398   3.374   9.282  10.138 -0.2731  0.4174  0.2499
16537SOL    HW153399   3.324   9.206  10.167  0.0294 -0.1541 -0.6876
16537SOL    HW253400   3.317   9.357  10.157 -1.2486 -0.1720 -0.2624
16538SOL     OW53401   8.747   0.028   1.374  0.1890  0.6272  0.3512
16538SOL    HW153402   8.783   0.017   1.462  0.6072 -0.1000  0.1022
16538SOL    HW253403   8.785   0.110   1.343  2.0891 -0.3611 -0.0912
16539SOL     OW53404   0.426   2.738   6.131  0.3474  0.2993  0.5569
16539SOL    HW153405   0.374   2.780   6.062 -1.6278  0.9997  2.3636
16539SOL    HW253406   0.487   2.806   6.160  1.6450 -0.2018 -0.8756
16540SOL     OW53407   2.473   7.521   0.539 -0.0922  0.2399 -0.2663
16540SOL    HW153408   2.471   7.464   0.462  2.2351  1.4757 -1.3423
16540SOL    HW253409   2.509   7.465   0.608  0.5433 -0.1115 -0.8611
16541SOL     OW53410   9.782   5.663   8.555  0.3583 -0.1370  0.5872
16541SOL    HW153411   9.740   5.742   8.521  0.1346 -0.1493  0.8335
16541SOL    HW253412   9.813   5.616   8.477 -2.5027 -1.5157  0.1767
16542SOL     OW53413   1.800   9.714   1.246 -0.6658  0.0499  0.4874
16542SOL    HW153414   1.722   9.753   1.206 -2.1120 -0.7939  2.3169
16542SOL    HW253415   1.864   9.785   1.249 -0.6945  0.3264 -2.5756
16543SOL     OW53416   7.254   3.184   3.295 -0.0663 -0.5429  0.1619
16543SOL    HW153417   7.183   3.221   3.243  0.0164 -0.8771 -0.1945
16543SOL    HW253418   7.214   3.115   3.347 -0.2681  0.1848  1.0075
16544SOL     OW53419   9.044   2.085   7.397  0.0401 -0.6779 -0.4249
16544SOL    HW153420   9.119   2.031   7.371 -0.0696 -0.9092 -0.2666
16544SOL    HW253421   9.026   2.140   7.320  1.3192  0.4694  0.0654
16545SOL     OW53422   9.412   6.115   4.349  0.3201  0.1030  0.0911
16545SOL    HW153423   9.415   6.186   4.284 -0.5544  1.2133  1.2171
16545SOL    HW253424   9.499   6.075   4.344  0.0631 -0.3348 -2.2492
16546SOL     OW53425   4.186   4.723   5.671  0.0473 -0.0204  0.4747
16546SOL    HW153426   4.148   4.647   5.625  0.9213  0.0914 -0.4653
16546SOL    HW253427   4.163   4.798   5.616  0.1092  0.2678  0.8393
16547SOL     OW53428   6.487   3.195   2.250  0.0861  0.1467  0.3064
16547SOL    HW153429   6.493   3.123   2.312  0.8402  1.5156  1.9283
16547SOL    HW253430   6.393   3.214   2.244 -0.1302 -1.0485 -0.2672
16548SOL     OW53431   8.513   4.006   2.923  0.1246  0.4012 -0.6327
16548SOL    HW153432   8.493   3.913   2.929  0.6868  0.3474  1.5381
16548SOL    HW253433   8.601   4.014   2.960  0.0266  1.7900 -0.6383
16549SOL     OW53434   1.991   4.289  10.135 -0.4993 -0.0941 -0.9305
16549SOL    HW153435   2.080   4.255  10.143 -1.0069 -1.1256  0.9956
16549SOL    HW253436   2.002   4.377  10.100  1.3625  0.1547  0.1672
16550SOL     OW53437   2.817   6.683   9.469 -0.1045  0.3337 -0.3155
16550SOL    HW153438   2.793   6.612   9.528 -0.5453 -0.3603 -1.3027
16550SOL    HW253439   2.896   6.652   9.425 -0.7489  0.0766 -1.3414
16551SOL     OW53440   0.137  10.327   0.753  0.0836  0.2085 -0.6047
16551SOL    HW153441   0.101  10.344   0.666 -2.6117  1.5169  0.6556
16551SOL    HW253442   0.076  10.266   0.793  0.5164  0.6921  0.8406
16552SOL     OW53443   6.427   2.401   1.574  0.2784 -0.1259 -0.2100
16552SOL    HW153444   6.479   2.432   1.648  1.4831  1.3971 -1.6213
16552SOL    HW253445   6.342   2.444   1.585 -0.1986 -1.3334  1.2081
16553SOL     OW53446   1.970   8.443   6.021 -0.0119 -0.0551 -0.0450
16553SOL    HW153447   1.957   8.454   5.927  0.5534 -0.3359 -0.1613
16553SOL    HW253448   1.889   8.475   6.061 -1.4397 -2.4510 -0.7807
16554SOL     OW53449   1.511   1.445   0.936  0.1508  0.1407 -0.3947
16554SOL    HW153450   1.486   1.356   0.912 -2.0573  1.4275 -3.6708
16554SOL    HW253451   1.581   1.434   1.001 -0.5925 -3.8949 -0.0019
16555SOL     OW53452   4.162   6.882   3.604 -0.8885 -0.2257  0.0955
16555SOL    HW153453   4.252   6.874   3.636 -1.3829 -1.4850  1.2723
16555SOL    HW253454   4.161   6.832   3.522 -0.4388  0.1151 -0.1240
16556SOL     OW53455   6.620   0.133   4.936 -0.1780  0.0434  0.4170
16556SOL    HW153456   6.534   0.120   4.897 -0.4992  0.3514  1.0119
16556SOL    HW253457   6.681   0.119   4.864 -0.7323  0.0214 -0.0573
16557SOL     OW53458   9.006   7.984   2.379  0.3423 -0.0404 -0.0208
16557SOL    HW153459   8.967   7.899   2.357 -2.3474  1.2810 -0.7874
16557SOL    HW253460   9.061   8.005   2.304 -1.3124  0.1640 -1.2295
16558SOL     OW53461   8.885   5.691   5.779  0.2065 -0.8122  0.1557
16558SOL    HW153462   8.971   5.725   5.755  1.1672  0.2502  4.2889
16558SOL    HW253463   8.900   5.599   5.802  0.5477 -0.3289  1.9711
16559SOL     OW53464   2.401   6.645   1.156  0.1964  0.4863 -0.0443
16559SOL    HW153465   2.351   6.659   1.076  0.7048  1.1310 -0.2578
16559SOL    HW253466   2.446   6.728   1.172  0.8829  0.0525  0.3613
16560SOL     OW53467   2.970   2.026   1.224 -0.3755 -0.0947  0.0120
16560SOL    HW153468   2.997   2.115   1.201 -1.0095  0.1613  0.2237
16560SOL    HW253469   2.876   2.025   1.206 -0.5736 -0.3895  1.0090
16561SOL     OW53470   6.497   0.155   4.301  0.1098  0.2551 -0.5245
16561SOL    HW153471   6.547   0.177   4.380 -0.1572  1.2243 -0.6095
16561SOL    HW253472   6.473   0.063   4.312 -0.2351  0.4809  0.7021
16562SOL     OW53473   9.437   2.984   1.598 -0.3035  0.2503  0.4003
16562SOL    HW153474   9.455   3.033   1.678 -0.5138  2.6834 -0.9671
16562SOL    HW253475   9.506   3.011   1.537 -0.9872 -0.4217 -0.7022
16563SOL     OW53476   0.257   3.554   9.964  0.3526  0.1681 -0.1649
16563SOL    HW153477   0.352   3.549   9.970  0.4819  1.7793 -0.4715
16563SOL    HW253478   0.241   3.580   9.873 -0.3985 -0.3109 -0.1772
16564SOL     OW53479   3.740   7.615   2.175 -0.0623  0.1186  0.4823
16564SOL    HW153480   3.674   7.570   2.227 -1.3180 -1.2566 -2.1685
16564SOL    HW253481   3.805   7.548   2.155 -0.1051  0.3781 -0.5403
16565SOL     OW53482   0.004   2.590   9.509  0.2126  0.8843  0.0489
16565SOL    HW153483  -0.063   2.541   9.558  0.3381  2.0738  1.4807
16565SOL    HW253484   0.058   2.522   9.468  0.8435 -0.2706  2.5951
16566SOL     OW53485   5.495   0.615   6.023 -0.3037  0.1641 -0.2882
16566SOL    HW153486   5.453   0.698   6.000  0.5818  0.3988 -1.0897
16566SOL    HW253487   5.451   0.549   5.969 -1.4842 -0.0225  0.8456
16567SOL     OW53488   5.623   9.638   3.390  0.0616  0.6903 -0.0248
16567SOL    HW153489   5.549   9.615   3.334 -0.3342  1.8980 -0.0342
16567SOL    HW253490   5.583   9.660   3.475  0.5313  0.1514  0.3428
16568SOL     OW53491   8.895   6.225   9.500  0.7620  0.7706  0.4631
16568SOL    HW153492   8.854   6.312   9.501  1.2045  0.9800  0.6802
16568SOL    HW253493   8.821   6.164   9.489  0.4547  1.1733  0.2509
16569SOL     OW53494   2.744   1.055   0.374  0.0477  0.1398 -0.0389
16569SOL    HW153495   2.774   0.999   0.302  1.7548 -0.0492  0.7658
16569SOL    HW253496   2.707   0.995   0.438  0.7304  0.0296  0.2688
16570SOL     OW53497   4.330   4.928   5.306 -0.0063  0.5876  0.2244
16570SOL    HW153498   4.417   4.912   5.342 -0.4279 -0.0512  1.0166
16570SOL    HW253499   4.328   4.879   5.224  1.4412  3.1668 -1.4571
16571SOL     OW53500   2.108   0.858   0.790  0.0328  0.5189  0.3063
16571SOL    HW153501   2.138   0.880   0.701 -0.3098 -1.1763 -0.2569
16571SOL    HW253502   2.148   0.773   0.808 -3.1078 -1.1035  0.1479
16572SOL     OW53503  10.151   2.971   9.585 -0.6270  0.1272 -0.4995
16572SOL    HW153504  10.144   3.019   9.667  0.2789  0.4689 -0.6096
16572SOL    HW253505  10.185   3.036   9.523  1.3879 -0.8338 -0.4621
16573SOL     OW53506   4.833   7.526   8.633 -0.0136  0.1654  0.5617
16573SOL    HW153507   4.759   7.466   8.621  0.2349  0.0120 -0.3196
16573SOL    HW253508   4.852   7.522   8.727  0.1445 -1.3337  0.4944
16574SOL     OW53509   4.455   3.487   8.073 -0.1250  0.0109 -0.5954
16574SOL    HW153510   4.363   3.476   8.046 -0.3679  0.2476  0.1189
16574SOL    HW253511   4.477   3.577   8.050 -1.0440  0.9827  1.9762
16575SOL     OW53512   4.118   0.330   3.600  0.4981 -0.3238 -0.2272
16575SOL    HW153513   4.137   0.317   3.693 -0.3261 -1.9356 -0.2460
16575SOL    HW253514   4.058   0.259   3.578  1.2868 -0.4418 -2.1939
16576SOL     OW53515   0.375   2.659   1.019 -0.0583 -0.3092 -0.4301
16576SOL    HW153516   0.421   2.742   1.022 -2.2812  0.9833 -0.1656
16576SOL    HW253517   0.339   2.654   0.930 -0.0164 -0.9658 -0.4201
16577SOL     OW53518   2.844   1.282   0.884  0.4217  0.3674 -0.6161
16577SOL    HW153519   2.782   1.216   0.852  1.2823 -0.5629 -0.4308
16577SOL    HW253520   2.822   1.292   0.976  1.1981 -0.7461 -0.2923
16578SOL     OW53521   3.361   5.998   9.335  0.6081 -0.1579  0.4097
16578SOL    HW153522   3.441   6.047   9.319  0.3844  0.2659  0.5713
16578SOL    HW253523   3.387   5.928   9.395  1.1178 -0.7982 -0.5392
16579SOL     OW53524  10.278   3.525   6.465 -0.4932  0.1696 -0.4459
16579SOL    HW153525  10.295   3.440   6.506 -3.0465 -0.1044  0.2515
16579SOL    HW253526  10.304   3.514   6.374  0.2615 -0.9862 -0.1082
16580SOL     OW53527   3.613   7.664   0.200  0.5721 -0.1664 -0.1476
16580SOL    HW153528   3.656   7.750   0.201  0.7553 -0.2534  0.7583
16580SOL    HW253529   3.522   7.683   0.177  1.3773 -0.1622 -3.8464
16581SOL     OW53530   0.471   2.818   8.870 -0.5503 -0.0647  0.7320
16581SOL    HW153531   0.536   2.812   8.800  0.5901  2.9109  1.3756
16581SOL    HW253532   0.523   2.813   8.951 -0.8608  3.3077  1.2637
16582SOL     OW53533   1.900   7.218   6.627 -0.0732 -0.1334 -0.5321
16582SOL    HW153534   1.948   7.293   6.591 -0.8451 -0.2644 -1.8858
16582SOL    HW253535   1.966   7.150   6.639  0.8317  1.0437  1.6638
16583SOL     OW53536   5.285   4.368   9.174  0.2416 -0.3290 -0.0587
16583SOL    HW153537   5.347   4.333   9.238  0.0333 -0.0750  0.2829
16583SOL    HW253538   5.314   4.457   9.157 -1.1366  0.4927  1.5844
16584SOL     OW53539   9.219   0.316  10.350 -0.3658  0.3891  0.2792
16584SOL    HW153540   9.148   0.292  10.410 -0.7692  0.0969 -0.2997
16584SOL    HW253541   9.245   0.233  10.310 -1.2602  0.7821 -1.1910
16585SOL     OW53542   7.297   3.649   2.394  0.0659 -0.1718  0.1344
16585SOL    HW153543   7.279   3.654   2.488 -0.7594 -0.6820  0.0194
16585SOL    HW253544   7.392   3.656   2.387  0.0541  1.2243  0.9031
16586SOL     OW53545   1.368   1.370   6.604 -0.1406 -0.1006 -0.2548
16586SOL    HW153546   1.404   1.449   6.645  1.2947 -1.4642  1.2413
16586SOL    HW253547   1.274   1.380   6.611 -0.0019 -0.1211  3.3118
16587SOL     OW53548   7.597   4.667   7.584 -0.3126  0.0515 -0.5240
16587SOL    HW153549   7.675   4.676   7.528  0.0696 -1.5225 -0.2932
16587SOL    HW253550   7.631   4.670   7.673 -0.6728  0.5060 -0.3992
16588SOL     OW53551   3.828   5.059   1.718  0.2783  0.7972  0.0874
16588SOL    HW153552   3.852   5.008   1.641  1.5453  1.9243 -0.3115
16588SOL    HW253553   3.732   5.055   1.721  0.1202  1.4482 -2.0928
16589SOL     OW53554   4.004   4.305   3.686  0.1841 -0.7499 -0.2341
16589SOL    HW153555   3.977   4.223   3.727  3.1715 -0.9105  1.7937
16589SOL    HW253556   4.060   4.347   3.752  1.3149  1.4023 -2.4009
16590SOL     OW53557   3.342   4.887   4.977  0.2350 -0.1596  0.1574
16590SOL    HW153558   3.256   4.894   4.936  0.8378  0.3718 -1.0430
16590SOL    HW253559   3.325   4.839   5.058 -1.0693 -0.7530 -0.4319
16591SOL     OW53560   7.283   3.362   7.765  0.3749  0.5873 -0.6119
16591SOL    HW153561   7.358   3.366   7.705  1.0114 -0.3745  0.0987
16591SOL    HW253562   7.262   3.269   7.770 -1.0909  0.8683 -1.0454
16592SOL     OW53563   3.974   7.036   5.215 -0.8299 -0.4925 -0.3251
16592SOL    HW153564   4.054   6.988   5.193 -1.0632 -0.9456 -0.1818
16592SOL    HW253565   3.999   7.089   5.291 -0.1011  0.8742 -1.4546
16593SOL     OW53566   4.904   3.844   4.991 -0.3872 -0.5024  0.1805
16593SOL    HW153567   4.831   3.832   4.929 -0.8187  0.4305  0.4801
16593SOL    HW253568   4.947   3.923   4.961 -1.2870  0.6174  1.6954
16594SOL     OW53569   7.549  10.269   4.364  0.3658  0.4864  0.4159
16594SOL    HW153570   7.568  10.216   4.441 -1.8043 -0.1389  0.6044
16594SOL    HW253571   7.557  10.208   4.290  0.0992  0.4632  0.4039
16595SOL     OW53572   7.398   2.628   8.673 -0.3063 -0.0909  0.3036
16595SOL    HW153573   7.312   2.669   8.678 -0.7030 -1.0112  1.8989
16595SOL    HW253574   7.460   2.699   8.688 -0.7946  0.5276 -0.5727
16596SOL     OW53575   6.867   4.053   4.584 -0.4096  0.1144 -0.1170
16596SOL    HW153576   6.840   3.965   4.610  4.2255 -1.9875 -1.2206
16596SOL    HW253577   6.841   4.061   4.492 -2.6207  0.8463  0.5266
16597SOL     OW53578   3.822   7.164   3.918  0.4414  0.0279 -0.1449
16597SOL    HW153579   3.826   7.072   3.893  0.0722 -0.4679  1.5148
16597SOL    HW253580   3.736   7.193   3.889  1.4938  0.6265 -3.0110
16598SOL     OW53581   8.915   2.028   1.488  0.6518 -0.2221  0.1289
16598SOL    HW153582   9.000   2.018   1.446  0.2790  0.8287 -0.9352
16598SOL    HW253583   8.865   1.951   1.460  0.4774  0.3635 -1.2567
16599SOL     OW53584   7.411   9.328   3.677  0.5100 -0.0531  0.2970
16599SOL    HW153585   7.499   9.341   3.642  0.3113  0.5606  0.0071
16599SOL    HW253586   7.424   9.291   3.764  1.0239 -1.4762 -0.3505
16600SOL     OW53587   1.745   4.596   4.736 -0.2516 -0.0239 -0.1266
16600SOL    HW153588   1.760   4.534   4.807  0.4078  0.2248 -0.0396
16600SOL    HW253589   1.833   4.625   4.710 -0.5300  0.6246 -0.3791
16601SOL     OW53590   2.510   0.368   9.615 -0.2620  0.0958  0.2539
16601SOL    HW153591   2.468   0.333   9.537  0.9307  1.1503 -0.8981
16601SOL    HW253592   2.456   0.442   9.642 -1.3415 -0.9885  1.1736
16602SOL     OW53593   0.679   6.921   3.018 -0.0540  0.8036  0.2248
16602SOL    HW153594   0.739   6.979   2.971  0.2470  0.5290  0.2738
16602SOL    HW253595   0.642   6.865   2.950 -0.2010  0.9214  0.2061
16603SOL     OW53596   0.753   7.731   0.180  0.0526  0.4189 -0.2273
16603SOL    HW153597   0.846   7.720   0.160 -0.2030  2.3255 -3.0795
16603SOL    HW253598   0.749   7.731   0.276  2.8691 -0.2520 -0.0111
16604SOL     OW53599   3.894   7.959   4.107 -0.3504  0.0146  0.4799
16604SOL    HW153600   3.870   8.044   4.144  0.4199  0.1490  0.6829
16604SOL    HW253601   3.943   7.980   4.028  0.3160 -0.2211  0.8207
16605SOL     OW53602   2.850   6.522   3.224  0.2611 -0.2289  0.0798
16605SOL    HW153603   2.931   6.573   3.221  0.4968 -0.5901  0.3665
16605SOL    HW253604   2.863   6.458   3.294  0.5043 -1.5977 -1.1663
16606SOL     OW53605   3.243   9.367   7.766 -0.4722  0.3501  0.0196
16606SOL    HW153606   3.164   9.361   7.820  0.2924  0.2967  1.1615
16606SOL    HW253607   3.313   9.335   7.822  0.1533 -1.0340 -1.4945
16607SOL     OW53608   9.325   1.896   3.322 -0.3621 -0.4188  0.1481
16607SOL    HW153609   9.379   1.825   3.288  0.2577 -0.8387  1.8792
16607SOL    HW253610   9.358   1.975   3.281  1.4943 -0.6888  1.0334
16608SOL     OW53611   4.800   1.690   9.198 -0.0164 -0.2562 -0.0746
16608SOL    HW153612   4.767   1.653   9.280  1.1189 -0.9067  0.1137
16608SOL    HW253613   4.771   1.781   9.199  1.9943  0.4647  2.2248
16609SOL     OW53614   6.649   3.184   4.678  0.2142  0.3310 -0.3271
16609SOL    HW153615   6.648   3.210   4.770  0.1378 -0.7562 -0.0100
16609SOL    HW253616   6.742   3.178   4.656  0.2324  0.6598 -0.3395
16610SOL     OW53617   8.997   3.786  10.251  0.3414  0.0985 -0.7489
16610SOL    HW153618   9.061   3.839  10.298 -0.5335  0.3891  0.1390
16610SOL    HW253619   9.042   3.761  10.170  1.2294  1.0915 -0.5877
16611SOL     OW53620   3.210   5.314   9.890 -0.5346 -0.2230  0.0712
16611SOL    HW153621   3.173   5.281   9.972 -0.5833 -0.0611  0.1131
16611SOL    HW253622   3.154   5.277   9.822  0.1842 -1.3064  0.0409
16612SOL     OW53623   7.389   7.264   3.958 -0.9497 -1.2721 -0.2965
16612SOL    HW153624   7.461   7.326   3.952 -0.6870 -1.6080 -0.6797
16612SOL    HW253625   7.325   7.307   4.014 -0.1538 -1.2580  0.6220
16613SOL     OW53626   7.332   6.467   6.402  0.9303 -0.5143 -0.1740
16613SOL    HW153627   7.302   6.393   6.454 -0.3473  0.5145  0.6039
16613SOL    HW253628   7.390   6.428   6.337  0.9255 -2.0883  0.7110
16614SOL     OW53629   0.750   5.755   6.898  0.0778  0.2571 -0.0701
16614SOL    HW153630   0.687   5.736   6.828 -0.8461  3.5215 -0.2684
16614SOL    HW253631   0.720   5.700   6.971 -0.2543 -1.5789 -1.5064
16615SOL     OW53632   7.343   5.605   0.193  0.1010  0.1248 -0.1505
16615SOL    HW153633   7.416   5.568   0.145 -0.4116 -1.2458  0.0940
16615SOL    HW253634   7.373   5.610   0.284  0.7805  1.9674 -0.4298
16616SOL     OW53635   4.246   5.744   8.800 -0.5144  0.4337 -0.1237
16616SOL    HW153636   4.222   5.696   8.721  0.8470 -0.3142 -0.1153
16616SOL    HW253637   4.176   5.724   8.862 -0.2416 -1.1721 -0.2851
16617SOL     OW53638   1.466   1.321   3.032  0.7626  0.1664  0.7817
16617SOL    HW153639   1.533   1.321   3.100  0.9071  0.0619  0.6411
16617SOL    HW253640   1.391   1.364   3.072  1.3449  1.4670  0.5211
16618SOL     OW53641   1.929   7.451  10.063 -0.4559  0.4646 -0.4485
16618SOL    HW153642   1.936   7.408  10.148  0.5026 -0.4203 -0.9423
16618SOL    HW253643   2.013   7.496  10.052 -0.7358  0.9236 -0.7473
16619SOL     OW53644   4.424   0.703   1.112 -0.5483 -0.3028 -0.0277
16619SOL    HW153645   4.494   0.760   1.142 -1.4728  0.5887  0.4692
16619SOL    HW253646   4.440   0.693   1.018  0.1864 -0.0407  0.0618
16620SOL     OW53647   1.358   7.357  10.138  0.4277  0.2230  0.3969
16620SOL    HW153648   1.287   7.421  10.138 -0.6368 -0.9162  0.0338
16620SOL    HW253649   1.377   7.342  10.230 -0.3217  0.0033  0.5261
16621SOL     OW53650   3.695   9.971   3.965  0.0494  0.6051  0.3191
16621SOL    HW153651   3.695  10.066   3.961  1.4905  0.5701 -1.3600
16621SOL    HW253652   3.730   9.951   4.052  2.2437  1.6405 -0.2730
16622SOL     OW53653  10.135   5.439   5.501  0.7275 -0.3237  0.0877
16622SOL    HW153654  10.077   5.458   5.574  0.0954  0.3535 -0.5766
16622SOL    HW253655  10.104   5.496   5.430  2.4163  0.3028 -0.1837
16623SOL     OW53656   9.317   3.830   5.034 -0.1873 -0.0019 -0.0436
16623SOL    HW153657   9.278   3.756   4.988  0.5926 -0.7698  0.4883
16623SOL    HW253658   9.404   3.840   4.995  0.3844 -0.5019  1.0363
16624SOL     OW53659   6.657   4.982   1.356  0.4184 -0.6647 -0.5461
16624SOL    HW153660   6.668   4.904   1.302 -0.4141  1.1137 -3.5140
16624SOL    HW253661   6.739   5.030   1.345  1.0810 -1.2011  1.5727
16625SOL     OW53662   3.076   6.311   4.116 -0.4270 -0.4043  0.2109
16625SOL    HW153663   3.076   6.228   4.068  0.9111  0.0499 -0.6250
16625SOL    HW253664   2.986   6.343   4.108 -0.7005 -1.2719 -0.3318
16626SOL     OW53665   6.176   0.611   4.848  0.1521  0.0170  0.5164
16626SOL    HW153666   6.240   0.557   4.895 -0.5495 -0.4373  0.9636
16626SOL    HW253667   6.091   0.583   4.882 -0.3729 -0.2616 -0.9520
16627SOL     OW53668   4.590   7.069   3.924  0.1621 -0.4273  0.4877
16627SOL    HW153669   4.615   6.979   3.902  0.1383 -0.2994 -0.0759
16627SOL    HW253670   4.639   7.123   3.863  1.5834  0.0663  1.9947
16628SOL     OW53671   4.391   5.403   6.928  0.1777  0.0713 -0.0520
16628SOL    HW153672   4.371   5.414   7.021 -0.3251 -1.3107  0.0275
16628SOL    HW253673   4.353   5.480   6.886 -1.0548 -0.0937  0.7044
16629SOL     OW53674   6.179   1.994   4.930  0.2783 -0.3623 -0.0495
16629SOL    HW153675   6.216   2.052   4.863 -1.1642  3.9130  2.4519
16629SOL    HW253676   6.253   1.972   4.986  0.5800  0.5942 -0.0547
16630SOL     OW53677   7.500   9.682   6.112  0.6209  0.2470 -0.2777
16630SOL    HW153678   7.460   9.764   6.084 -0.2204  0.7746  2.2338
16630SOL    HW253679   7.442   9.648   6.180  1.9383 -1.4696  0.0829
16631SOL     OW53680   0.707   0.668   9.043  0.0902 -0.4519  0.2369
16631SOL    HW153681   0.773   0.723   9.001 -0.4607  0.6641  0.7904
16631SOL    HW253682   0.753   0.587   9.065  0.3099 -1.3374 -2.9360
16632SOL     OW53683   3.685   6.963   7.753  0.0529  0.5112  0.0192
16632SOL    HW153684   3.590   6.958   7.762  0.1326  1.2405  1.6343
16632SOL    HW253685   3.711   7.033   7.812  1.7531 -0.8256  0.9577
16633SOL     OW53686   5.672   3.565   2.777 -0.1462  0.0482  0.0729
16633SOL    HW153687   5.585   3.564   2.817 -0.7735  3.3112 -0.8544
16633SOL    HW253688   5.657   3.541   2.686  0.1426 -0.6562  0.2107
16634SOL     OW53689   2.831   4.541   5.846  0.1804 -0.4057 -0.0582
16634SOL    HW153690   2.831   4.448   5.823  1.1029 -0.6373  0.8069
16634SOL    HW253691   2.876   4.545   5.930 -1.5885  0.6069  0.9006
16635SOL     OW53692   2.184   5.663   5.337  0.3090  0.2636  0.3194
16635SOL    HW153693   2.165   5.651   5.244  0.3662  0.2182  0.3135
16635SOL    HW253694   2.215   5.754   5.344 -1.9529  1.0831  0.6636
16636SOL     OW53695   4.272   6.574  10.337 -0.0464  0.0563 -0.3217
16636SOL    HW153696   4.179   6.587  10.319 -0.2046 -0.6397 -0.0462
16636SOL    HW253697   4.295   6.645  10.396 -0.8511 -0.7779  1.0406
16637SOL     OW53698   9.005   9.950   9.662 -0.2172  0.5135 -0.2403
16637SOL    HW153699   9.069   9.957   9.591 -0.6893  0.3110 -0.7020
16637SOL    HW253700   8.922   9.975   9.621 -0.2730  1.7980  0.6176
16638SOL     OW53701   9.549   6.409   6.614 -0.1465  0.0194 -0.1979
16638SOL    HW153702   9.549   6.387   6.707 -0.4168  1.0387  0.0564
16638SOL    HW253703   9.637   6.442   6.597  0.2617 -1.2305 -0.5790
16639SOL     OW53704   8.485   0.282   2.834 -0.4108 -0.3759  0.4805
16639SOL    HW153705   8.450   0.318   2.915  0.8497  0.5723  0.6398
16639SOL    HW253706   8.507   0.359   2.781 -1.8688 -0.9851 -1.0748
16640SOL     OW53707   5.396   7.160   9.906  0.1333 -0.3218 -0.9135
16640SOL    HW153708   5.454   7.104   9.957  1.1779 -0.0273 -1.7211
16640SOL    HW253709   5.314   7.112   9.901  0.1490 -0.5590  0.6267
16641SOL     OW53710   3.096  10.206   3.711  0.1877 -0.4155 -0.0441
16641SOL    HW153711   3.007  10.172   3.722 -0.0343  0.5805  1.4988
16641SOL    HW253712   3.149  10.128   3.696 -1.0254 -0.9616 -1.8747
16642SOL     OW53713   6.893   1.291   5.714 -0.0076  0.0136 -0.1725
16642SOL    HW153714   6.908   1.334   5.798  0.6323  0.0490 -0.2981
16642SOL    HW253715   6.943   1.343   5.651 -0.5669  0.0495 -0.5969
16643SOL     OW53716   3.686   2.449   8.922  0.2136 -0.0217 -0.5798
16643SOL    HW153717   3.754   2.442   8.990  0.2002  0.5424 -0.5079
16643SOL    HW253718   3.632   2.523   8.950 -1.2693 -1.2920  0.1009
16644SOL     OW53719   2.331   3.608   0.018 -0.2624 -0.1093  0.1046
16644SOL    HW153720   2.394   3.548   0.058 -3.0004 -2.2541  1.5729
16644SOL    HW253721   2.381   3.687  -0.001  2.8460 -1.7026  1.0023
16645SOL     OW53722   4.340   4.678   0.512  0.0950  0.3200 -0.0405
16645SOL    HW153723   4.323   4.592   0.549  0.1818  0.9442  1.4948
16645SOL    HW253724   4.361   4.661   0.420 -3.1046 -1.0050 -0.6497
16646SOL     OW53725   4.533   8.569   5.928 -0.2714 -0.9220  0.5928
16646SOL    HW153726   4.606   8.610   5.880  0.2762 -1.4777  0.9388
16646SOL    HW253727   4.455   8.598   5.882  0.2308 -1.2127 -0.4663
16647SOL     OW53728  10.036   0.544   8.248 -0.4472  0.4778 -0.0793
16647SOL    HW153729  10.128   0.522   8.229 -1.2353 -0.3823 -3.5794
16647SOL    HW253730  10.014   0.490   8.324  1.7577  0.2312  0.4516
16648SOL     OW53731   0.474   2.707   6.431 -0.5602  0.1485 -0.3741
16648SOL    HW153732   0.418   2.775   6.468  1.6464  1.6576  0.4071
16648SOL    HW253733   0.422   2.668   6.361 -2.2602  2.0139 -0.2302
16649SOL     OW53734   0.472   3.969   1.382 -0.6034  0.8690 -0.6980
16649SOL    HW153735   0.554   4.015   1.403  0.4069 -1.6496  1.5070
16649SOL    HW253736   0.416   3.984   1.458 -0.7163 -0.4320 -0.4986
16650SOL     OW53737   6.734   0.104   6.754 -0.0270 -0.1326 -0.0694
16650SOL    HW153738   6.758   0.177   6.697  0.7616  0.0449  0.4686
16650SOL    HW253739   6.718   0.144   6.839  0.5460 -0.5940  0.2657
16651SOL     OW53740   9.385   4.043   4.618  0.7223 -0.2228  0.1632
16651SOL    HW153741   9.312   4.066   4.676 -1.2915 -1.7548 -1.5623
16651SOL    HW253742   9.441   4.120   4.618 -1.2545  1.3272  1.0782
16652SOL     OW53743   2.641   4.472   9.186  0.2844  0.1886 -0.4031
16652SOL    HW153744   2.584   4.482   9.110  1.7675  2.8105 -1.3123
16652SOL    HW253745   2.718   4.427   9.151  0.8060  1.0570 -0.4066
16653SOL     OW53746   1.996   1.445   3.406  0.1643  0.4154 -0.7351
16653SOL    HW153747   1.951   1.418   3.325  0.7259 -2.1730 -0.2734
16653SOL    HW253748   2.089   1.445   3.383  0.2167  2.4254 -0.7644
16654SOL     OW53749   5.935   1.923   7.371  0.3478  0.4341  0.2920
16654SOL    HW153750   6.003   1.899   7.434 -0.3103 -1.8478  0.2010
16654SOL    HW253751   5.855   1.929   7.424  0.3711  1.9257  0.1996
16655SOL     OW53752   3.819   5.966   8.225 -0.3712  0.0680  0.0714
16655SOL    HW153753   3.880   6.037   8.240 -0.8462  0.4411  0.2558
16655SOL    HW253754   3.859   5.890   8.268  0.0639  0.2529 -0.0044
16656SOL     OW53755   8.244   2.826   6.981 -0.0785 -0.1912  0.1085
16656SOL    HW153756   8.304   2.898   6.961  0.8103 -1.2773 -1.3262
16656SOL    HW253757   8.293   2.747   6.960 -1.7327 -1.1502 -0.3609
16657SOL     OW53758   8.081   3.899   6.007  0.2275  0.0564  0.7038
16657SOL    HW153759   8.091   3.806   6.026  2.3070  0.2921  0.9416
16657SOL    HW253760   8.025   3.933   6.077  0.5098 -0.7663  1.3353
16658SOL     OW53761  10.141   5.753   8.551 -0.0569  0.4539 -0.1989
16658SOL    HW153762  10.134   5.659   8.532 -0.0899  0.4836 -0.3310
16658SOL    HW253763  10.139   5.795   8.465 -0.2438  0.5889 -0.1280
16659SOL     OW53764   9.198   9.721   6.372  0.7368 -0.7443  0.4095
16659SOL    HW153765   9.128   9.664   6.405 -0.3139  0.4268  0.2370
16659SOL    HW253766   9.240   9.669   6.304 -1.3703 -0.6857 -1.0296
16660SOL     OW53767   0.035   8.925   7.140 -0.5010  0.2017 -0.0642
16660SOL    HW153768   0.106   8.878   7.096  0.2479  1.2419 -0.0062
16660SOL    HW253769   0.065   9.016   7.143 -0.6537  0.2282  2.3122
16661SOL     OW53770   8.369   2.160   9.164 -0.3690  0.0868 -0.7099
16661SOL    HW153771   8.286   2.193   9.129  0.0654  0.2036 -1.6692
16661SOL    HW253772   8.360   2.167   9.259 -0.1268  3.5301 -0.8026
16662SOL     OW53773   2.348   7.411   0.286 -0.0835 -0.0262 -0.4177
16662SOL    HW153774   2.324   7.450   0.202  2.0825  1.8177 -0.2757
16662SOL    HW253775   2.267   7.412   0.337 -1.8938 -2.7526 -2.9313
16663SOL     OW53776   4.938   6.200   0.832  0.2583  0.0748  0.1739
16663SOL    HW153777   4.936   6.250   0.913  0.2671  2.8660 -1.4357
16663SOL    HW253778   4.967   6.262   0.765  0.0325 -2.0281 -2.0383
16664SOL     OW53779   2.246   9.354   8.931  0.0426  0.0201 -0.2968
16664SOL    HW153780   2.307   9.284   8.951 -0.5235 -0.4730 -0.2834
16664SOL    HW253781   2.268   9.382   8.842 -0.7198 -1.2260 -0.9035
16665SOL     OW53782   0.141   6.031   0.193  0.0953 -0.1307  0.2342
16665SOL    HW153783   0.122   5.939   0.214  0.1546  0.1304  1.4826
16665SOL    HW253784   0.094   6.046   0.111  0.7089 -1.4889 -0.4001
16666SOL     OW53785   3.801   8.039   7.198 -0.3670  0.7260  0.6002
16666SOL    HW153786   3.820   7.969   7.135 -1.8248  1.6528 -0.9240
16666SOL    HW253787   3.706   8.040   7.206 -0.2592  0.9338  2.5356
16667SOL     OW53788   4.807   4.214   4.385 -0.5372 -0.4994 -0.3906
16667SOL    HW153789   4.834   4.304   4.400  1.2069 -1.1913  1.0634
16667SOL    HW253790   4.715   4.211   4.411 -0.0343  0.4074  1.6799
16668SOL     OW53791   5.507   3.717  10.205 -0.8116  0.0502  0.5734
16668SOL    HW153792   5.521   3.769  10.283 -1.7451  0.1058  0.7251
16668SOL    HW253793   5.437   3.656  10.229 -1.0403 -0.0026 -0.1820
16669SOL     OW53794   1.010   3.647   8.212 -0.4688 -0.1984  0.1510
16669SOL    HW153795   1.038   3.570   8.262 -3.2031 -0.9346  0.7598
16669SOL    HW253796   0.975   3.707   8.278  0.9661  1.3083 -0.3926
16670SOL     OW53797   8.856   1.208   0.658 -0.4644  0.1396 -0.5219
16670SOL    HW153798   8.845   1.248   0.572 -1.4530  0.1942 -0.3765
16670SOL    HW253799   8.829   1.275   0.721  0.6943  0.2703 -0.1248
16671SOL     OW53800   0.381   6.880   3.650 -0.7254 -0.3664  0.0616
16671SOL    HW153801   0.406   6.868   3.558  0.4708 -1.2566  0.4730
16671SOL    HW253802   0.288   6.859   3.652 -0.4373 -1.8719 -0.7052
16672SOL     OW53803   2.269   5.361   1.629 -0.1437 -0.3742 -0.3244
16672SOL    HW153804   2.359   5.369   1.661  0.3445  0.8613 -1.8655
16672SOL    HW253805   2.218   5.421   1.683 -0.2436 -1.7287  1.1406
16673SOL     OW53806   0.346   6.863   7.725 -0.1790  0.6513 -0.2564
16673SOL    HW153807   0.379   6.897   7.809 -1.1925  2.6743 -0.6086
16673SOL    HW253808   0.311   6.777   7.747  0.4635  0.7195  1.1999
16674SOL     OW53809   8.868   2.388   6.375  0.1182  0.0728 -0.2110
16674SOL    HW153810   8.840   2.299   6.355 -0.8297  0.5930 -1.3764
16674SOL    HW253811   8.952   2.398   6.329 -0.5360  0.2497 -1.4282
16675SOL     OW53812   4.035   7.939   5.750  0.6368  0.2125 -0.4224
16675SOL    HW153813   3.949   7.916   5.715  0.3620  1.6549 -0.7881
16675SOL    HW253814   4.054   7.871   5.814  0.5891 -1.8262 -2.4284
16676SOL     OW53815   9.294   2.865   9.684  0.4530  0.2010  0.3503
16676SOL    HW153816   9.385   2.835   9.673  0.4102  0.1862  0.0172
16676SOL    HW253817   9.288   2.942   9.628 -0.8978 -2.1347 -3.0309
16677SOL     OW53818   8.274   4.331   7.559  0.3147 -0.3432 -0.6464
16677SOL    HW153819   8.318   4.388   7.621  2.5263 -0.8946 -1.6149
16677SOL    HW253820   8.299   4.242   7.585 -0.6937 -0.7224 -0.9093
16678SOL     OW53821   1.003   9.141   5.321 -0.4833  0.3438  0.9185
16678SOL    HW153822   0.929   9.134   5.260 -0.0703  1.8399  0.1924
16678SOL    HW253823   0.984   9.220   5.372  0.5088  0.6455  0.8460
16679SOL     OW53824   1.430   3.687   7.115 -0.7722 -0.3026 -0.1313
16679SOL    HW153825   1.482   3.767   7.119  0.0421 -0.8143 -0.2164
16679SOL    HW253826   1.343   3.713   7.146 -0.0001  0.1785  1.7410
16680SOL     OW53827   2.368   7.008   9.488  0.1469  0.0746 -0.7741
16680SOL    HW153828   2.425   6.931   9.483 -0.1648 -0.2680  0.6023
16680SOL    HW253829   2.316   7.004   9.408 -1.0418 -2.1141  0.0277
16681SOL     OW53830   9.633   8.771   0.679  0.0635 -0.7263 -0.0318
16681SOL    HW153831   9.579   8.695   0.658 -0.9468 -0.3953  1.2135
16681SOL    HW253832   9.584   8.846   0.645  1.0658 -0.6005 -1.2805
16682SOL     OW53833   8.128   3.616   6.095 -0.2242  0.0523 -0.3852
16682SOL    HW153834   8.222   3.632   6.101 -0.2424  0.2763 -0.6608
16682SOL    HW253835   8.103   3.589   6.183  0.1378 -0.2356 -0.3667
16683SOL     OW53836   7.939   7.972   0.792 -0.8428  0.3295  0.2794
16683SOL    HW153837   7.885   8.000   0.718 -1.1277 -0.5406  0.1441
16683SOL    HW253838   8.015   8.030   0.790  0.4086 -1.2412 -2.2363
16684SOL     OW53839   9.801   0.698   5.357  0.3078  0.7559 -0.3032
16684SOL    HW153840   9.834   0.670   5.442  1.6925 -0.6527 -1.2528
16684SOL    HW253841   9.877   0.732   5.311 -0.5491  2.1388 -0.7665
16685SOL     OW53842   5.757   6.594   2.145  0.1362 -0.1205  0.3746
16685SOL    HW153843   5.850   6.594   2.168  1.1579  1.6367 -3.0749
16685SOL    HW253844   5.727   6.683   2.167 -0.4928 -0.3959  0.6497
16686SOL     OW53845  10.164   9.425   5.868 -0.2694 -0.1004 -0.2832
16686SOL    HW153846  10.162   9.352   5.807  1.8198 -0.8766  0.4812
16686SOL    HW253847  10.157   9.503   5.813  0.9514 -0.7923 -1.4786
16687SOL     OW53848   2.921   6.712   0.479  0.7760 -0.7375  0.9811
16687SOL    HW153849   2.829   6.725   0.503  1.1627 -0.6444  2.4900
16687SOL    HW253850   2.938   6.780   0.413 -0.5386 -1.5194 -0.2181
16688SOL     OW53851   1.582   7.032   9.684  0.0118  0.6452  0.1194
16688SOL    HW153852   1.513   7.046   9.619  0.0065  0.2966  0.0508
16688SOL    HW253853   1.582   6.937   9.699  0.1941  0.6932  0.4273
16689SOL     OW53854   4.333   1.587   9.057  0.2812  0.3200  0.0137
16689SOL    HW153855   4.334   1.553   9.147 -1.2402 -1.8450 -0.7176
16689SOL    HW253856   4.254   1.551   9.018  1.1012  0.8857 -2.3465
16690SOL     OW53857  10.272   4.720   3.456 -0.7381  0.6144 -0.6332
16690SOL    HW153858  10.223   4.783   3.509  2.4905  3.8952 -1.1219
16690SOL    HW253859  10.346   4.695   3.512 -0.6323 -0.8560 -1.3815
16691SOL     OW53860   7.522   7.951   4.199 -0.0373  0.4783 -0.1944
16691SOL    HW153861   7.481   7.982   4.280 -1.2055 -0.4397 -0.3985
16691SOL    HW253862   7.463   7.980   4.129 -0.7200 -1.4020 -0.4520
16692SOL     OW53863   9.839   0.896   6.389 -0.1317  0.2979  0.6153
16692SOL    HW153864   9.829   0.925   6.298 -0.8591 -0.9639  0.2781
16692SOL    HW253865   9.797   0.965   6.440  0.3511  1.0606  0.0256
16693SOL     OW53866   6.261   4.270   7.783  0.4521  0.0793 -0.1977
16693SOL    HW153867   6.171   4.288   7.756  1.0452  0.7403 -1.8692
16693SOL    HW253868   6.263   4.293   7.876 -1.0197  0.3510 -0.2068
16694SOL     OW53869   3.438   7.228   6.770  0.0837  0.2312  0.4875
16694SOL    HW153870   3.444   7.322   6.752 -1.5557  0.1514 -0.7042
16694SOL    HW253871   3.523   7.205   6.809  0.0578  2.4238  1.9602
16695SOL     OW53872   6.492   4.444   2.817 -0.1643  0.0242  0.1576
16695SOL    HW153873   6.513   4.379   2.750  1.5557  1.2930 -0.6168
16695SOL    HW253874   6.488   4.527   2.769 -0.6060  0.7196  1.3679
16696SOL     OW53875   9.280   3.620   1.919  0.0937  0.4695 -0.1581
16696SOL    HW153876   9.353   3.680   1.937  1.8212 -1.9663  1.6593
16696SOL    HW253877   9.228   3.621   2.000 -0.5058  0.3544 -0.5366
16697SOL     OW53878   6.123   1.828   0.420 -0.0473  0.1823  0.5822
16697SOL    HW153879   6.066   1.802   0.347 -2.3838  1.5984  1.7667
16697SOL    HW253880   6.180   1.896   0.383 -1.3724  1.0679  0.0819
16698SOL     OW53881   9.997   1.027   9.489 -0.3595  0.3706  0.2940
16698SOL    HW153882  10.052   0.981   9.426 -0.0072 -3.0008  2.7974
16698SOL    HW253883  10.045   1.108   9.508  1.6866 -0.5666 -0.5846
16699SOL     OW53884   8.369   2.881   4.175  0.1685  0.0338 -0.3392
16699SOL    HW153885   8.404   2.950   4.120 -0.5314 -0.7333 -1.7996
16699SOL    HW253886   8.296   2.921   4.222 -0.4013  0.2298 -1.3785
16700SOL     OW53887   4.007   0.684   9.271  0.1397 -0.0650 -0.0878
16700SOL    HW153888   3.973   0.773   9.260 -1.9744 -0.7786  0.0670
16700SOL    HW253889   4.073   0.691   9.339 -1.0455  1.1626  0.9897
16701SOL     OW53890   3.957   5.376   9.265 -0.6734  0.2981 -0.3904
16701SOL    HW153891   4.038   5.382   9.215  0.2185 -0.7471  0.8796
16701SOL    HW253892   3.964   5.444   9.332 -1.2691  0.7927 -0.8076
16702SOL     OW53893   4.423   8.783   1.455 -0.5476  0.0709 -0.0589
16702SOL    HW153894   4.440   8.720   1.385 -2.8354 -0.6128 -0.0818
16702SOL    HW253895   4.332   8.809   1.443  0.0931  2.9394  0.3618
16703SOL     OW53896   0.680  10.217   5.024 -0.1517  0.2925  0.4448
16703SOL    HW153897   0.618  10.148   5.047  0.5563 -0.6490 -0.3789
16703SOL    HW253898   0.672  10.281   5.094 -2.2454  0.3361  0.2433
16704SOL     OW53899   8.317   6.417   0.483 -0.0316  0.2262  0.1720
16704SOL    HW153900   8.249   6.349   0.482  0.2241 -0.0292 -1.2756
16704SOL    HW253901   8.279   6.488   0.535 -1.0179 -0.3025  0.1992
16705SOL     OW53902   9.920   1.778   2.832 -0.0106  0.0304 -0.5813
16705SOL    HW153903   9.900   1.813   2.745  0.6318 -2.5535 -1.8822
16705SOL    HW253904   9.835   1.750   2.866 -0.2686  1.0618 -0.3428
16706SOL     OW53905   5.693   6.938   8.746  0.3022  0.3799 -0.2075
16706SOL    HW153906   5.776   6.964   8.785  0.2006 -0.9069  0.9529
16706SOL    HW253907   5.716   6.869   8.684  0.0352 -0.7762  0.9273
16707SOL     OW53908   6.961   1.834   5.298 -0.0105  0.0581 -0.1641
16707SOL    HW153909   6.931   1.762   5.353  1.2145 -0.2489  0.1256
16707SOL    HW253910   6.937   1.808   5.209  1.4013 -1.2652 -0.1994
16708SOL     OW53911   1.076   1.599   2.127 -0.2856 -0.5270 -0.1643
16708SOL    HW153912   1.026   1.536   2.074  1.1440 -1.2218 -0.7520
16708SOL    HW253913   1.028   1.603   2.210 -2.0517 -0.1286 -1.1407
16709SOL     OW53914   4.464   7.602   1.684  0.2725 -0.8910  0.0626
16709SOL    HW153915   4.386   7.637   1.728  0.5439 -0.4169  0.1740
16709SOL    HW253916   4.430   7.537   1.623 -0.1189 -1.5945  0.9960
16710SOL     OW53917   1.467   2.773   3.375 -0.1659 -0.1763 -0.3650
16710SOL    HW153918   1.517   2.711   3.428  1.0022  0.1511 -1.0279
16710SOL    HW253919   1.530   2.803   3.308 -1.0579  0.7857 -0.8054
16711SOL     OW53920   5.323   5.823   8.459 -0.7764 -0.1910 -0.0129
16711SOL    HW153921   5.259   5.885   8.425 -1.6984  0.2571  2.3347
16711SOL    HW253922   5.272   5.768   8.519  0.5693 -1.4520  0.0125
16712SOL     OW53923   6.279   5.587   7.080 -0.1002 -0.4636 -0.6190
16712SOL    HW153924   6.355   5.639   7.105 -0.4979 -0.0158 -0.3450
16712SOL    HW253925   6.255   5.539   7.160 -0.8675  0.3450 -0.3544
16713SOL     OW53926   0.091   5.535   0.384 -0.0760  0.0020  0.3980
16713SOL    HW153927   0.173   5.486   0.374 -0.5068 -0.6247 -0.1203
16713SOL    HW253928   0.023   5.468   0.388 -0.5206  0.4953  1.4085
16714SOL     OW53929   0.092   1.401   5.289  1.2200  0.0820 -0.1785
16714SOL    HW153930   0.079   1.341   5.216  0.2471 -0.0343  0.0653
16714SOL    HW253931   0.170   1.451   5.266  0.3312  0.8141 -1.8332
16715SOL     OW53932   5.045   6.851   0.635  0.1226  0.6500  0.4483
16715SOL    HW153933   5.133   6.877   0.608  0.5670 -1.4349 -0.2343
16715SOL    HW253934   5.020   6.781   0.575 -1.6724  0.6069  1.1637
16716SOL     OW53935  10.167   8.239   6.163  0.8030  0.4080 -0.5734
16716SOL    HW153936  10.262   8.227   6.168  0.4465 -3.3436 -0.2615
16716SOL    HW253937  10.135   8.210   6.249 -0.7064  0.2158 -1.1799
16717SOL     OW53938  10.203   3.774   3.067 -0.5766 -0.0099 -0.0214
16717SOL    HW153939  10.193   3.868   3.049 -2.7175 -0.5245 -2.1160
16717SOL    HW253940  10.137   3.756   3.135  0.2324  0.0687  0.8023
16718SOL     OW53941   0.541   4.525   2.680  0.5650 -0.6899  0.3543
16718SOL    HW153942   0.536   4.618   2.701 -0.9557 -1.0471  1.7222
16718SOL    HW253943   0.526   4.480   2.763 -0.5167 -2.1539 -0.5772
16719SOL     OW53944   8.279   7.039   0.189  0.4745  0.1546 -0.5558
16719SOL    HW153945   8.235   7.068   0.109 -0.1663  1.9255  0.3786
16719SOL    HW253946   8.313   6.952   0.168 -1.7150 -0.4405 -1.9964
16720SOL     OW53947   5.876   0.383   0.288  0.6642 -0.2543 -0.2528
16720SOL    HW153948   5.831   0.468   0.287 -0.9335 -1.0667 -0.9408
16720SOL    HW253949   5.890   0.362   0.196 -0.7355 -1.6021 -0.1931
16721SOL     OW53950   3.660   2.215   2.352 -0.1945  0.3338 -0.1385
16721SOL    HW153951   3.657   2.158   2.428  0.5800  1.8656  1.1061
16721SOL    HW253952   3.571   2.214   2.317 -0.2234 -1.4845 -0.0881
16722SOL     OW53953   7.681   9.037   3.389  0.2889 -0.0655  0.3523
16722SOL    HW153954   7.765   9.082   3.384 -0.2329  0.7732 -2.3456
16722SOL    HW253955   7.693   8.958   3.337 -0.6068  0.1091 -0.1318
16723SOL     OW53956   8.154   4.233   9.406  0.4539  0.1423  0.0286
16723SOL    HW153957   8.207   4.301   9.447  0.7677  0.1049 -0.3073
16723SOL    HW253958   8.217   4.170   9.373  0.1578 -0.3678  0.4284
16724SOL     OW53959   1.192   3.677   0.209 -0.1410  0.4161 -0.7453
16724SOL    HW153960   1.214   3.625   0.133  0.9993  1.4076 -1.1309
16724SOL    HW253961   1.275   3.713   0.239 -0.7106  0.9262  0.3117
16725SOL     OW53962   8.910   6.026   7.490 -0.1559 -0.0521 -0.2293
16725SOL    HW153963   8.903   5.931   7.487  1.9812 -0.2482 -1.4200
16725SOL    HW253964   8.833   6.058   7.444 -0.7250 -1.2128 -0.1145
16726SOL     OW53965   3.751   5.431   7.262 -0.2390  0.1142 -0.2694
16726SOL    HW153966   3.717   5.482   7.336 -0.9424 -1.5022  0.5797
16726SOL    HW253967   3.804   5.363   7.304 -0.8900 -1.0133 -1.2450
16727SOL     OW53968   8.896   2.821   1.604 -0.5669 -0.0923 -0.0635
16727SOL    HW153969   8.908   2.887   1.535 -1.0467  0.0231 -0.0428
16727SOL    HW253970   8.952   2.749   1.579 -1.4216 -0.4299 -1.0641
16728SOL     OW53971   2.584   1.528   6.560 -0.2350 -0.5396 -0.3242
16728SOL    HW153972   2.577   1.501   6.468 -0.4887  1.6886 -1.0165
16728SOL    HW253973   2.657   1.591   6.561 -1.1134  0.5053  0.7227
16729SOL     OW53974   7.626   0.993   7.347 -0.0830  0.0542  0.2149
16729SOL    HW153975   7.545   1.010   7.299  1.1966  2.8287 -1.1568
16729SOL    HW253976   7.645   0.900   7.331 -2.6496 -0.5482  0.1744
16730SOL     OW53977   8.485   7.243   3.469  0.0073 -0.0127 -0.3620
16730SOL    HW153978   8.527   7.176   3.416  0.1163 -1.2167  1.1583
16730SOL    HW253979   8.392   7.236   3.447  0.2547  0.7987 -1.7406
16731SOL     OW53980   6.234   6.556   9.732 -0.5667  0.2624 -0.1034
16731SOL    HW153981   6.215   6.463   9.728  1.8147 -0.4907  2.8053
16731SOL    HW253982   6.300   6.570   9.663 -0.9367 -0.1566 -0.5547
16732SOL     OW53983   7.641   0.170   4.316  0.5293 -0.1765  0.0125
16732SOL    HW153984   7.687   0.181   4.233  0.9034  0.3807  0.2810
16732SOL    HW253985   7.629   0.076   4.326 -0.4874 -0.2028 -1.1849
16733SOL     OW53986   0.403   2.833   4.036 -0.1944  0.3299 -0.6720
16733SOL    HW153987   0.425   2.742   4.019  0.4746  0.3803 -0.1014
16733SOL    HW253988   0.487   2.878   4.036 -0.3877  0.7070  0.5105
16734SOL     OW53989   4.326   7.680   0.750  0.0949 -0.2836 -1.1683
16734SOL    HW153990   4.279   7.705   0.670  0.0310  0.1380 -1.0046
16734SOL    HW253991   4.282   7.600   0.780 -1.1772  0.6318 -0.4867
16735SOL     OW53992   1.210   7.896   7.765  0.2394 -0.3043  0.5206
16735SOL    HW153993   1.254   7.912   7.848  1.4930  0.3868 -0.2508
16735SOL    HW253994   1.117   7.888   7.788  0.6000 -0.4818  2.0111
16736SOL     OW53995   1.551   2.701   5.676  0.0291 -0.2206 -0.6800
16736SOL    HW153996   1.604   2.706   5.596  0.1121  1.3139 -0.5643
16736SOL    HW253997   1.603   2.746   5.742 -1.2537  1.0629 -0.4891
16737SOL     OW53998  10.194   1.949   9.791 -0.1374 -0.0299  0.7857
16737SOL    HW153999  10.239   1.883   9.738  0.7894  0.6053  0.7774
16737SOL    HW254000  10.142   1.897   9.853  0.5008 -0.7711  0.7192
16738SOL     OW54001   8.177   2.709   7.763 -0.0880  0.8497 -0.0777
16738SOL    HW154002   8.160   2.622   7.727 -0.1986  0.5026  0.7723
16738SOL    HW254003   8.204   2.762   7.688  1.5111 -0.3043 -0.3739
16739SOL     OW54004   7.909   7.146   7.511  0.0353  0.4291 -0.3608
16739SOL    HW154005   7.911   7.080   7.442 -0.3471 -0.0623  0.0824
16739SOL    HW254006   7.838   7.204   7.486 -0.9922 -0.4995  0.2572
16740SOL     OW54007   8.224   4.797   5.186 -0.7126 -0.4228 -0.6763
16740SOL    HW154008   8.135   4.783   5.155 -0.8017  1.3692 -1.3874
16740SOL    HW254009   8.213   4.823   5.278 -1.2077  1.9967 -1.3271
16741SOL     OW54010   7.308   8.166   5.089  0.6704  0.2766  0.2568
16741SOL    HW154011   7.261   8.183   5.171 -0.8186 -0.4372 -0.4177
16741SOL    HW254012   7.258   8.214   5.023  0.2594 -1.3235 -0.6418
16742SOL     OW54013   1.163   1.989   7.439  0.0670  0.1034 -1.0736
16742SOL    HW154014   1.168   1.904   7.484 -0.5966  0.9382  0.6443
16742SOL    HW254015   1.087   1.981   7.381  0.1663 -0.5544 -1.1256
16743SOL     OW54016   6.275   0.919   4.215  0.0000  0.1955 -0.4974
16743SOL    HW154017   6.356   0.969   4.212  0.5245 -0.7102 -2.0988
16743SOL    HW254018   6.298   0.832   4.183 -1.1008 -0.8218  1.2880
16744SOL     OW54019   0.169   3.818   0.882  0.4102 -0.4728  0.3814
16744SOL    HW154020   0.155   3.842   0.974  0.2346  0.5612  0.0972
16744SOL    HW254021   0.083   3.789   0.851 -0.2389  1.8444 -0.1970
16745SOL     OW54022   3.790   8.392   4.832  0.3825 -0.2146 -0.0827
16745SOL    HW154023   3.703   8.354   4.817  0.5784 -1.3473  1.3703
16745SOL    HW254024   3.836   8.382   4.749 -0.4600 -0.7540 -0.4977
16746SOL     OW54025  10.279   0.355   5.858  0.1591  0.1252  0.1547
16746SOL    HW154026  10.340   0.315   5.797  0.6402  0.2471  0.5505
16746SOL    HW254027  10.215   0.286   5.877 -0.4166  0.3057 -1.0332
16747SOL     OW54028   0.210   9.956   8.526  0.1423  0.1306 -0.0905
16747SOL    HW154029   0.156   9.891   8.571  0.6962 -0.7040 -0.5773
16747SOL    HW254030   0.299   9.921   8.534  0.4607  0.8968 -0.2726
16748SOL     OW54031   5.355   0.614   1.768 -0.4615 -0.0865  0.1320
16748SOL    HW154032   5.445   0.643   1.751  0.3508 -2.1075  0.6392
16748SOL    HW254033   5.313   0.616   1.683  0.7056 -1.0522 -0.5022
16749SOL     OW54034   6.151  10.314   1.763 -0.0952  0.0272 -0.4644
16749SOL    HW154035   6.179  10.259   1.691  0.2981  0.9003 -1.0007
16749SOL    HW254036   6.062  10.341   1.739 -1.4641 -2.6331  1.1704
16750SOL     OW54037   5.899   4.500   5.008  0.2714  0.0936 -0.4478
16750SOL    HW154038   5.946   4.442   5.067  0.9296  0.9040 -0.1571
16750SOL    HW254039   5.968   4.549   4.963 -0.2335 -0.1194 -1.4851
16751SOL     OW54040   1.719   3.640   5.345 -0.4685  0.5729 -0.0425
16751SOL    HW154041   1.760   3.605   5.266  0.7292  1.0641  0.3406
16751SOL    HW254042   1.682   3.563   5.389 -2.0751  0.4216 -1.5783
16752SOL     OW54043  10.007   5.289   2.369  0.1143  0.2674 -0.5028
16752SOL    HW154044  10.050   5.290   2.454  1.0599 -0.5367 -0.9552
16752SOL    HW254045   9.915   5.269   2.389  0.6612 -1.7402  0.2108
16753SOL     OW54046   1.406   7.559   6.087 -0.1635  0.0138  0.2097
16753SOL    HW154047   1.354   7.566   6.007 -1.0381 -1.0919  0.6583
16753SOL    HW254048   1.479   7.619   6.073 -0.8746  0.6466 -0.9649
16754SOL     OW54049   6.856  10.168   4.197  0.3067 -0.2543  0.5868
16754SOL    HW154050   6.779  10.224   4.190 -1.5009 -2.6208  0.3382
16754SOL    HW254051   6.929  10.229   4.211 -1.1811  2.2976 -1.7378
16755SOL     OW54052   5.131   3.715   5.232  0.4204 -0.0748  0.4759
16755SOL    HW154053   5.091   3.767   5.302  1.8421  2.3822 -0.3963
16755SOL    HW254054   5.068   3.721   5.159  0.7750  0.8498  0.2344
16756SOL     OW54055   9.159   7.101  10.238  0.4646 -0.5907 -0.2410
16756SOL    HW154056   9.086   7.087  10.178  0.8608 -1.4306 -0.5477
16756SOL    HW254057   9.207   7.018  10.236 -0.0681 -1.0200  1.9916
16757SOL     OW54058   6.603   2.192   0.520  0.0873 -0.1199 -0.1414
16757SOL    HW154059   6.525   2.166   0.567  0.2677  0.9494  0.7935
16757SOL    HW254060   6.571   2.223   0.435 -0.3900 -0.7053 -0.1723
16758SOL     OW54061   8.234   3.884  10.332  0.2548 -0.2022  0.0453
16758SOL    HW154062   8.265   3.820  10.395 -0.2512 -1.3112 -0.8074
16758SOL    HW254063   8.235   3.838  10.248 -4.0712 -0.5616 -0.0426
16759SOL     OW54064   9.885   1.102   5.754 -0.1420 -0.5436  0.6993
16759SOL    HW154065   9.935   1.182   5.772  0.7547 -0.7959 -0.5554
16759SOL    HW254066   9.952   1.037   5.733 -0.9749 -0.6962 -1.7964
16760SOL     OW54067   2.106   7.789   2.195  0.5788 -0.1812 -0.0107
16760SOL    HW154068   2.047   7.715   2.211 -0.8673  1.0354  0.4918
16760SOL    HW254069   2.069   7.861   2.247  1.0773  1.3018 -1.6159
16761SOL     OW54070   3.777   0.394   3.620 -0.0939 -0.5691  0.3261
16761SOL    HW154071   3.688   0.372   3.591 -0.1211 -0.7119  0.5116
16761SOL    HW254072   3.831   0.386   3.542 -0.4452  0.7093 -0.0570
16762SOL     OW54073   0.110   1.689   8.835 -0.0369  0.7944 -0.0753
16762SOL    HW154074   0.178   1.622   8.837 -1.3248 -0.5602  0.0980
16762SOL    HW254075   0.144   1.759   8.892  0.7201 -0.3362  0.9010
16763SOL     OW54076   0.734   2.736   2.465  0.0932  0.6575  0.3129
16763SOL    HW154077   0.677   2.796   2.513  0.3604  0.5361  0.7856
16763SOL    HW254078   0.783   2.792   2.405 -1.5379  0.6231 -1.1527
16764SOL     OW54079   1.725   6.603   5.897 -0.1614  0.5155 -0.7196
16764SOL    HW154080   1.723   6.508   5.881 -0.4070  0.5188 -0.7077
16764SOL    HW254081   1.817   6.627   5.884 -0.0436  0.2257 -0.4296
16765SOL     OW54082   7.051   0.040   5.524 -0.7143  0.2159  0.1899
16765SOL    HW154083   7.041   0.077   5.437 -0.7777  1.1025  0.5682
16765SOL    HW254084   6.989   0.090   5.578  1.2511  1.5481  1.3068
16766SOL     OW54085   6.127   0.775   0.204  0.1583  0.4841 -0.0156
16766SOL    HW154086   6.120   0.684   0.177  0.2205 -0.1628  1.9725
16766SOL    HW254087   6.216   0.801   0.178 -1.0661  1.2889 -4.0485
16767SOL     OW54088   2.206   9.412   1.794  0.3434  0.2099 -0.4822
16767SOL    HW154089   2.183   9.327   1.830  1.3029  0.1327 -0.0075
16767SOL    HW254090   2.289   9.434   1.836  0.9747  0.6086 -1.8594
16768SOL     OW54091   6.433   3.354   4.873  0.3559  0.0761  0.2370
16768SOL    HW154092   6.524   3.332   4.891 -0.3718 -2.6949  1.0179
16768SOL    HW254093   6.393   3.364   4.960 -0.4761 -0.6322 -0.0545
16769SOL     OW54094   4.385   9.430   4.999  0.4252 -0.5058 -0.5157
16769SOL    HW154095   4.377   9.526   4.994  1.4414 -0.3207  0.8783
16769SOL    HW254096   4.295   9.399   4.992 -0.3978  0.7861  2.5723
16770SOL     OW54097   8.313   7.927   6.796  0.0249 -0.4991  0.3886
16770SOL    HW154098   8.308   7.869   6.872 -0.9972  1.4466  1.9040
16770SOL    HW254099   8.405   7.950   6.789  0.3871 -1.9842 -0.0110
16771SOL     OW54100   0.259   1.162   6.630  0.0196 -0.2890  0.0121
16771SOL    HW154101   0.245   1.079   6.674  0.0888  0.2561  1.0905
16771SOL    HW254102   0.255   1.141   6.537  2.7573 -2.0011  0.1689
16772SOL     OW54103   5.125   6.644   0.030 -0.3784 -0.5290 -0.1931
16772SOL    HW154104   5.077   6.694   0.095  1.2831 -0.8844  1.3954
16772SOL    HW254105   5.168   6.574   0.080  0.5576 -1.1204 -1.7349
16773SOL     OW54106   2.600   8.898   2.215 -0.3511 -0.6206 -0.2217
16773SOL    HW154107   2.520   8.887   2.266 -0.1174 -0.8502  0.1015
16773SOL    HW254108   2.670   8.905   2.280 -0.2276  0.6830 -0.4676
16774SOL     OW54109   3.254   6.324   3.503 -0.4246 -0.0366  0.3340
16774SOL    HW154110   3.259   6.228   3.502  1.0951 -0.0566  2.6703
16774SOL    HW254111   3.172   6.342   3.550  0.4396 -0.2545  1.9813
16775SOL     OW54112   9.327   7.025   7.508 -0.1080 -0.2579 -0.5277
16775SOL    HW154113   9.420   7.043   7.525  0.2368 -1.1288 -1.3832
16775SOL    HW254114   9.313   7.054   7.418 -0.9068  0.6815 -0.1152
16776SOL     OW54115   6.012   3.250   9.856 -0.4866 -0.1650 -0.2293
16776SOL    HW154116   5.921   3.218   9.851 -0.2980 -1.9072  3.6272
16776SOL    HW254117   6.005   3.344   9.842 -2.6879 -0.4033 -1.2684
16777SOL     OW54118   9.044   5.837   3.321 -0.3070  0.0483  0.1147
16777SOL    HW154119   9.063   5.804   3.408 -0.2950 -2.0674 -0.6441
16777SOL    HW254120   9.121   5.815   3.269 -0.6476  0.5485 -0.6271
16778SOL     OW54121   8.352   2.046   2.732  0.2967  0.1860 -0.5421
16778SOL    HW154122   8.411   2.081   2.798 -0.2910 -1.1272  0.7326
16778SOL    HW254123   8.371   1.952   2.729 -0.3397  0.0639 -1.5722
16779SOL     OW54124   0.084   5.314   9.909 -0.0619  0.0110  0.7804
16779SOL    HW154125   0.156   5.307   9.972 -1.0181  1.1741  2.0613
16779SOL    HW254126   0.098   5.398   9.865  0.8079 -0.9540 -0.8996
16780SOL     OW54127   9.871   7.100   5.654 -0.2280 -0.2657  0.1278
16780SOL    HW154128   9.966   7.098   5.662 -0.0578 -0.7855 -1.6357
16780SOL    HW254129   9.839   7.060   5.736  1.0983 -0.9457  0.3393
16781SOL     OW54130   7.362   6.305   8.508  0.4384 -0.2729  0.7677
16781SOL    HW154131   7.382   6.378   8.567 -0.8199 -0.3686  1.3534
16781SOL    HW254132   7.293   6.340   8.451 -0.3700 -1.0579  1.2284
16782SOL     OW54133   2.582   9.966   2.467  0.1152  0.1021  0.5523
16782SOL    HW154134   2.552   9.875   2.472 -0.1061  0.1924  0.8692
16782SOL    HW254135   2.590   9.982   2.373  1.1016 -0.5492  0.5087
16783SOL     OW54136   6.359   3.433   6.836 -0.4039 -0.0312  0.0578
16783SOL    HW154137   6.323   3.517   6.864 -0.5837 -0.0719 -0.0477
16783SOL    HW254138   6.306   3.368   6.882 -0.8834 -0.1045 -0.5756
16784SOL     OW54139   0.157   7.986   7.822  0.0343  0.9048 -0.8660
16784SOL    HW154140   0.158   8.009   7.915 -0.9251  1.3142 -0.9508
16784SOL    HW254141   0.239   7.938   7.809 -0.9896 -1.4716  0.7520
16785SOL     OW54142   1.641   9.983   2.026  0.3955 -0.4066 -0.3795
16785SOL    HW154143   1.589  10.063   2.025 -0.9814 -1.2640 -0.8368
16785SOL    HW254144   1.728  10.011   2.053  0.2232  1.4022 -1.5049
16786SOL     OW54145   8.741   2.115   2.487 -0.0926 -0.6272  0.0409
16786SOL    HW154146   8.700   2.110   2.573 -2.5099  0.8065 -0.9439
16786SOL    HW254147   8.731   2.207   2.461 -0.5792 -1.2722 -2.2772
16787SOL     OW54148  10.065   3.308   4.907 -0.0410  0.5814 -0.5341
16787SOL    HW154149  10.127   3.261   4.964 -0.0213  1.3251  0.0721
16787SOL    HW254150  10.024   3.239   4.856  2.4305  0.1650 -2.1410
16788SOL     OW54151   4.326   5.401   4.712 -0.0292  0.1351 -0.5559
16788SOL    HW154152   4.333   5.327   4.772 -2.3360  0.6662  0.4555
16788SOL    HW254153   4.321   5.361   4.625  0.2385 -0.8173 -0.1437
16789SOL     OW54154   8.661   6.339   6.531 -0.1924  0.1087  0.0015
16789SOL    HW154155   8.567   6.347   6.546 -0.4128  0.9449 -1.5990
16789SOL    HW254156   8.670   6.258   6.481 -0.3779  1.2608 -1.9764
16790SOL     OW54157   1.658   5.968   8.653  0.2976  0.0559  0.6489
16790SOL    HW154158   1.675   5.909   8.726 -3.2472  1.0803  2.5189
16790SOL    HW254159   1.686   6.054   8.684  0.5793  0.2057  0.0036
16791SOL     OW54160   6.426   1.819   7.382  0.1740  0.0225  0.0285
16791SOL    HW154161   6.380   1.750   7.334  1.6862 -1.4136  0.5130
16791SOL    HW254162   6.407   1.800   7.474  0.1618  0.5881  0.1431
16792SOL     OW54163   9.609   5.189   3.803  0.3278 -0.0911  0.2088
16792SOL    HW154164   9.653   5.259   3.852 -1.0834  0.4503  0.7629
16792SOL    HW254165   9.646   5.108   3.838  2.7226  0.3274 -1.1382
16793SOL     OW54166   9.040   0.674   1.122  0.0408  0.1616 -0.3809
16793SOL    HW154167   8.948   0.679   1.096 -0.8212 -0.1413  2.2921
16793SOL    HW254168   9.067   0.765   1.131 -0.1603  0.2536 -0.7014
16794SOL     OW54169   6.855   9.396   0.581 -0.1721 -0.2106 -0.0584
16794SOL    HW154170   6.949   9.383   0.577 -0.1852 -0.4097  0.1804
16794SOL    HW254171   6.824   9.327   0.640 -0.2835  0.7793  1.0899
16795SOL     OW54172   5.083   4.464   0.139 -0.0172 -0.0750 -0.0240
16795SOL    HW154173   5.119   4.480   0.052 -1.6175 -0.8783 -0.8877
16795SOL    HW254174   5.139   4.396   0.176 -0.0594 -0.6413 -0.9606
16796SOL     OW54175   1.385   1.550   8.428  0.1328  0.1751 -0.5479
16796SOL    HW154176   1.442   1.627   8.431  1.0665 -0.5439  0.7694
16796SOL    HW254177   1.297   1.586   8.423  0.5174  1.3428  0.7105
16797SOL     OW54178   4.327   6.393   8.824  0.7229  0.6342 -0.1088
16797SOL    HW154179   4.234   6.409   8.808 -0.1388 -1.9874  1.6366
16797SOL    HW254180   4.352   6.328   8.758  1.7622  2.3037 -1.4477
16798SOL     OW54181   1.003   1.207   6.502  0.6725  0.3083  0.4210
16798SOL    HW154182   0.920   1.160   6.510 -0.0150  1.6613  2.0469
16798SOL    HW254183   1.066   1.142   6.472 -0.6822 -1.0916  0.5219
16799SOL     OW54184   0.882   3.029   1.139 -0.1864 -0.2329 -0.1680
16799SOL    HW154185   0.870   2.935   1.156 -2.3825 -0.0002 -0.2261
16799SOL    HW254186   0.977   3.039   1.132  0.3176 -1.9617  2.5613
16800SOL     OW54187   6.945   1.339   4.781 -0.1700 -0.0860 -0.4734
16800SOL    HW154188   6.997   1.262   4.755  3.5234  1.4758  1.5464
16800SOL    HW254189   6.872   1.303   4.831  1.6278 -2.3251  0.7135
16801SOL     OW54190   8.459   2.690   7.538  0.2012 -0.0457  0.4541
16801SOL    HW154191   8.410   2.659   7.462  0.4966  0.9131 -0.1317
16801SOL    HW254192   8.488   2.609   7.582 -0.2555 -0.6050 -0.2533
16802SOL     OW54193   0.820   3.245   2.632  0.6942  0.1275 -0.3037
16802SOL    HW154194   0.887   3.220   2.696  1.0959  2.2540  0.1953
16802SOL    HW254195   0.869   3.264   2.553  0.3095 -1.3985 -0.9390
16803SOL     OW54196   8.988   3.897   1.045  0.0747  0.0330 -0.1571
16803SOL    HW154197   9.053   3.915   0.978  0.5317 -0.9023  0.0126
16803SOL    HW254198   9.022   3.938   1.124  0.5719 -0.6183 -0.0229
16804SOL     OW54199   9.104   5.731   3.574 -0.3135 -0.5390 -0.6025
16804SOL    HW154200   9.071   5.645   3.548  0.5552 -1.0342 -0.1013
16804SOL    HW254201   9.095   5.731   3.670  1.3325 -0.7795 -0.4270
16805SOL     OW54202   0.685   5.837   1.707 -0.1856  0.2756  0.2906
16805SOL    HW154203   0.757   5.775   1.719 -0.2913  0.0686 -0.1062
16805SOL    HW254204   0.607   5.782   1.696 -0.7840  0.5081  2.7844
16806SOL     OW54205   2.878   3.594   2.129  0.2412 -0.2705 -0.7148
16806SOL    HW154206   2.796   3.613   2.084  0.9362  0.6979 -1.6029
16806SOL    HW254207   2.913   3.517   2.084 -0.3420 -0.9141 -0.0935
16807SOL     OW54208   3.679   2.013   0.305  0.3804  0.6658  0.2399
16807SOL    HW154209   3.671   2.098   0.262 -1.0476 -0.3611 -1.7021
16807SOL    HW254210   3.606   1.961   0.270  1.5901 -1.5642  0.8181
16808SOL     OW54211   3.036   2.008   8.294 -0.5132 -0.0760  0.1187
16808SOL    HW154212   2.978   2.023   8.219 -0.3227 -1.7619 -0.4128
16808SOL    HW254213   3.012   1.921   8.325  0.6501 -0.1384  0.8803
16809SOL     OW54214   2.831   6.974   4.406 -0.1488 -0.1580 -0.1593
16809SOL    HW154215   2.817   6.987   4.500 -1.6265  0.0253 -0.3883
16809SOL    HW254216   2.746   6.991   4.366  0.5452  0.1209 -1.5811
16810SOL     OW54217   3.228   2.120   5.594  0.1093 -0.2068  0.2088
16810SOL    HW154218   3.138   2.135   5.621  0.1982  1.3918 -0.2899
16810SOL    HW254219   3.233   2.025   5.579 -1.1316 -0.4983  1.4118
16811SOL     OW54220   6.218   8.284   2.660 -0.0191 -0.0845 -0.5618
16811SOL    HW154221   6.245   8.225   2.729 -1.0091  0.9405  0.7639
16811SOL    HW254222   6.124   8.270   2.652  0.0887 -0.2534 -1.7964
16812SOL     OW54223   7.413   2.134   2.607 -0.4261  0.3596 -0.1884
16812SOL    HW154224   7.416   2.199   2.537 -0.3201  0.6351  0.0712
16812SOL    HW254225   7.369   2.058   2.567  0.5474  0.1322 -0.8612
16813SOL     OW54226   3.386   6.060   3.494 -0.3997  0.2880 -0.0677
16813SOL    HW154227   3.307   6.011   3.516  0.2035  0.6259  3.3599
16813SOL    HW254228   3.417   6.020   3.413 -1.8563 -2.6443  0.6884
16814SOL     OW54229   1.374   2.372   1.058 -0.0390 -0.4156 -0.2125
16814SOL    HW154230   1.291   2.377   1.009 -0.9205 -1.4677  1.1175
16814SOL    HW254231   1.401   2.281   1.050  0.6467 -0.2338 -0.0404
16815SOL     OW54232   3.498   0.346   3.268 -0.6352 -0.4825  0.5507
16815SOL    HW154233   3.549   0.266   3.255  0.4792  0.0390  1.4958
16815SOL    HW254234   3.407   0.320   3.253 -0.0812 -1.3375 -1.6337
16816SOL     OW54235   3.991   6.076   7.395  0.3103  0.1229  0.2486
16816SOL    HW154236   3.907   6.121   7.387  0.1752  0.1001  1.3050
16816SOL    HW254237   3.976   6.012   7.465  1.6569  1.2324  1.6155
16817SOL     OW54238   4.773   0.457  10.109 -0.5121  0.1964  0.1705
16817SOL    HW154239   4.771   0.362  10.122  1.4077 -0.1701 -1.6279
16817SOL    HW254240   4.689   0.487  10.143 -1.7023 -2.2900 -0.3048
16818SOL     OW54241   9.296   7.201   0.314  0.3152 -0.1604  0.3743
16818SOL    HW154242   9.232   7.209   0.243  0.0185 -1.5248  0.4508
16818SOL    HW254243   9.311   7.291   0.343  0.8938  0.4914 -1.7843
16819SOL     OW54244   2.529   6.397   5.576  0.3737  0.2996  0.1899
16819SOL    HW154245   2.521   6.366   5.666  1.4563  1.6424  0.7871
16819SOL    HW254246   2.441   6.425   5.553  0.3644  1.3413  1.3913
16820SOL     OW54247   7.880   4.955   7.332  0.1912 -0.8773  0.3000
16820SOL    HW154248   7.851   4.985   7.246 -0.2495 -0.1308  0.6954
16820SOL    HW254249   7.887   5.036   7.384  0.6052 -1.3007  0.9187
16821SOL     OW54250   1.368   3.685   1.503  0.1245 -0.5112  0.3506
16821SOL    HW154251   1.456   3.650   1.511  0.4077  0.2257  0.5305
16821SOL    HW254252   1.314   3.610   1.479  0.3124 -1.5678  2.9184
16822SOL     OW54253   5.865  10.300   3.306 -0.1397  0.3442  0.9849
16822SOL    HW154254   5.953  10.336   3.300 -0.6614  1.5074 -0.2088
16822SOL    HW254255   5.872  10.211   3.269  0.2433  1.0053 -0.6162
16823SOL     OW54256   7.437   9.046   1.016  0.2048  0.7254 -0.0544
16823SOL    HW154257   7.530   9.022   1.016  0.2772  0.9576  1.0175
16823SOL    HW254258   7.391   8.965   0.994  0.5214 -0.1880  2.2771
16824SOL     OW54259   1.104   1.670   7.048  0.0301  0.0109  0.3175
16824SOL    HW154260   1.138   1.622   7.124 -1.7651 -0.3541  0.9363
16824SOL    HW254261   1.009   1.666   7.058 -0.2251  2.8264 -0.1642
16825SOL     OW54262   0.798   6.515   2.645  0.4422  0.2949 -0.1862
16825SOL    HW154263   0.801   6.605   2.614 -1.8897  0.5732  0.2813
16825SOL    HW254264   0.782   6.522   2.740  1.7972 -0.6197  0.1471
16826SOL     OW54265   9.291   4.457   5.054  0.2235 -0.1111  0.0736
16826SOL    HW154266   9.370   4.414   5.086 -0.3847 -2.4039 -1.2524
16826SOL    HW254267   9.291   4.440   4.959 -1.9012 -0.3236  0.0548
16827SOL     OW54268   9.550   8.357   7.646  0.5976  0.2926 -0.4625
16827SOL    HW154269   9.598   8.364   7.729 -0.1670 -1.5497  0.2027
16827SOL    HW254270   9.585   8.278   7.606 -2.1287 -1.4234  0.2976
16828SOL     OW54271   1.334   6.645   5.616  0.2343 -0.0139  0.5202
16828SOL    HW154272   1.260   6.649   5.676  0.0302  0.5379  0.2356
16828SOL    HW254273   1.384   6.724   5.633  0.5110 -0.1619  0.3979
16829SOL     OW54274   2.772   5.837   4.748  0.1051 -0.1628 -0.1749
16829SOL    HW154275   2.840   5.904   4.733  0.0766 -0.2993 -0.9374
16829SOL    HW254276   2.751   5.805   4.661 -2.0458  0.9406 -0.1213
16830SOL     OW54277   5.494   1.562   4.281 -0.3694 -0.2763 -0.2192
16830SOL    HW154278   5.517   1.640   4.231  1.5576 -0.2430  0.6037
16830SOL    HW254279   5.437   1.594   4.351 -1.7154 -0.0661 -1.3726
16831SOL     OW54280   7.034   9.219   7.948  0.2234  0.0295 -0.4288
16831SOL    HW154281   6.961   9.164   7.921 -0.4058  0.2891  0.6644
16831SOL    HW254282   7.111   9.162   7.940  0.1694  0.1978 -3.0108
16832SOL     OW54283   8.585   8.302   5.227 -0.2632 -0.1690 -0.4804
16832SOL    HW154284   8.672   8.265   5.246 -0.2488 -0.1585 -0.5250
16832SOL    HW254285   8.526   8.255   5.286 -0.1812  0.0509 -0.2187
16833SOL     OW54286   9.131   1.355   1.824 -0.4984  0.2076  0.8565
16833SOL    HW154287   9.098   1.381   1.910 -0.3549 -0.1200  1.0131
16833SOL    HW254288   9.172   1.434   1.788  0.6826 -0.0154  1.6751
16834SOL     OW54289   0.942   2.915   6.103 -0.2223 -0.5132 -0.3371
16834SOL    HW154290   1.015   2.864   6.140  0.0549 -0.0359 -0.2121
16834SOL    HW254291   0.864   2.864   6.124  0.1041 -1.2058 -0.7799
16835SOL     OW54292   8.558   4.557   5.298 -0.0298 -0.1673  0.1707
16835SOL    HW154293   8.616   4.618   5.342  0.9644 -1.3552  0.5762
16835SOL    HW254294   8.616   4.505   5.242 -0.7112 -1.2535  0.4321
16836SOL     OW54295   0.398   7.849   5.172 -0.7420 -0.2936  0.1896
16836SOL    HW154296   0.400   7.902   5.092  0.4717  0.8334  0.9253
16836SOL    HW254297   0.411   7.759   5.141 -0.3713  0.1115 -0.8840
16837SOL     OW54298  10.104   1.764   9.949  0.2885  0.5283  0.2092
16837SOL    HW154299  10.062   1.776  10.034  0.5960  0.9299  0.3073
16837SOL    HW254300  10.182   1.713   9.968  0.0595  0.1266  0.0841
16838SOL     OW54301   8.946   4.670   7.880  0.5238  0.3838  0.1506
16838SOL    HW154302   8.929   4.759   7.848 -4.0303 -0.1387  0.5051
16838SOL    HW254303   8.948   4.617   7.801 -0.1445  0.4235  0.0983
16839SOL     OW54304  10.220   9.010   8.856  0.0181  0.1539  0.1322
16839SOL    HW154305  10.258   9.088   8.895  0.9950 -0.2805  0.0900
16839SOL    HW254306  10.291   8.973   8.802 -0.9095  0.0952 -1.1010
16840SOL     OW54307   3.757   0.830   0.366  0.0303  0.2226  0.1548
16840SOL    HW154308   3.709   0.776   0.303 -1.2667  1.1686  0.2763
16840SOL    HW254309   3.692   0.892   0.398  1.4296  1.7791  0.1121
16841SOL     OW54310   1.469   5.670   5.909  0.1075 -0.2947 -0.3818
16841SOL    HW154311   1.494   5.607   5.977  0.9175  1.2446  0.8154
16841SOL    HW254312   1.537   5.662   5.843  0.9255  0.1761  0.3739
16842SOL     OW54313   2.104   6.693   5.376  0.2325  0.0510 -0.0558
16842SOL    HW154314   2.009   6.684   5.370 -0.1398  2.4306  1.1163
16842SOL    HW254315   2.132   6.619   5.430 -0.9618 -0.6022 -0.3070
16843SOL     OW54316   4.224   5.556   4.915 -0.4804  0.2644 -0.0357
16843SOL    HW154317   4.274   5.518   4.843  1.3279  0.2692  1.1309
16843SOL    HW254318   4.289   5.606   4.964 -2.2027  2.4774  0.1147
16844SOL     OW54319   9.740   2.468   6.059  0.3523 -0.2170  0.0975
16844SOL    HW154320   9.684   2.512   5.995  1.0341  0.6030  0.0345
16844SOL    HW254321   9.828   2.471   6.020  0.7812  0.3123  1.0603
16845SOL     OW54322   1.212  10.175  10.302 -0.4666 -0.8534  0.1737
16845SOL    HW154323   1.204  10.090  10.345 -1.6685 -0.9335 -0.1888
16845SOL    HW254324   1.162  10.235  10.358  1.2308 -0.1509  0.9991
16846SOL     OW54325   7.897   5.169   0.282  0.2623  0.1745  0.2272
16846SOL    HW154326   7.929   5.128   0.362  1.0764 -1.1829 -0.7362
16846SOL    HW254327   7.828   5.109   0.251  0.2688  0.4436 -0.3175
16847SOL     OW54328   1.142  10.190  10.038 -0.4194  0.0126  0.6699
16847SOL    HW154329   1.163  10.107   9.995  0.6158  0.5566  0.0965
16847SOL    HW254330   1.174  10.180  10.127 -1.2619 -0.5855  0.9182
16848SOL     OW54331   1.124   7.165   3.751  0.7472 -0.1636  0.0552
16848SOL    HW154332   1.036   7.203   3.759  0.4317 -1.0493  0.9160
16848SOL    HW254333   1.110   7.075   3.724  1.4024 -0.2582  0.0003
16849SOL     OW54334   2.855   5.076   8.064 -0.2407  0.1483  0.0002
16849SOL    HW154335   2.946   5.085   8.093 -0.4183 -1.1416  1.0509
16849SOL    HW254336   2.819   5.165   8.068  0.8634  0.6133 -0.0910
16850SOL     OW54337   1.891   8.743   9.320  0.2966 -0.1540  0.0328
16850SOL    HW154338   1.944   8.690   9.380  0.9514 -2.0005 -2.0556
16850SOL    HW254339   1.879   8.688   9.243 -2.2405  1.3414 -0.7681
16851SOL     OW54340   8.017   9.989   1.960  0.0168 -0.6428  0.8689
16851SOL    HW154341   7.941  10.023   2.007  0.0987  0.3213  0.3331
16851SOL    HW254342   8.076   9.959   2.029  0.1201  0.7143  1.3913
16852SOL     OW54343   3.270   6.592   9.829 -0.3947  0.8169 -0.6909
16852SOL    HW154344   3.351   6.569   9.875 -1.2611  3.2708  2.3791
16852SOL    HW254345   3.212   6.518   9.847  0.6393 -0.2758 -1.6627
16853SOL     OW54346  10.184   0.566   5.631 -0.0969  0.3125 -0.0750
16853SOL    HW154347  10.153   0.620   5.559  0.9981  0.4889 -0.4337
16853SOL    HW254348  10.130   0.487   5.627 -0.6397  0.7020 -0.5285
16854SOL     OW54349   2.890   3.409   1.122  0.3445  0.3122  0.5142
16854SOL    HW154350   2.818   3.397   1.184 -1.3348  0.0794 -1.3719
16854SOL    HW254351   2.889   3.503   1.101  0.6173  0.3176  0.5198
16855SOL     OW54352   7.239   7.447   9.558  0.3810  0.1245 -0.1348
16855SOL    HW154353   7.326   7.432   9.522 -0.0618  1.8363 -2.1315
16855SOL    HW254354   7.179   7.415   9.491 -0.5849 -1.3722  1.3684
16856SOL     OW54355   3.885   0.295  10.283 -0.0326  0.1908  0.4501
16856SOL    HW154356   3.922   0.214  10.246 -0.4845 -0.9181  2.2850
16856SOL    HW254357   3.931   0.365  10.238  0.7117 -1.0991 -0.8840
16857SOL     OW54358   7.644   7.959   5.169  0.4348 -0.5436 -0.0901
16857SOL    HW154359   7.704   8.013   5.117 -2.2393  1.2903 -1.4747
16857SOL    HW254360   7.689   7.876   5.178  3.1305  0.6813 -1.1233
16858SOL     OW54361   4.667   3.613   4.676 -0.0372 -0.2741 -0.4382
16858SOL    HW154362   4.701   3.548   4.738  1.3924  0.9055  0.0805
16858SOL    HW254363   4.737   3.625   4.613  0.2942  1.6995  0.2304
16859SOL     OW54364   2.032   2.653   7.738  0.1241  0.2588  0.5983
16859SOL    HW154365   2.080   2.732   7.760 -0.7033  0.5888  1.2833
16859SOL    HW254366   1.941   2.672   7.762 -0.1874 -0.6884  0.2364
16860SOL     OW54367   8.851   2.482  10.300 -0.2285  0.3594  0.1475
16860SOL    HW154368   8.814   2.553  10.354  1.8103 -0.1747  2.3946
16860SOL    HW254369   8.848   2.405  10.356 -1.2381 -1.1361 -1.8154
16861SOL     OW54370   8.205   7.315  10.068 -0.1080  0.0173 -0.0774
16861SOL    HW154371   8.150   7.369  10.011  0.7837 -0.3466 -1.3310
16861SOL    HW254372   8.220   7.234  10.018 -1.3021 -1.3770  1.7035
16862SOL     OW54373   5.943   1.908   2.756  0.5066 -0.4980 -0.4783
16862SOL    HW154374   5.968   1.969   2.825  0.1403 -2.1971  1.2285
16862SOL    HW254375   6.021   1.856   2.740  0.4170 -0.4917 -0.9595
16863SOL     OW54376   3.915   3.675   0.130 -0.0299 -0.2177 -0.1595
16863SOL    HW154377   3.872   3.755   0.100  2.3588  0.8095 -1.1500
16863SOL    HW254378   3.958   3.701   0.212 -1.6629 -1.3923  1.1591
16864SOL     OW54379   6.939   3.789   8.833  0.2137  0.1967  0.2089
16864SOL    HW154380   6.945   3.798   8.738 -4.0050  0.4646 -0.2090
16864SOL    HW254381   6.961   3.697   8.849  0.2595 -0.0542 -1.1288
16865SOL     OW54382   7.898   1.621   3.294  0.1268  0.3418  0.2635
16865SOL    HW154383   7.829   1.577   3.344 -0.6548  0.4134 -0.7158
16865SOL    HW254384   7.920   1.560   3.224 -0.0700  0.9587 -0.3522
16866SOL     OW54385   9.582   6.513   4.687  0.2047 -0.0610  0.3492
16866SOL    HW154386   9.570   6.607   4.675 -0.7506 -0.2288 -0.1397
16866SOL    HW254387   9.533   6.492   4.766  0.3187 -0.1711  0.3912
16867SOL     OW54388  10.258  10.210   9.180  0.6771  0.8967  0.5226
16867SOL    HW154389  10.212  10.197   9.097  2.0276  1.2077 -0.3070
16867SOL    HW254390  10.342  10.249   9.155  0.8941  1.5060  2.0828
16868SOL     OW54391   9.858   2.258   7.297  0.5584 -0.5258 -0.5065
16868SOL    HW154392   9.785   2.233   7.354 -0.4259  1.7771 -0.6486
16868SOL    HW254393   9.821   2.253   7.208  0.2051  1.6135 -0.5160
16869SOL     OW54394   5.665   1.381   3.441  0.1602 -0.1244  0.0615
16869SOL    HW154395   5.603   1.347   3.376  0.8744 -0.5045 -0.4418
16869SOL    HW254396   5.610   1.421   3.508 -0.6484 -0.9514 -0.0822
16870SOL     OW54397   8.077   9.022   1.634  0.0635 -0.2619  0.1551
16870SOL    HW154398   8.028   8.951   1.674 -1.1906  0.2029 -0.5002
16870SOL    HW254399   8.012   9.091   1.620  1.6190  2.0106  2.9511
16871SOL     OW54400   0.443   7.958   2.268 -0.3682  0.2048  0.3926
16871SOL    HW154401   0.494   8.039   2.265  1.7062 -1.0679 -0.5279
16871SOL    HW254402   0.485   7.907   2.337 -0.5963 -0.7486 -0.1646
16872SOL     OW54403   7.610   2.420   0.630 -0.7725  0.3369  0.2013
16872SOL    HW154404   7.566   2.349   0.583  1.7499 -0.6118 -0.9481
16872SOL    HW254405   7.634   2.382   0.714  2.0950 -0.9160 -1.0511
16873SOL     OW54406   8.419   5.324   4.966 -0.2317 -0.0606  0.1461
16873SOL    HW154407   8.468   5.391   5.014  0.7641  0.4533 -1.4948
16873SOL    HW254408   8.327   5.349   4.978  0.0655  0.8586  0.6114
16874SOL     OW54409   1.519   3.160   2.133 -0.2561 -0.5237  0.2572
16874SOL    HW154410   1.540   3.251   2.113  0.9448 -0.8837 -0.1616
16874SOL    HW254411   1.568   3.140   2.212  2.7835 -1.9406 -1.7698
16875SOL     OW54412   7.247   2.994   1.823  0.9209 -0.2684 -0.2071
16875SOL    HW154413   7.294   2.929   1.875  0.0853 -0.2672  0.5820
16875SOL    HW254414   7.178   3.026   1.881 -0.3425 -0.5973 -1.4616
16876SOL     OW54415   4.153   0.785   3.199 -0.3342 -0.2977  0.2779
16876SOL    HW154416   4.216   0.814   3.133 -0.7920 -1.4854 -0.7298
16876SOL    HW254417   4.194   0.709   3.241 -0.0055  0.5072  1.4511
16877SOL     OW54418   1.100   1.822   1.984  0.0789 -0.2122  0.9491
16877SOL    HW154419   1.063   1.760   2.047 -0.9426 -0.1883  0.3881
16877SOL    HW254420   1.107   1.772   1.902 -1.5366  0.6131  0.2682
16878SOL     OW54421   0.311   7.308   0.122 -0.5182  0.3788 -0.2566
16878SOL    HW154422   0.311   7.378   0.187  0.1188  1.5494 -1.4632
16878SOL    HW254423   0.254   7.240   0.159 -1.0336  1.4700  1.0080
16879SOL     OW54424   1.489   8.212   2.612  0.2659 -0.3495 -0.8325
16879SOL    HW154425   1.446   8.297   2.600  0.1116 -0.4436 -0.9496
16879SOL    HW254426   1.580   8.228   2.589 -0.0481 -0.5606 -2.3042
16880SOL     OW54427   0.681   6.792   7.963  0.2704 -0.6526 -0.3037
16880SOL    HW154428   0.592   6.824   7.949  0.4062  0.6763  1.4732
16880SOL    HW254429   0.736   6.845   7.905 -0.0064 -0.9433 -0.8353
16881SOL     OW54430   7.443   4.611   0.455  0.3753  0.3346 -0.6535
16881SOL    HW154431   7.538   4.608   0.459  0.7546  3.5537 -2.9984
16881SOL    HW254432   7.422   4.573   0.370 -0.2241  1.2293 -0.9244
16882SOL     OW54433   0.537   7.092   7.620 -0.4757 -0.4005  0.2817
16882SOL    HW154434   0.617   7.123   7.578 -0.7747 -0.4852 -0.3609
16882SOL    HW254435   0.559   7.004   7.653  0.1306  0.1562  1.4109
16883SOL     OW54436   8.623   4.583   0.552 -0.5412 -0.8587  0.2680
16883SOL    HW154437   8.636   4.635   0.632  0.8335  2.2042 -1.7296
16883SOL    HW254438   8.546   4.621   0.511  0.1529 -0.7641 -0.9864
16884SOL     OW54439   1.645   3.369   4.114  0.1232  0.0644 -0.8766
16884SOL    HW154440   1.565   3.348   4.067 -0.2166 -3.6994  1.0235
16884SOL    HW254441   1.617   3.421   4.188 -0.2393  0.4623 -1.2874
16885SOL     OW54442   5.473   1.380   7.779 -0.1704 -0.5968 -0.0820
16885SOL    HW154443   5.540   1.343   7.722 -0.9011 -0.3638 -1.1001
16885SOL    HW254444   5.523   1.422   7.850  0.7166 -1.4783 -0.1708
16886SOL     OW54445   0.547   7.683   9.500 -0.2972  0.1633 -0.5059
16886SOL    HW154446   0.470   7.738   9.487 -0.7652 -1.0656 -3.6835
16886SOL    HW254447   0.620   7.735   9.467 -0.2767  0.0458 -0.6460
16887SOL     OW54448   7.270   2.100   0.100  0.0507 -0.5023 -0.8709
16887SOL    HW154449   7.362   2.086   0.082 -0.1674 -2.7609 -0.4716
16887SOL    HW254450   7.250   2.040   0.172 -1.6776  0.1395 -0.7634
16888SOL     OW54451   7.128   8.256   9.875 -0.1328 -0.2650  0.4557
16888SOL    HW154452   7.192   8.241   9.805 -0.4386  0.6845 -0.0422
16888SOL    HW254453   7.169   8.323   9.931  0.0300 -0.8840  1.0914
16889SOL     OW54454   9.754   7.963   0.052 -0.1801  0.3507 -0.1335
16889SOL    HW154455   9.833   7.996   0.095 -0.5879  0.0363  0.8932
16889SOL    HW254456   9.787   7.910  -0.021  0.5218  1.0905 -0.3740
16890SOL     OW54457   9.836   5.440   4.365 -0.5109 -0.3305 -0.4560
16890SOL    HW154458   9.793   5.501   4.305 -2.4890 -3.2656 -2.2784
16890SOL    HW254459   9.929   5.451   4.348 -0.8604  1.2859 -1.5750
16891SOL     OW54460   1.965   2.829   8.539 -0.2222 -0.6887 -0.2767
16891SOL    HW154461   1.975   2.921   8.563  1.2441 -1.1601  1.1529
16891SOL    HW254462   1.910   2.830   8.461  0.9093  1.5005 -1.1408
16892SOL     OW54463   4.532   1.184   5.064  0.0622  0.0468 -0.2640
16892SOL    HW154464   4.626   1.200   5.065  0.1621 -0.3998 -1.0664
16892SOL    HW254465   4.517   1.123   5.136  0.3976  0.0679 -0.1736
16893SOL     OW54466   1.901   6.740   7.824 -0.0121  0.1219 -0.2107
16893SOL    HW154467   1.829   6.709   7.880 -0.1531 -0.4469 -0.7029
16893SOL    HW254468   1.866   6.820   7.783 -0.7697 -0.7096 -1.2513
16894SOL     OW54469   4.272   8.915   2.340  0.2797 -0.3431 -0.0649
16894SOL    HW154470   4.284   8.910   2.245 -0.4396 -1.5088 -0.1107
16894SOL    HW254471   4.181   8.887   2.354  0.0397  0.8285  0.8888
16895SOL     OW54472   7.326   9.737   5.887 -0.4220 -0.0402  0.2878
16895SOL    HW154473   7.268   9.734   5.963  1.3804 -2.3771  1.7276
16895SOL    HW254474   7.390   9.805   5.909 -0.3428 -0.1912  0.5307
16896SOL     OW54475   3.495   6.906   8.536 -0.2047  0.1799  0.1915
16896SOL    HW154476   3.428   6.899   8.605 -0.3369 -0.3807  0.0111
16896SOL    HW254477   3.493   6.998   8.510 -1.2237  0.0814 -0.1261
16897SOL     OW54478   3.125   8.224   4.733 -0.0852 -0.0599  0.2536
16897SOL    HW154479   3.043   8.230   4.783 -0.6348  1.3407 -0.7684
16897SOL    HW254480   3.123   8.299   4.674  2.0711  0.1493  0.3784
16898SOL     OW54481   6.094   5.637   4.839  0.4452  0.1829  0.0875
16898SOL    HW154482   6.112   5.680   4.922  0.9767  1.2538 -0.5523
16898SOL    HW254483   6.066   5.549   4.863  0.4474  0.5152  1.3952
16899SOL     OW54484   6.357   4.576   6.656  0.0444  0.5270 -0.2102
16899SOL    HW154485   6.341   4.482   6.653  0.4740  0.4699 -1.4658
16899SOL    HW254486   6.296   4.613   6.592  0.8301  0.9255 -0.7511
16900SOL     OW54487   2.345   3.181   2.241 -0.3099  0.3449 -0.0429
16900SOL    HW154488   2.316   3.101   2.285 -0.8116  0.3264 -0.4022
16900SOL    HW254489   2.386   3.151   2.160  1.3100  0.3288  0.7563
16901SOL     OW54490   6.969   4.840   1.967 -0.1679  0.4489 -0.2530
16901SOL    HW154491   7.049   4.809   1.925  0.3637  1.8051 -0.2782
16901SOL    HW254492   6.899   4.790   1.925  0.6837 -1.1159  0.1195
16902SOL     OW54493   6.827   9.000   6.525 -0.0435 -0.1740  0.0380
16902SOL    HW154494   6.764   9.060   6.485 -0.4979 -1.4698 -1.2910
16902SOL    HW254495   6.891   8.982   6.456  0.8022 -0.2392  0.8223
16903SOL     OW54496   7.078   7.140   7.408 -0.1518  0.3191 -0.4811
16903SOL    HW154497   7.026   7.063   7.428  0.7714  0.1555  1.4835
16903SOL    HW254498   7.112   7.124   7.320 -1.1518 -0.8243 -0.6729
16904SOL     OW54499   6.834   7.100   8.663  0.1090 -0.0545  0.4654
16904SOL    HW154500   6.925   7.117   8.690  0.0756  1.7840 -0.4168
16904SOL    HW254501   6.841   7.024   8.605  1.2578  0.7102 -0.4471
16905SOL     OW54502   2.692   7.782   3.062 -0.1835 -0.7587  0.0264
16905SOL    HW154503   2.659   7.717   3.001 -0.4631 -0.9601  0.3884
16905SOL    HW254504   2.727   7.852   3.007  0.1992 -1.2528 -0.3642
16906SOL     OW54505   8.713   0.092   7.090  0.6824  0.1473  0.0616
16906SOL    HW154506   8.797   0.067   7.052  0.5676  0.7947 -0.6390
16906SOL    HW254507   8.734   0.167   7.146  0.4177  1.0263 -0.9839
16907SOL     OW54508   0.278   1.604   2.073 -0.7136 -0.4312 -0.4143
16907SOL    HW154509   0.242   1.571   1.991 -1.3098 -1.2343  0.1446
16907SOL    HW254510   0.265   1.532   2.135 -2.3584  0.9436  0.9478
16908SOL     OW54511   2.574   3.109   9.248 -0.2604 -0.0384 -0.1003
16908SOL    HW154512   2.510   3.179   9.234 -1.1285 -1.0401 -1.2437
16908SOL    HW254513   2.546   3.066   9.329  0.5249  1.1572  0.8515
16909SOL     OW54514   1.963   0.688   9.776 -0.2166  0.1209 -0.1695
16909SOL    HW154515   1.954   0.770   9.727  2.0278  0.1179 -0.6931
16909SOL    HW254516   2.016   0.632   9.719 -0.1517 -1.0356  0.9853
16910SOL     OW54517   5.855   4.749   9.997  0.6328 -0.3923  1.0053
16910SOL    HW154518   5.765   4.726  10.019  0.4004  0.1151  0.6023
16910SOL    HW254519   5.908   4.704  10.063  0.0493 -0.1839  1.6319
16911SOL     OW54520   8.627   4.046   2.140 -0.7028 -0.4169 -0.2183
16911SOL    HW154521   8.632   4.079   2.050 -1.6909 -1.7392 -0.7759
16911SOL    HW254522   8.540   4.008   2.148 -0.1530 -1.5297  0.8726
16912SOL     OW54523   5.691   9.357   1.512  0.6702 -0.0733 -0.0811
16912SOL    HW154524   5.687   9.275   1.463 -1.2889  0.6255 -1.2155
16912SOL    HW254525   5.628   9.415   1.468 -0.7689  0.8109  2.8773
16913SOL     OW54526   1.055   0.120   8.340  0.0495 -0.0857  0.0207
16913SOL    HW154527   1.079   0.068   8.263 -1.0288 -0.9235  0.2144
16913SOL    HW254528   1.126   0.105   8.402  0.1650 -0.6680 -0.2390
16914SOL     OW54529   0.568   4.561   6.511 -0.9525  0.0136  0.0182
16914SOL    HW154530   0.552   4.504   6.586  0.0353  1.8005  1.6592
16914SOL    HW254531   0.656   4.537   6.482 -0.7480  0.3505  0.3663
16915SOL     OW54532  10.007   6.002   4.906  0.6768  0.6733  0.1930
16915SOL    HW154533   9.961   5.923   4.877  1.9121 -0.5853  1.4471
16915SOL    HW254534   9.944   6.072   4.895 -1.0740 -0.7585  0.5691
16916SOL     OW54535   1.784   5.610   0.474 -1.3187 -0.1804  0.0864
16916SOL    HW154536   1.715   5.620   0.409 -1.5509 -1.0788  0.1876
16916SOL    HW254537   1.768   5.525   0.514 -1.1193  0.3060  1.2446
16917SOL     OW54538   4.200   3.866   6.301  0.1406 -0.7747  0.5529
16917SOL    HW154539   4.248   3.841   6.222  2.8198  3.6025  0.4321
16917SOL    HW254540   4.123   3.913   6.268  1.3253  1.1645  0.4008
16918SOL     OW54541   7.472   0.184   5.795  0.4392 -0.3994  0.9590
16918SOL    HW154542   7.438   0.157   5.710  0.6592  0.0626  0.7244
16918SOL    HW254543   7.394   0.199   5.849  0.2725  0.4825  0.4784
16919SOL     OW54544   3.686   3.000   0.857  0.2618  0.0695 -0.3554
16919SOL    HW154545   3.688   3.017   0.951 -1.8748  1.3075 -0.4724
16919SOL    HW254546   3.616   2.935   0.846 -0.4604  0.9609 -1.1945
16920SOL     OW54547   4.620   0.466   2.897  0.1133 -0.4219  0.5902
16920SOL    HW154548   4.573   0.547   2.913  1.2379  0.5880 -0.8443
16920SOL    HW254549   4.559   0.411   2.848 -0.0238  0.3462 -0.1093
16921SOL     OW54550   3.439   4.939   3.324 -0.0301 -0.4318 -0.2310
16921SOL    HW154551   3.356   4.933   3.279  0.1374  0.3181 -0.6664
16921SOL    HW254552   3.429   4.883   3.401 -0.5205 -1.2539 -0.8796
16922SOL     OW54553   8.445   0.171   6.345  0.4216 -0.3701 -0.5473
16922SOL    HW154554   8.460   0.162   6.439  0.6256  2.1509 -0.2755
16922SOL    HW254555   8.358   0.211   6.339  1.2589  1.4460 -1.2779
16923SOL     OW54556   4.671   2.103   3.186 -0.4771 -0.0301 -0.0804
16923SOL    HW154557   4.623   2.047   3.247  0.1824  0.9660  1.3847
16923SOL    HW254558   4.722   2.161   3.241  0.4243  0.6727 -1.5951
16924SOL     OW54559   4.090   6.101   9.930  0.0588 -0.1160 -0.1241
16924SOL    HW154560   4.065   6.182   9.974 -2.5120 -0.5313 -0.6350
16924SOL    HW254561   4.047   6.032   9.981  0.6026 -0.9762 -0.8081
16925SOL     OW54562   8.314   4.341   3.622 -0.1305  0.0397 -0.5151
16925SOL    HW154563   8.293   4.374   3.535 -0.6585  0.5116 -0.2159
16925SOL    HW254564   8.299   4.415   3.681  0.4838 -0.1930 -0.0484
16926SOL     OW54565   4.655   2.586   4.328 -0.7778 -0.2471  0.2086
16926SOL    HW154566   4.730   2.574   4.269 -0.3420 -0.1651  0.7319
16926SOL    HW254567   4.637   2.499   4.363 -1.6015 -0.4576 -0.6988
16927SOL     OW54568   8.875  10.253   3.256 -0.1907  0.0242 -0.1069
16927SOL    HW154569   8.952  10.305   3.277 -0.8512  1.1488 -0.3868
16927SOL    HW254570   8.883  10.234   3.163 -1.9354  3.1777 -1.0393
16928SOL     OW54571  10.290   7.843   2.760 -0.0262 -0.4083  0.3420
16928SOL    HW154572  10.291   7.835   2.855 -0.2278 -0.2100  0.3623
16928SOL    HW254573  10.198   7.858   2.738  0.0423 -0.2900  0.1326
16929SOL     OW54574   3.080   2.094   0.735  0.0524  0.0541  0.6011
16929SOL    HW154575   3.044   2.087   0.646 -0.4391  2.1772  0.5847
16929SOL    HW254576   3.076   2.005   0.769 -1.4775 -0.4921 -0.8551
16930SOL     OW54577   6.034   9.828   8.966 -0.6861  0.4363  0.3456
16930SOL    HW154578   5.987   9.857   8.887 -0.3731  0.3144  0.1119
16930SOL    HW254579   6.037   9.733   8.958 -0.6415  0.4247  0.5001
16931SOL     OW54580   7.632   9.445   5.880  0.6016  0.1337  0.2483
16931SOL    HW154581   7.676   9.474   5.960 -0.7363 -0.5295  1.2712
16931SOL    HW254582   7.594   9.525   5.844 -0.0859  0.2201  1.1285
16932SOL     OW54583   9.609   1.991   5.807 -0.3025 -0.6975 -0.1980
16932SOL    HW154584   9.681   1.928   5.803  0.1941 -0.0994 -0.9153
16932SOL    HW254585   9.536   1.946   5.762 -1.0768 -2.1333  2.3081
16933SOL     OW54586   2.623   9.860   7.486 -0.0098 -0.1114 -0.2854
16933SOL    HW154587   2.609   9.952   7.464 -0.2821  0.1280  0.8370
16933SOL    HW254588   2.539   9.817   7.468 -0.2230  0.0768  0.2580
16934SOL     OW54589  10.279   8.684   8.394  0.2451  0.4012 -0.1128
16934SOL    HW154590  10.229   8.763   8.411 -0.4399 -0.2374  0.9559
16934SOL    HW254591  10.282   8.638   8.478  1.4702 -0.2404 -0.4716
16935SOL     OW54592   4.475   5.328  10.114 -0.8023  0.1621  0.4173
16935SOL    HW154593   4.510   5.417  10.117 -0.2761 -0.0368  0.2222
16935SOL    HW254594   4.490   5.294  10.203  0.5836 -0.3266  0.0162
16936SOL     OW54595   1.452   7.625   9.494 -0.0773 -0.0065 -0.4969
16936SOL    HW154596   1.414   7.542   9.466 -1.5624  0.6866 -0.5900
16936SOL    HW254597   1.484   7.665   9.413 -2.1206  0.8593 -0.9415
16937SOL     OW54598   3.150   5.224   4.809  0.2421  0.6958  0.3103
16937SOL    HW154599   3.164   5.310   4.771  0.7952 -0.1472 -1.4809
16937SOL    HW254600   3.073   5.190   4.762 -1.0403  0.8367  2.1854
16938SOL     OW54601   8.160   4.175   1.113  0.0171 -0.0358 -0.1705
16938SOL    HW154602   8.143   4.082   1.123  0.6303 -0.2181 -0.7720
16938SOL    HW254603   8.078   4.212   1.079 -0.0198 -0.4626 -0.5510
16939SOL     OW54604   3.790   3.733   4.130  0.0057 -0.9359 -0.4362
16939SOL    HW154605   3.741   3.808   4.095  2.3265  0.5941 -0.6230
16939SOL    HW254606   3.760   3.724   4.220  0.8850  1.4051  0.1650
16940SOL     OW54607   7.468   4.886   1.343 -0.4876 -0.4861 -0.2311
16940SOL    HW154608   7.564   4.889   1.349 -0.4829 -0.8683 -0.1264
16940SOL    HW254609   7.450   4.876   1.250 -0.4775  1.5376 -0.5026
16941SOL     OW54610   4.597   0.043   0.956  0.0366  0.4748 -0.2706
16941SOL    HW154611   4.565   0.109   1.017 -0.2865  0.3132 -0.2638
16941SOL    HW254612   4.667   0.087   0.907  0.3799  0.5652  0.3000
16942SOL     OW54613   1.172   7.346   8.789 -0.3257 -1.0029 -0.4356
16942SOL    HW154614   1.209   7.293   8.718 -0.8275 -2.0701  0.0736
16942SOL    HW254615   1.248   7.382   8.834  0.0053 -0.6545 -1.2560
16943SOL     OW54616   2.143  10.240   0.621 -0.1485 -0.0692 -0.2943
16943SOL    HW154617   2.094  10.233   0.703  0.0641  1.0873 -0.0515
16943SOL    HW254618   2.091  10.189   0.558 -1.7339  1.1770 -0.0660
16944SOL     OW54619   7.165   7.784   3.394  0.2121 -0.4352 -0.0182
16944SOL    HW154620   7.153   7.689   3.397  0.2336 -0.4172  0.6981
16944SOL    HW254621   7.260   7.796   3.394  0.2089 -0.4039  0.2888
16945SOL     OW54622   9.808   3.251   2.952  0.3877 -0.1173  0.2338
16945SOL    HW154623   9.807   3.296   3.037 -0.0136  0.9912 -0.3424
16945SOL    HW254624   9.716   3.233   2.934  0.2714  1.3333 -0.8097
16946SOL     OW54625   7.763   3.272   1.062  0.5900  0.1067 -0.4570
16946SOL    HW154626   7.803   3.241   1.143  0.7025  0.2467 -0.4571
16946SOL    HW254627   7.719   3.354   1.087  0.5360  0.0960 -0.5155
16947SOL     OW54628   9.823   8.272   3.530 -0.6133  1.2132  0.5868
16947SOL    HW154629   9.888   8.293   3.464  1.2225  2.0159  2.5563
16947SOL    HW254630   9.809   8.354   3.578 -2.6272  0.8992  0.6315
16948SOL     OW54631   8.008   7.236   2.987 -0.1162 -0.7369  0.3241
16948SOL    HW154632   8.095   7.273   2.974 -0.0759 -1.0210 -0.2845
16948SOL    HW254633   7.957   7.307   3.026  0.4221 -0.6142  0.8142
16949SOL     OW54634   8.591   7.588   2.298  0.1136  0.0618  0.0777
16949SOL    HW154635   8.655   7.525   2.265  0.3106  1.2985 -2.0383
16949SOL    HW254636   8.524   7.534   2.340  0.1171 -1.5981 -1.9161
16950SOL     OW54637   7.206   7.181   6.474 -0.1401 -0.6517 -0.0986
16950SOL    HW154638   7.256   7.212   6.550 -0.2438 -1.0154  0.1201
16950SOL    HW254639   7.272   7.165   6.407 -0.2060  1.6471 -0.8089
16951SOL     OW54640   9.781  10.287   4.312  0.3165  0.4146  0.2348
16951SOL    HW154641   9.721  10.285   4.238 -0.7605  2.3519  0.9779
16951SOL    HW254642   9.788  10.196   4.340 -1.1818 -0.0287 -0.7363
16952SOL     OW54643   0.071   0.288   0.370 -0.0168 -0.6274  0.2301
16952SOL    HW154644   0.070   0.363   0.311  0.2270 -0.8508 -0.0580
16952SOL    HW254645   0.023   0.318   0.448 -0.2416 -0.2980 -0.0350
16953SOL     OW54646   0.033   1.873   7.273 -0.2464 -0.3267 -0.5961
16953SOL    HW154647   0.053   1.923   7.195 -0.7302  1.0692  0.1421
16953SOL    HW254648  -0.013   1.795   7.241  0.5519 -0.3301 -1.7680
16954SOL     OW54649   8.304   0.953   2.924  0.2890  0.1656 -0.0861
16954SOL    HW154650   8.296   1.036   2.972 -1.2118  0.1571 -0.2503
16954SOL    HW254651   8.388   0.959   2.879  0.2394  1.5751 -0.0413
16955SOL     OW54652   0.939   6.153   0.545  1.0005 -0.1017 -0.2573
16955SOL    HW154653   0.913   6.239   0.579  0.6238 -0.0346 -0.7005
16955SOL    HW254654   0.959   6.169   0.453  0.6683 -0.5420 -0.4080
16956SOL     OW54655   2.021   1.978   8.925  0.0800  0.1078  0.5087
16956SOL    HW154656   2.050   1.943   9.010 -0.4257  0.5085  0.8550
16956SOL    HW254657   2.082   1.940   8.862  0.8988  0.3290  1.1291
16957SOL     OW54658   6.343   4.314   6.698  0.0489  0.0598  0.0371
16957SOL    HW154659   6.397   4.290   6.622  0.2008  0.4657  0.0116
16957SOL    HW254660   6.291   4.237   6.716 -0.2773  0.0918 -0.7286
16958SOL     OW54661   4.733   4.896   3.267  0.1635 -0.0368 -0.5766
16958SOL    HW154662   4.715   4.960   3.198 -0.7658  0.4704  0.1223
16958SOL    HW254663   4.796   4.940   3.324 -2.4043  1.3644  1.3545
16959SOL     OW54664   9.485  10.066   7.984 -0.3333  0.0083 -0.1333
16959SOL    HW154665   9.557  10.018   7.942 -1.4912 -0.9017 -1.1279
16959SOL    HW254666   9.501  10.157   7.960  1.5927  0.1358  1.3369
16960SOL     OW54667   8.433   7.678   6.174 -0.0996 -0.8326 -0.2537
16960SOL    HW154668   8.445   7.627   6.254 -0.2152 -2.7554 -1.3807
16960SOL    HW254669   8.362   7.634   6.128  0.4009 -0.1994 -1.7163
16961SOL     OW54670   2.100   9.972   8.335  0.0737 -0.6439  0.5365
16961SOL    HW154671   2.103   9.962   8.430 -1.2565 -1.9632  0.4758
16961SOL    HW254672   2.013   9.942   8.310 -0.5714  2.0540 -0.8784
16962SOL     OW54673   0.982   7.770   2.160  0.2064  0.0075 -0.1308
16962SOL    HW154674   1.007   7.707   2.092 -1.7424 -1.3985  0.3612
16962SOL    HW254675   0.930   7.836   2.113  2.0187  1.1845 -0.5973
16963SOL     OW54676   6.181   8.808   0.909  0.7644 -0.1108 -0.3324
16963SOL    HW154677   6.268   8.803   0.868  0.3464  0.6621 -1.3469
16963SOL    HW254678   6.133   8.871   0.856 -0.8262 -1.4189 -0.5210
16964SOL     OW54679   0.214   8.766   7.039  0.4324  0.2355 -0.1455
16964SOL    HW154680   0.292   8.715   7.019  0.4815 -0.4798  1.6761
16964SOL    HW254681   0.154   8.704   7.080 -0.2178  1.2470  0.4846
16965SOL     OW54682   2.550   5.827   5.864 -0.0970 -0.0974  0.7080
16965SOL    HW154683   2.527   5.918   5.884  1.4088  0.2998  0.8069
16965SOL    HW254684   2.555   5.824   5.769  2.2721  0.6384  0.7350
16966SOL     OW54685   3.959   5.886   7.579 -0.5129 -0.3208 -0.3508
16966SOL    HW154686   3.955   5.790   7.580  1.5329 -0.4574  1.6562
16966SOL    HW254687   3.941   5.912   7.669  0.9624  1.0476 -0.4021
16967SOL     OW54688   3.591   5.742   4.811  0.0763  0.2561 -0.2715
16967SOL    HW154689   3.625   5.825   4.778 -0.8311  1.3890  1.4699
16967SOL    HW254690   3.496   5.755   4.816 -0.3460 -1.6094 -1.7596
16968SOL     OW54691   1.608   8.477   5.141  0.7749 -0.6078 -0.1311
16968SOL    HW154692   1.532   8.509   5.093  0.1572 -2.9762 -0.8644
16968SOL    HW254693   1.625   8.544   5.207 -1.0190  0.6697 -0.8861
16969SOL     OW54694   6.320   6.018   5.713  0.1007  0.2721 -0.4953
16969SOL    HW154695   6.326   6.092   5.774 -1.2720  0.3596 -0.4301
16969SOL    HW254696   6.295   5.944   5.768 -0.4018  0.1897 -0.8241
16970SOL     OW54697   2.344   0.059   0.853  0.4119  0.6241 -0.2135
16970SOL    HW154698   2.432   0.097   0.856  1.4199 -1.5487 -0.1022
16970SOL    HW254699   2.305   0.094   0.773  1.5252  1.3133 -0.4710
16971SOL     OW54700   9.754  10.338   5.769  0.0321 -0.5378  0.0385
16971SOL    HW154701   9.700  10.413   5.796  0.2705 -0.4939  0.4106
16971SOL    HW254702   9.769  10.352   5.676  0.5327  0.1757  0.2159
16972SOL     OW54703   5.650   0.579   8.047  0.5462  0.5944 -0.4025
16972SOL    HW154704   5.732   0.624   8.030  1.4297 -1.5120 -2.0970
16972SOL    HW254705   5.675   0.495   8.085 -0.8648  0.1492 -0.3798
16973SOL     OW54706   2.006   9.027   5.450  0.1260  0.0981  0.5130
16973SOL    HW154707   1.974   9.086   5.518  0.5145 -0.5004  1.2197
16973SOL    HW254708   2.100   9.018   5.466  0.6874  1.7054 -1.4545
16974SOL     OW54709   0.447   2.465   1.176 -0.0679  0.3297  0.7433
16974SOL    HW154710   0.403   2.534   1.126  0.2478 -0.1093 -0.1490
16974SOL    HW254711   0.528   2.447   1.127 -0.5422 -1.2619  0.4837
16975SOL     OW54712   2.791   8.524   0.013 -0.2322  0.8870  0.4032
16975SOL    HW154713   2.751   8.441   0.038  1.4498  0.4661  1.9070
16975SOL    HW254714   2.885   8.505   0.010  0.4141  3.1621  2.7955
16976SOL     OW54715   1.667   6.005   2.502 -0.0291  0.0987  0.0854
16976SOL    HW154716   1.586   5.955   2.500  0.7343 -1.1880  0.2116
16976SOL    HW254717   1.688   6.013   2.595  0.3158 -0.1300  0.0302
16977SOL     OW54718   6.405   6.100   7.999  0.3298  0.2717  0.2017
16977SOL    HW154719   6.382   6.145   7.918  2.5288 -0.5194 -0.9505
16977SOL    HW254720   6.389   6.007   7.981 -2.1466  0.3029  1.8151
16978SOL     OW54721   9.902   6.274   2.892 -0.1659 -0.8064  0.3553
16978SOL    HW154722   9.933   6.361   2.918 -2.8467  0.2202  0.4186
16978SOL    HW254723   9.839   6.250   2.959  0.2245 -2.6524  0.1111
16979SOL     OW54724   8.547   3.250   1.535  0.1341  0.1358 -0.0688
16979SOL    HW154725   8.477   3.194   1.569  0.5618  0.1632  0.8764
16979SOL    HW254726   8.582   3.201   1.460  0.9201 -1.1838  1.1118
16980SOL     OW54727   6.400   5.342   6.840  1.3648  0.2662  0.3810
16980SOL    HW154728   6.377   5.294   6.920  1.0193  1.2224  0.8722
16980SOL    HW254729   6.410   5.274   6.773  0.9813 -0.4919  1.0748
16981SOL     OW54730   4.287   3.637   0.791 -0.5881 -0.1616 -0.5870
16981SOL    HW154731   4.220   3.570   0.807  0.1195 -0.3210  2.3192
16981SOL    HW254732   4.357   3.590   0.745 -0.5740 -1.1767  0.4284
16982SOL     OW54733   3.712   6.285   7.793 -0.5966 -0.6909 -0.5553
16982SOL    HW154734   3.622   6.252   7.797 -0.5731 -0.6575  0.7630
16982SOL    HW254735   3.702   6.379   7.776 -0.7183 -1.0211 -2.5245
16983SOL     OW54736   8.052   4.461  10.083  0.2667 -0.0783 -0.2863
16983SOL    HW154737   7.971   4.426  10.121  0.0470  0.6255 -0.0873
16983SOL    HW254738   8.036   4.459   9.989  1.0308 -2.3632 -0.4345
16984SOL     OW54739   2.128   4.503   4.459 -0.3521  0.0397 -0.1812
16984SOL    HW154740   2.102   4.539   4.374  0.6685  0.1790 -0.4470
16984SOL    HW254741   2.208   4.551   4.482  0.8323 -1.7684 -0.3656
16985SOL     OW54742   9.970   8.697   8.498  0.1330  0.1949 -0.2539
16985SOL    HW154743   9.933   8.620   8.542  0.3790 -0.4954 -1.2284
16985SOL    HW254744  10.001   8.753   8.570  1.6765 -1.4704  0.4764
16986SOL     OW54745   0.101   8.085   7.416 -0.4989 -0.3276 -0.0008
16986SOL    HW154746   0.052   8.004   7.433 -0.5242  0.0639  2.0599
16986SOL    HW254747   0.191   8.064   7.441 -0.7630  0.6296  1.9966
16987SOL     OW54748   5.253   4.933   5.896  0.2845  0.0696  0.3154
16987SOL    HW154749   5.246   4.839   5.915  2.7767 -0.1271  0.6210
16987SOL    HW254750   5.247   4.938   5.801  0.2007 -0.4041  0.2910
16988SOL     OW54751   6.576   6.284   9.495  0.5175  0.0942 -0.3957
16988SOL    HW154752   6.585   6.308   9.403  0.5378 -0.4934 -0.5497
16988SOL    HW254753   6.660   6.306   9.534  0.5927  0.1171 -0.5713
16989SOL     OW54754   3.048   2.348   0.797  0.4129 -0.1380 -0.7244
16989SOL    HW154755   3.055   2.253   0.792 -0.8016 -0.6053  3.2416
16989SOL    HW254756   2.957   2.367   0.772  0.1768 -0.2424  0.0258
16990SOL     OW54757   2.213   7.956   0.751 -0.0002  0.2406 -0.3374
16990SOL    HW154758   2.227   8.050   0.763  2.1841 -0.2436  1.5840
16990SOL    HW254759   2.240   7.917   0.833 -0.8345 -2.1171 -1.0955
16991SOL     OW54760   8.587   4.279   4.081 -0.0549  0.0242 -0.1331
16991SOL    HW154761   8.500   4.246   4.059  0.3695 -1.6183  0.4659
16991SOL    HW254762   8.646   4.206   4.060  0.7225 -0.5265  3.3088
16992SOL     OW54763   7.952   2.787   4.363 -0.2000  0.3226 -0.0284
16992SOL    HW154764   7.919   2.853   4.302  0.0626  0.8788  0.4224
16992SOL    HW254765   8.023   2.744   4.315  0.5853  1.3368  0.1739
16993SOL     OW54766   2.487   8.991   5.257  0.8743 -0.2502 -0.1339
16993SOL    HW154767   2.571   8.993   5.303  1.6051 -2.4970 -1.2432
16993SOL    HW254768   2.510   9.004   5.165 -0.3431  1.9532 -0.2061
16994SOL     OW54769   6.592   9.158   9.243 -0.8110  0.6938 -0.0921
16994SOL    HW154770   6.518   9.116   9.288 -1.0472  0.8507 -0.3310
16994SOL    HW254771   6.637   9.207   9.312 -0.3501 -0.1922  0.2500
16995SOL     OW54772   6.672   3.846   8.888  0.0303 -0.3219  0.0566
16995SOL    HW154773   6.639   3.920   8.837 -0.0244  0.3902  1.1019
16995SOL    HW254774   6.767   3.854   8.882  0.0629 -1.4577 -1.6374
16996SOL     OW54775   3.889   2.080   9.114 -0.0235  0.1534  0.0315
16996SOL    HW154776   3.968   2.089   9.167 -1.7772  1.3299  2.6523
16996SOL    HW254777   3.920   2.083   9.023  2.9885 -0.4633  0.9348
16997SOL     OW54778   0.801   1.203   0.857  0.1022 -0.2759  0.5472
16997SOL    HW154779   0.861   1.231   0.788  1.4821 -1.2798  1.2780
16997SOL    HW254780   0.734   1.153   0.811 -1.7077  2.9104 -0.6101
16998SOL     OW54781   0.181   3.375   5.533  0.7128 -0.0073  0.5916
16998SOL    HW154782   0.220   3.343   5.614  1.1280  0.9232  0.7647
16998SOL    HW254783   0.101   3.323   5.523  0.6096 -0.0684  1.6422
16999SOL     OW54784   2.138   2.800   5.023  0.3606  0.2751 -0.6077
16999SOL    HW154785   2.146   2.873   5.085 -1.6174  0.0586 -0.0450
16999SOL    HW254786   2.227   2.786   4.991  1.4481  0.4746  2.0900
17000SOL     OW54787   6.909   2.691   9.215  0.0352 -0.1272  0.0579
17000SOL    HW154788   6.983   2.630   9.205  1.2025  1.4284 -1.2557
17000SOL    HW254789   6.863   2.687   9.131 -1.1086 -0.6937  0.6906
17001SOL     OW54790   0.101   3.104   0.507 -0.4089 -0.0593 -0.4305
17001SOL    HW154791   0.069   3.149   0.585 -0.9932 -0.1457 -0.6142
17001SOL    HW254792   0.053   3.146   0.435 -1.0615 -1.0657 -0.5957
17002SOL     OW54793   6.610   8.684   0.161  0.1333 -0.2153  0.3118
17002SOL    HW154794   6.619   8.775   0.135 -0.4769 -0.1587  0.2903
17002SOL    HW254795   6.665   8.635   0.099  0.1830  0.0991  0.1071
17003SOL     OW54796   4.396   2.784   8.697 -0.0897  0.6090  0.0667
17003SOL    HW154797   4.472   2.814   8.649 -1.1081  0.5980 -1.6279
17003SOL    HW254798   4.341   2.741   8.631 -3.5238  4.1972  0.2126
17004SOL     OW54799   0.799   2.351   9.021  0.1060 -0.2786  0.5064
17004SOL    HW154800   0.712   2.352   8.981  0.3770 -0.8564 -0.1105
17004SOL    HW254801   0.819   2.444   9.036 -0.1813 -0.0800 -0.2971
17005SOL     OW54802   2.441   3.876  10.065  0.0126  0.0945  0.4826
17005SOL    HW154803   2.417   3.888   9.973  0.3571  1.4650  0.5540
17005SOL    HW254804   2.371   3.919  10.114  0.2422  0.0775  0.8285
17006SOL     OW54805   0.041   4.500   6.144 -0.6197 -0.7430 -0.1814
17006SOL    HW154806   0.071   4.435   6.080  1.0244 -1.7330  1.4822
17006SOL    HW254807   0.023   4.449   6.223 -0.7102  0.6586  0.7368
17007SOL     OW54808   6.623   1.061   5.204 -0.0040 -0.0911 -0.1576
17007SOL    HW154809   6.565   1.004   5.152 -0.7383  0.4928  0.0091
17007SOL    HW254810   6.563   1.111   5.259  0.2741  3.4755 -2.7846
17008SOL     OW54811   7.372   5.074   6.264 -0.0600 -0.6134  0.2822
17008SOL    HW154812   7.435   5.012   6.300 -0.1594 -1.2243 -0.5583
17008SOL    HW254813   7.313   5.020   6.211 -0.1932  0.1858 -0.3971
17009SOL     OW54814   9.329   3.633   0.073 -0.5120  0.3573 -0.5195
17009SOL    HW154815   9.354   3.617   0.163 -0.1355 -0.2722 -0.7308
17009SOL    HW254816   9.234   3.640   0.075 -0.4885  0.5930 -0.0429
17010SOL     OW54817   0.968   5.574   1.949  0.1472  0.4206 -0.1901
17010SOL    HW154818   0.930   5.490   1.972  0.0051  0.0279 -1.7855
17010SOL    HW254819   0.912   5.639   1.992 -2.1639 -0.1400 -2.1504
17011SOL     OW54820   0.768   5.492   4.424 -0.3519 -0.3891 -0.2803
17011SOL    HW154821   0.755   5.488   4.329 -0.0947 -1.1128 -0.2891
17011SOL    HW254822   0.863   5.492   4.436 -0.2000 -4.7510  0.0841
17012SOL     OW54823   7.712   5.078   7.970  0.1791 -0.0193  0.3719
17012SOL    HW154824   7.798   5.089   7.928  0.0540  0.6215  0.2667
17012SOL    HW254825   7.660   5.030   7.905 -0.0164  0.9699 -0.2279
17013SOL     OW54826   9.823   4.295   4.575 -0.1717 -0.0304 -0.3968
17013SOL    HW154827   9.918   4.294   4.561 -0.2527  0.5932 -1.0525
17013SOL    HW254828   9.791   4.226   4.517 -0.1141 -0.2935 -0.1171
17014SOL     OW54829   4.113   9.336   4.953 -0.0324  0.7062  0.5145
17014SOL    HW154830   4.051   9.343   5.026 -1.0937 -0.0185 -0.2932
17014SOL    HW254831   4.110   9.244   4.927  1.8549  0.5162  0.8385
17015SOL     OW54832   2.408   1.193   3.702  0.5147 -0.1008 -0.7096
17015SOL    HW154833   2.419   1.287   3.689  2.0935  0.0224  1.0688
17015SOL    HW254834   2.314   1.178   3.699 -0.1340  2.2230  2.8428
17016SOL     OW54835   8.836   2.647   0.610  0.2010  0.1320  0.8429
17016SOL    HW154836   8.770   2.601   0.661 -1.1606 -1.1469 -1.8763
17016SOL    HW254837   8.809   2.738   0.612 -0.5713 -0.0996  1.2402
17017SOL     OW54838   9.253   3.478   3.027  0.0286  0.0539 -0.1693
17017SOL    HW154839   9.264   3.572   3.041 -0.9628  0.0450  0.7622
17017SOL    HW254840   9.342   3.445   3.015  0.3292  1.2177 -1.3222
17018SOL     OW54841  10.326   6.145   6.091  0.5115  0.0789  0.9593
17018SOL    HW154842  10.408   6.107   6.123 -0.3014 -0.2878  2.7595
17018SOL    HW254843  10.332   6.238   6.116  1.3289  0.5974 -0.9953
17019SOL     OW54844   0.880   4.056   6.773  0.1568  0.6097 -0.1999
17019SOL    HW154845   0.915   4.014   6.694 -1.2533  0.6682 -0.8898
17019SOL    HW254846   0.915   4.004   6.845 -1.2245 -1.5872 -1.0062
17020SOL     OW54847   4.108   3.254   4.279 -0.2382 -0.2375 -0.3452
17020SOL    HW154848   4.170   3.251   4.206  1.7071  1.8822  1.0988
17020SOL    HW254849   4.153   3.210   4.351 -0.3616  1.3131  0.7223
17021SOL     OW54850   4.446   8.342   3.982  0.7571 -0.2372  0.5072
17021SOL    HW154851   4.508   8.386   4.040  1.9425 -0.5802 -0.4379
17021SOL    HW254852   4.435   8.255   4.020  1.2900 -0.3584  0.3926
17022SOL     OW54853   6.785   7.675   0.973  0.1105  0.4451 -0.0963
17022SOL    HW154854   6.874   7.677   0.938  0.4569  1.1378  0.7911
17022SOL    HW254855   6.779   7.591   1.019  1.0785  1.3107  1.7183
17023SOL     OW54856   5.764   8.035   4.704 -0.0027  0.3503  0.1098
17023SOL    HW154857   5.853   8.024   4.737  0.0838 -1.7393 -0.6838
17023SOL    HW254858   5.710   7.978   4.759 -0.2544 -1.1820 -1.6249
17024SOL     OW54859   7.309   7.882   9.860 -0.4173 -0.0603 -0.3513
17024SOL    HW154860   7.231   7.845   9.901  0.3017 -0.0842  1.0519
17024SOL    HW254861   7.350   7.808   9.815  0.6697 -0.9232  1.9053
17025SOL     OW54862  10.285   3.607   6.187 -0.6641 -0.1469 -0.5199
17025SOL    HW154863  10.269   3.666   6.113 -0.5687 -0.7505 -1.0329
17025SOL    HW254864  10.217   3.540   6.179  0.6273 -1.4379 -1.3625
17026SOL     OW54865   1.761   7.725   8.558 -0.2973  0.9455  0.3280
17026SOL    HW154866   1.704   7.652   8.533  0.4797  0.9617 -1.6371
17026SOL    HW254867   1.709   7.803   8.544 -0.2496  0.8929 -0.1550
17027SOL     OW54868   4.063   5.463   7.204  0.2918  0.4368  0.1364
17027SOL    HW154869   4.042   5.434   7.292  0.5471  2.5204  0.9465
17027SOL    HW254870   4.158   5.476   7.205  0.2473  0.8452 -0.3164
17028SOL     OW54871   9.868   6.270   6.102 -0.8396 -0.4584  0.8624
17028SOL    HW154872   9.793   6.218   6.130 -1.9112 -0.1639 -1.2807
17028SOL    HW254873   9.936   6.205   6.082 -1.4556 -0.9210  0.2322
17029SOL     OW54874   3.934   5.540   5.317 -0.2607 -0.1017 -0.1681
17029SOL    HW154875   3.840   5.528   5.306 -0.2061 -0.3370 -0.3866
17029SOL    HW254876   3.972   5.504   5.237 -0.0922  1.5658 -0.8906
17030SOL     OW54877   5.581   4.765  10.312  0.6632  0.4025  0.0286
17030SOL    HW154878   5.610   4.747  10.222  3.2219 -1.0416  1.0113
17030SOL    HW254879   5.650   4.727  10.366 -1.8907 -0.8474  2.6780
17031SOL     OW54880   7.965   5.254   7.279 -0.1301  0.2278 -0.6257
17031SOL    HW154881   7.995   5.345   7.290 -1.5013  0.5090  1.2440
17031SOL    HW254882   7.873   5.256   7.305  0.5173 -2.2142  2.4700
17032SOL     OW54883   8.099   4.945   1.172  0.0425  0.2201 -0.7365
17032SOL    HW154884   8.153   5.023   1.184  1.9734 -1.3737  2.2570
17032SOL    HW254885   8.023   4.959   1.229 -0.5914  0.6415 -1.6530
17033SOL     OW54886   0.594   8.463   9.107 -0.1498 -0.3535 -0.8428
17033SOL    HW154887   0.570   8.382   9.152 -2.8885  1.0038  0.3819
17033SOL    HW254888   0.560   8.452   9.018  0.0610 -0.7961 -0.8689
17034SOL     OW54889   6.733   5.059   0.520  0.0169 -0.2625  0.4381
17034SOL    HW154890   6.806   5.032   0.465 -0.7352 -1.8510  0.1549
17034SOL    HW254891   6.763   5.043   0.609  0.6178  0.7129  0.4245
17035SOL     OW54892   8.724   7.773   2.475 -0.2503 -0.2900  0.1943
17035SOL    HW154893   8.677   7.855   2.461  0.5611 -0.1214 -1.9403
17035SOL    HW254894   8.670   7.707   2.432  0.8262 -0.2743 -1.2480
17036SOL     OW54895   3.149   0.756   9.663  0.3716  0.1871  0.2740
17036SOL    HW154896   3.186   0.825   9.718  2.4776 -0.4971 -0.1726
17036SOL    HW254897   3.162   0.788   9.573  0.2162 -0.2342  0.0988
17037SOL     OW54898   5.300   5.387   4.943 -0.0782  0.1512 -0.4283
17037SOL    HW154899   5.338   5.383   4.855 -0.6764 -0.0509 -0.6899
17037SOL    HW254900   5.269   5.298   4.959 -0.7517  0.3883 -0.3763
17038SOL     OW54901   2.514  10.145  10.253 -0.1684  0.8116  0.0880
17038SOL    HW154902   2.574  10.201  10.204  0.1627  1.6152  1.3584
17038SOL    HW254903   2.434  10.196  10.261  0.5580  1.7189  2.3533
17039SOL     OW54904   4.049   7.498   2.306  0.1170  0.3020  0.0246
17039SOL    HW154905   4.090   7.411   2.306  2.0780  1.1421  1.2586
17039SOL    HW254906   3.969   7.487   2.356  1.0170 -0.5453  1.3431
17040SOL     OW54907   5.917   2.387   5.903  0.5866 -0.2568 -0.1268
17040SOL    HW154908   5.967   2.462   5.934 -2.2725  1.6915  0.1606
17040SOL    HW254909   5.857   2.367   5.975 -0.7559 -0.8086 -1.3427
17041SOL     OW54910   6.717   8.652   6.192  0.2251 -0.6374 -0.2005
17041SOL    HW154911   6.714   8.558   6.214  0.9481 -0.6315 -0.0232
17041SOL    HW254912   6.686   8.696   6.271 -0.3765 -0.7370 -0.3801
17042SOL     OW54913   3.923   7.648   3.942  0.4473 -0.1179 -0.7616
17042SOL    HW154914   3.960   7.561   3.957  3.3066  1.3103  1.7006
17042SOL    HW254915   3.903   7.650   3.849  0.9648 -3.1270 -1.0390
17043SOL     OW54916  10.227   4.144   4.246  0.0155 -0.1395 -0.1664
17043SOL    HW154917  10.155   4.099   4.290  1.4931 -1.3464  1.1199
17043SOL    HW254918  10.186   4.187   4.171 -2.0865 -0.4864  0.7187
17044SOL     OW54919   5.813   1.106   8.926  0.3543 -0.2611 -0.1923
17044SOL    HW154920   5.907   1.109   8.907  0.3941 -1.1473 -0.1495
17044SOL    HW254921   5.808   1.113   9.021  0.3797 -0.3151 -0.1874
17045SOL     OW54922   0.302   0.894   2.814  0.0367 -0.1645  0.8029
17045SOL    HW154923   0.248   0.885   2.893 -1.8042  3.8899  0.2864
17045SOL    HW254924   0.251   0.851   2.745 -0.2364 -0.4144  1.1578
17046SOL     OW54925   4.827   9.981   5.493  0.4787 -0.0560  0.4726
17046SOL    HW154926   4.771   9.953   5.566  0.0003 -0.2983  0.0196
17046SOL    HW254927   4.780  10.056   5.455 -0.0570 -0.8771 -0.5291
17047SOL     OW54928   5.555   5.104   2.595 -0.1540  0.1352 -0.2363
17047SOL    HW154929   5.538   5.145   2.680 -1.7326 -0.1793 -0.3764
17047SOL    HW254930   5.516   5.017   2.602 -1.3528  0.5089 -1.6382
17048SOL     OW54931   7.686   4.586   9.412 -0.0310  0.8129  0.0836
17048SOL    HW154932   7.711   4.607   9.502 -1.1926  0.4747  0.5115
17048SOL    HW254933   7.712   4.663   9.361  1.2685  0.7231  0.5733
17049SOL     OW54934   8.734   7.749   8.413 -0.0487  0.3182 -0.1553
17049SOL    HW154935   8.810   7.694   8.431  0.4217  1.3891  1.3016
17049SOL    HW254936   8.759   7.836   8.444 -1.8080  0.7337  0.2087
17050SOL     OW54937   6.678   0.213   7.035 -0.0612 -0.1298 -0.7688
17050SOL    HW154938   6.644   0.140   7.087 -0.2050  1.1297  0.9781
17050SOL    HW254939   6.705   0.279   7.099 -0.4130  1.5828 -2.2825
17051SOL     OW54940   5.186  10.324   1.869  0.1907  0.3122 -0.6966
17051SOL    HW154941   5.250  10.295   1.934  1.3590  3.0212 -0.5062
17051SOL    HW254942   5.115  10.363   1.920 -2.3403 -3.5853 -0.8423
17052SOL     OW54943   5.857   0.510   9.535  0.2575 -0.6273 -0.2737
17052SOL    HW154944   5.941   0.534   9.496  0.6517 -0.7298  0.5024
17052SOL    HW254945   5.873   0.426   9.577  0.0942 -0.0783  0.9138
17053SOL     OW54946   7.980   8.249   2.102 -0.1199  0.6060 -0.0847
17053SOL    HW154947   7.909   8.268   2.164  0.8165  0.9400  0.9172
17053SOL    HW254948   7.947   8.281   2.018 -0.9494  1.2328  0.4552
17054SOL     OW54949   8.433   4.737   7.954  0.4685 -0.4005  0.6696
17054SOL    HW154950   8.494   4.731   7.881  1.1355  0.1146  1.1710
17054SOL    HW254951   8.422   4.831   7.969 -1.3063 -0.4358 -0.0968
17055SOL     OW54952   5.786   4.366  10.147 -0.0890 -0.6602 -0.3916
17055SOL    HW154953   5.818   4.426  10.215  2.0114  1.3759 -2.9204
17055SOL    HW254954   5.833   4.284  10.164 -0.6807 -0.6729  1.3760
17056SOL     OW54955   9.328   1.153   0.244 -0.0886 -0.8421 -0.2779
17056SOL    HW154956   9.269   1.199   0.303 -0.1435  1.2631 -1.8602
17056SOL    HW254957   9.288   1.067   0.232 -2.6514  0.3754 -0.9714
17057SOL     OW54958   8.853   4.244   2.019 -0.4261 -0.4512 -0.4679
17057SOL    HW154959   8.838   4.332   2.054 -1.5252 -0.7438 -0.1777
17057SOL    HW254960   8.885   4.194   2.094 -1.5883 -0.7640 -0.1739
17058SOL     OW54961   8.420   3.433   4.461  0.0035 -0.0030  0.3568
17058SOL    HW154962   8.330   3.454   4.484  0.2964 -0.7268  2.4608
17058SOL    HW254963   8.413   3.374   4.387 -1.1172  1.6695 -0.9386
17059SOL     OW54964   4.791   5.957   9.547 -0.0779 -0.5187  0.5832
17059SOL    HW154965   4.886   5.949   9.544  0.0067  0.6242 -0.2337
17059SOL    HW254966   4.767   5.997   9.464 -1.1060  0.8414  1.4918
17060SOL     OW54967   1.438   5.796   1.284 -0.4195  0.0432 -0.4050
17060SOL    HW154968   1.452   5.846   1.204 -0.3267  0.4077 -0.1605
17060SOL    HW254969   1.436   5.861   1.353  0.4562 -0.3482  0.0012
17061SOL     OW54970   0.032   8.511   6.945 -0.4862  0.7862  0.4114
17061SOL    HW154971  -0.031   8.573   6.910  2.1761  3.2864 -0.3417
17061SOL    HW254972   0.115   8.534   6.902  1.4892 -0.6143  3.1594
17062SOL     OW54973   5.715   2.478   0.876 -0.3666  0.2649 -1.1798
17062SOL    HW154974   5.798   2.440   0.904  0.2536  1.3645 -1.4841
17062SOL    HW254975   5.737   2.530   0.799 -1.7878 -1.5100 -2.8942
17063SOL     OW54976   0.868   1.612   6.268 -0.7320  0.2811  0.2914
17063SOL    HW154977   0.806   1.656   6.327 -0.7087 -0.5607  0.9717
17063SOL    HW254978   0.854   1.652   6.183 -3.2562 -0.8684  0.0871
17064SOL     OW54979   0.133   2.041   3.394  0.1954 -0.4083 -0.3298
17064SOL    HW154980   0.156   1.949   3.379 -0.5402 -0.7535  0.5303
17064SOL    HW254981   0.195   2.091   3.340  2.0995 -1.3351  0.8674
17065SOL     OW54982   6.370   7.201   2.212  0.1196 -0.2606 -0.3240
17065SOL    HW154983   6.354   7.268   2.279 -0.0127 -1.1130  0.5236
17065SOL    HW254984   6.301   7.215   2.147 -2.1477 -1.7343  1.5838
17066SOL     OW54985   2.285   6.171   2.750 -0.3354  0.4947 -0.1292
17066SOL    HW154986   2.307   6.217   2.669  0.1572 -0.4443 -0.5351
17066SOL    HW254987   2.242   6.238   2.804  0.7611  1.5600 -0.5273
17067SOL     OW54988   9.745   0.838   3.350  0.6262 -0.3264  0.6371
17067SOL    HW154989   9.692   0.796   3.283  0.6865 -0.8786  0.9319
17067SOL    HW254990   9.683   0.891   3.400  0.6102  0.2311  0.0426
17068SOL     OW54991   3.761   6.467   1.240  0.8829 -0.3971  0.6831
17068SOL    HW154992   3.795   6.556   1.230 -0.4956 -0.0956 -3.0764
17068SOL    HW254993   3.748   6.456   1.334  2.5843  2.7524  1.4142
17069SOL     OW54994   1.567   0.914   9.127  0.6064  0.1128  0.5751
17069SOL    HW154995   1.489   0.866   9.153  0.0944  2.1483  3.2759
17069SOL    HW254996   1.548   1.005   9.149  3.0298  0.9816 -0.5103
17070SOL     OW54997   8.505   1.310   3.618  0.0196  0.3734  0.4245
17070SOL    HW154998   8.498   1.355   3.534 -0.9256 -0.1538  0.2082
17070SOL    HW254999   8.589   1.266   3.615 -0.1646  0.0705 -0.3891
17071SOL     OW55000   0.242   9.262   2.486  0.0014  0.0949  0.0623
17071SOL    HW155001   0.205   9.341   2.527 -0.5842  0.1575 -0.5759
17071SOL    HW255002   0.292   9.295   2.412 -0.3642 -0.1444 -0.2910
17072SOL     OW55003   3.130   0.219   0.033  0.1519  0.4295  0.3414
17072SOL    HW155004   3.123   0.210  -0.062 -0.6588 -0.5931  0.4710
17072SOL    HW255005   3.042   0.244   0.061  0.4722  1.0762  0.7995
17073SOL     OW55006   3.227   7.261   4.983 -0.0193 -0.0661 -0.0558
17073SOL    HW155007   3.219   7.302   4.897  2.2214  0.9424  0.1458
17073SOL    HW255008   3.319   7.233   4.988 -0.1268 -0.2184  1.9489
17074SOL     OW55009   4.585   0.878   3.791  0.0769  0.0226 -0.3111
17074SOL    HW155010   4.547   0.959   3.825  1.5645  0.5777  0.1122
17074SOL    HW255011   4.650   0.853   3.856  0.8997 -0.5187 -1.3125
17075SOL     OW55012   4.966   4.852   4.612  0.6088 -0.2616  0.4011
17075SOL    HW155013   4.942   4.882   4.524 -1.2323  1.4935  1.4285
17075SOL    HW255014   5.062   4.857   4.613  0.7452 -1.1173 -1.7316
17076SOL     OW55015   5.803   0.879   1.218 -0.3403  0.3137  0.0734
17076SOL    HW155016   5.733   0.818   1.197  0.7393 -0.5266 -1.2953
17076SOL    HW255017   5.849   0.840   1.292 -0.7942  0.4332  0.4185
17077SOL     OW55018   0.014   4.715   7.888 -0.3198  0.2208 -0.1831
17077SOL    HW155019  -0.023   4.675   7.809  0.6070 -0.0432 -0.4913
17077SOL    HW255020   0.108   4.701   7.880 -0.2968 -0.9351  1.5822
17078SOL     OW55021   2.767   5.178   1.875 -0.4769 -0.3364 -0.1399
17078SOL    HW155022   2.803   5.112   1.816  0.6464 -0.0047  0.1548
17078SOL    HW255023   2.794   5.261   1.837 -1.5078 -0.0491 -0.2672
17079SOL     OW55024   1.284   3.666   2.750  0.0464 -0.8879 -0.1039
17079SOL    HW155025   1.214   3.718   2.711  0.1275  0.2077  1.1334
17079SOL    HW255026   1.365   3.707   2.719  0.1191 -0.7174  0.3107
17080SOL     OW55027   9.555   1.129   6.983 -0.1902 -0.0611  0.4884
17080SOL    HW155028   9.521   1.112   6.895  1.7830 -0.3070 -0.2736
17080SOL    HW255029   9.649   1.111   6.976  0.2601  1.3600  2.2752
17081SOL     OW55030   4.246   2.378   0.479  0.1140  0.4192 -0.1062
17081SOL    HW155031   4.222   2.313   0.545  1.3849  1.5400  1.5577
17081SOL    HW255032   4.265   2.327   0.400 -1.9887 -0.9140  0.1886
17082SOL     OW55033   1.338   6.694   6.441  0.1214 -0.1013  0.1406
17082SOL    HW155034   1.412   6.730   6.392 -0.5265  2.1756  0.7172
17082SOL    HW255035   1.287   6.646   6.375  1.3296 -0.4465 -0.5710
17083SOL     OW55036   9.968   6.043   6.454 -0.1491 -0.1871  0.5612
17083SOL    HW155037   9.906   5.980   6.491 -0.7407  0.4508  0.6927
17083SOL    HW255038  10.009   5.997   6.381 -0.4067 -0.7972  0.7933
17084SOL     OW55039   9.102   8.116   2.621  0.2897 -0.3788  0.1910
17084SOL    HW155040   9.073   8.072   2.541 -0.2624  0.5430 -0.1336
17084SOL    HW255041   9.160   8.053   2.663  1.0768 -0.6646 -1.2446
17085SOL     OW55042   8.127   6.073   9.685 -0.9599  0.5070 -0.1138
17085SOL    HW155043   8.216   6.044   9.706 -0.3159  2.7404  0.4786
17085SOL    HW255044   8.124   6.070   9.589 -0.8670 -1.2336 -0.0861
17086SOL     OW55045   9.838   7.381   9.553 -0.8208  0.3151 -0.1994
17086SOL    HW155046   9.783   7.434   9.495 -0.9826 -0.6558 -0.9543
17086SOL    HW255047   9.854   7.301   9.504  0.3153  0.1032  0.4849
17087SOL     OW55048   3.702   0.593   2.714 -0.2149  0.2932 -0.0102
17087SOL    HW155049   3.720   0.516   2.768 -1.0001 -0.4382 -0.7590
17087SOL    HW255050   3.739   0.572   2.628 -0.5725  0.6771 -0.2647
17088SOL     OW55051   8.375   4.791   2.400 -0.2652  0.2705  0.2407
17088SOL    HW155052   8.289   4.777   2.360 -1.8248  1.3261  2.9248
17088SOL    HW255053   8.355   4.814   2.491  2.9466 -0.8004  1.3513
17089SOL     OW55054   5.916   2.563   5.064 -0.3985  0.4141 -0.5932
17089SOL    HW155055   5.992   2.622   5.074 -0.3717  0.5022 -1.2743
17089SOL    HW255056   5.867   2.600   4.991 -2.5931  1.9714  1.5241
17090SOL     OW55057   4.429   2.055   3.030 -0.0718  0.2064  0.0988
17090SOL    HW155058   4.458   2.108   2.957  0.2014  1.5446  1.1395
17090SOL    HW255059   4.510   2.032   3.077 -0.4063  1.4675  1.3548
17091SOL     OW55060   3.876   2.459   9.122 -0.0140  0.0887  0.3671
17091SOL    HW155061   3.960   2.415   9.116 -0.2942 -0.6342  1.4666
17091SOL    HW255062   3.838   2.427   9.203 -1.6775 -0.1675 -0.4715
17092SOL     OW55063   0.809   8.436   8.872  0.2232  0.3442 -0.0988
17092SOL    HW155064   0.901   8.440   8.845 -0.2484  0.2761 -1.8272
17092SOL    HW255065   0.795   8.517   8.922  0.9504  0.8928 -0.7613
17093SOL     OW55066   1.319   1.677   9.757  0.4673 -0.4845  0.1399
17093SOL    HW155067   1.401   1.714   9.724 -0.2047  2.2052  1.1691
17093SOL    HW255068   1.265   1.667   9.679  1.0893 -0.3634 -0.3227
17094SOL     OW55069   8.531   2.568   1.964 -0.1419 -0.3754 -0.7833
17094SOL    HW155070   8.559   2.481   1.990  1.8527  0.8301  1.4471
17094SOL    HW255071   8.593   2.595   1.897  0.8093  0.2405  0.3156
17095SOL     OW55072   5.254   4.271  10.040  0.0115 -0.3382  0.1428
17095SOL    HW155073   5.242   4.365  10.027  1.4350 -0.3311 -1.6358
17095SOL    HW255074   5.192   4.230   9.980  0.0689 -0.5147  0.2036
17096SOL     OW55075   7.980   5.123   5.940  0.2604  0.1913  0.0481
17096SOL    HW155076   7.954   5.202   5.893 -2.3865 -1.4046 -1.4491
17096SOL    HW255077   7.898   5.087   5.974  1.6785 -0.5959  3.0157
17097SOL     OW55078   0.804   5.247   9.018 -0.2941  0.1560  0.2400
17097SOL    HW155079   0.852   5.324   8.987  1.8464 -1.9694 -2.2147
17097SOL    HW255080   0.720   5.251   8.973 -1.1872  2.1483  1.9296
17098SOL     OW55081   0.800   9.979  10.008 -0.5625 -0.1022 -0.1805
17098SOL    HW155082   0.883   9.931  10.004  0.1252  1.1101 -0.9417
17098SOL    HW255083   0.767   9.962  10.096  1.8875  1.6115  1.1874
17099SOL     OW55084   1.753   8.876   1.607 -0.3012 -0.3350 -0.0706
17099SOL    HW155085   1.798   8.794   1.586  0.3689  0.0713 -0.2641
17099SOL    HW255086   1.690   8.887   1.536 -0.7339 -0.9174  0.2094
17100SOL     OW55087   8.678   1.344   8.937  0.5618  0.2522  0.5526
17100SOL    HW155088   8.676   1.438   8.921 -0.5922  0.1950  0.3302
17100SOL    HW255089   8.593   1.324   8.977 -0.8088 -1.2769 -2.7883
17101SOL     OW55090   7.123   9.367   0.550 -0.2974 -0.1883  0.0760
17101SOL    HW155091   7.197   9.422   0.575 -1.9217  1.7762  0.8209
17101SOL    HW255092   7.155   9.315   0.476  1.1291  2.3305 -1.2151
17102SOL     OW55093  10.288   6.400   0.783  0.7603  0.1329 -0.2254
17102SOL    HW155094  10.204   6.375   0.743  0.4828  0.8917 -0.1258
17102SOL    HW255095  10.265   6.429   0.871  1.3491 -1.3414  0.4440
17103SOL     OW55096   7.357   0.277   3.179 -0.1853  0.1236  0.4152
17103SOL    HW155097   7.385   0.220   3.107  0.1809  1.2712 -0.3765
17103SOL    HW255098   7.423   0.263   3.247 -0.1679 -0.4849  0.2842
17104SOL     OW55099  10.330   0.588   1.667  0.0860  0.0197 -0.0127
17104SOL    HW155100  10.364   0.672   1.635 -0.4672 -0.2292 -1.2949
17104SOL    HW255101  10.272   0.557   1.597 -1.9140 -0.1132  1.6070
17105SOL     OW55102   3.874   2.400   5.837 -0.8064 -0.1763  0.1745
17105SOL    HW155103   3.906   2.314   5.864 -0.9658 -0.3517 -0.1792
17105SOL    HW255104   3.788   2.408   5.879  0.0958  0.7139  1.9290
17106SOL     OW55105   2.264  10.281   9.809 -0.9017  0.0644 -0.5066
17106SOL    HW155106   2.280  10.246   9.722 -1.5186 -0.2635 -0.4933
17106SOL    HW255107   2.191  10.341   9.798  0.2536  1.5015 -0.5596
17107SOL     OW55108   8.290   6.537   4.740  0.8222  0.2340  0.1711
17107SOL    HW155109   8.341   6.584   4.806  0.0964  1.7049 -0.2833
17107SOL    HW255110   8.318   6.574   4.656  0.5949 -0.5086 -0.2514
17108SOL     OW55111   2.259   5.882   6.248  0.3071 -0.4035 -0.2383
17108SOL    HW155112   2.217   5.796   6.244  0.3662 -0.4183 -0.5193
17108SOL    HW255113   2.346   5.869   6.211 -0.6387  0.3605 -2.9266
17109SOL     OW55114   5.418   7.791   0.759 -0.0754  0.2617 -0.6505
17109SOL    HW155115   5.347   7.827   0.812  1.0921  3.0811 -0.8475
17109SOL    HW255116   5.465   7.732   0.818 -1.9892 -0.9643 -0.2641
17110SOL     OW55117   0.192   1.980   0.489  0.0218  0.0357  0.1403
17110SOL    HW155118   0.167   2.055   0.542  1.5674  0.9772 -0.3950
17110SOL    HW255119   0.226   2.018   0.408 -0.7606 -1.3130 -0.8743
17111SOL     OW55120   2.580   4.993   6.764 -0.3501 -0.0611 -0.1169
17111SOL    HW155121   2.491   4.967   6.790 -0.4403  1.0558  0.7788
17111SOL    HW255122   2.571   5.023   6.674 -0.8383 -0.1843 -0.1111
17112SOL     OW55123   1.167   4.854   5.283 -0.3703 -0.1385  0.6129
17112SOL    HW155124   1.104   4.889   5.345 -0.5395 -1.1387  1.0361
17112SOL    HW255125   1.161   4.759   5.295  0.4427 -0.2894 -0.1002
17113SOL     OW55126   4.631  10.163   7.726  0.1310  0.0856 -0.6974
17113SOL    HW155127   4.643  10.246   7.679 -1.3348  0.8951  0.2582
17113SOL    HW255128   4.544  10.133   7.698 -0.2559 -0.0181  0.5613
17114SOL     OW55129   1.508   1.329   8.286 -0.1340 -0.0600 -0.2890
17114SOL    HW155130   1.438   1.390   8.308 -0.1342  0.7132 -2.2641
17114SOL    HW255131   1.577   1.384   8.249  0.8409 -1.0113  0.0658
17115SOL     OW55132   1.999   8.334   5.425 -0.1444  0.1595  0.0884
17115SOL    HW155133   2.094   8.341   5.421  0.0004  1.3527  3.0770
17115SOL    HW255134   1.983   8.248   5.464 -0.4164 -0.8070 -2.0595
17116SOL     OW55135   0.092   1.140   4.553 -0.0934 -0.2545 -0.5952
17116SOL    HW155136   0.118   1.211   4.612 -1.0548 -2.2011  2.4339
17116SOL    HW255137  -0.003   1.134   4.563  0.0205 -2.2953 -0.2833
17117SOL     OW55138   6.737   1.102   2.392 -0.1056 -0.2805 -0.3762
17117SOL    HW155139   6.806   1.157   2.428 -0.8694 -0.2099  1.0529
17117SOL    HW255140   6.782   1.021   2.368  0.7693  0.4151 -1.1581
17118SOL     OW55141   7.048   0.500   2.133 -0.2769 -0.0439 -0.1550
17118SOL    HW155142   6.964   0.493   2.087 -0.7421 -1.0237  0.7935
17118SOL    HW255143   7.081   0.410   2.134 -1.1137 -0.4067  2.9119
17119SOL     OW55144   5.728   2.704   8.663 -0.1430  0.2349 -0.0029
17119SOL    HW155145   5.673   2.626   8.665 -2.0382  1.5346  1.0924
17119SOL    HW255146   5.788   2.693   8.737 -0.2151 -0.2933 -0.0165
17120SOL     OW55147   2.665   1.959   7.317 -0.8285 -0.1663 -0.1324
17120SOL    HW155148   2.703   1.906   7.388  0.3530  0.8447  0.0221
17120SOL    HW255149   2.578   1.981   7.348 -0.4095  0.0713  0.9256
17121SOL     OW55150   2.917   6.035   3.516 -0.1336  0.4172  0.2604
17121SOL    HW155151   2.867   5.953   3.511  1.6887 -1.1033  3.6742
17121SOL    HW255152   2.850   6.103   3.526 -1.6277 -0.8714 -0.5639
17122SOL     OW55153   7.655   6.932   5.886  0.0222  0.4547 -0.0107
17122SOL    HW155154   7.614   7.003   5.838 -2.2536  0.2019  1.4074
17122SOL    HW255155   7.697   6.974   5.960 -1.7302  0.3506  1.0916
17123SOL     OW55156   2.377   2.617   9.242 -0.1347 -0.0659  0.7793
17123SOL    HW155157   2.459   2.574   9.267 -0.5204 -2.0174 -1.0617
17123SOL    HW255158   2.403   2.684   9.179  0.1020 -0.1858  0.7482
17124SOL     OW55159   3.924   4.951   8.686 -0.0241  0.5705 -0.3652
17124SOL    HW155160   3.873   4.959   8.767  0.7192  0.7175  0.0988
17124SOL    HW255161   3.867   4.988   8.618 -1.6312 -1.6845 -0.3614
17125SOL     OW55162   7.604   0.495   1.893 -0.1084 -0.3278 -0.5484
17125SOL    HW155163   7.574   0.471   1.806  0.2356 -1.6312 -0.3275
17125SOL    HW255164   7.682   0.549   1.878 -2.2766  2.9228 -1.1209
17126SOL     OW55165   4.207   2.296   2.164 -0.6668  0.5864 -0.2878
17126SOL    HW155166   4.164   2.223   2.209  0.7775 -0.1453 -0.0412
17126SOL    HW255167   4.263   2.335   2.231  1.3847 -0.4050 -1.3158
17127SOL     OW55168   7.645   6.657   7.515 -0.2595 -0.5902  0.0002
17127SOL    HW155169   7.721   6.601   7.532  1.3524  0.4904 -2.8123
17127SOL    HW255170   7.570   6.599   7.525  0.9497 -1.9299  2.0512
17128SOL     OW55171   4.066   4.464   4.947 -0.9856  0.1321  0.0458
17128SOL    HW155172   3.974   4.491   4.942 -0.9584  0.1688 -0.2844
17128SOL    HW255173   4.115   4.541   4.919 -0.9027 -0.2082 -0.7946
17129SOL     OW55174   4.429   5.260   2.823  0.4694  0.2090  0.4580
17129SOL    HW155175   4.517   5.268   2.787  0.5411 -0.1798  0.5343
17129SOL    HW255176   4.411   5.165   2.821 -0.0720  0.3115  0.1328
17130SOL     OW55177   3.931   8.133   1.395  0.0657  0.2089 -0.3408
17130SOL    HW155178   3.945   8.221   1.431  1.0415  1.0105 -2.5496
17130SOL    HW255179   3.846   8.138   1.351 -0.9573 -0.6728  1.3874
17131SOL     OW55180   5.193   7.218   4.217  0.3669 -0.0243  0.2319
17131SOL    HW155181   5.137   7.293   4.234  1.8004  0.9458  0.7867
17131SOL    HW255182   5.139   7.142   4.240 -1.9531  0.6028 -2.4983
17132SOL     OW55183   1.015   8.978   4.894  0.5791  0.1724 -0.8465
17132SOL    HW155184   1.084   9.044   4.883 -1.0985  1.9593 -1.2331
17132SOL    HW255185   0.946   9.005   4.833 -1.2269 -0.4973  0.7967
17133SOL     OW55186   0.030   2.125   9.616  0.6286 -0.3845  0.2025
17133SOL    HW155187  -0.010   2.044   9.647  1.7086 -0.4809  1.4414
17133SOL    HW255188   0.046   2.175   9.696 -0.1143  1.1148 -0.5525
17134SOL     OW55189   9.381  10.103   9.048 -0.6087  0.5363 -0.8619
17134SOL    HW155190   9.307  10.056   9.011 -0.0943 -0.0964 -1.1091
17134SOL    HW255191   9.382  10.079   9.140  0.5355 -1.1867 -1.2639
17135SOL     OW55192   0.138   6.323   0.607  0.0277 -0.0002 -0.4916
17135SOL    HW155193   0.100   6.353   0.524  0.6045  0.7662 -0.4976
17135SOL    HW255194   0.069   6.335   0.672  0.1761  1.1872 -0.5331
17136SOL     OW55195   7.053   2.283   0.071  0.2746 -0.1709 -0.2592
17136SOL    HW155196   7.113   2.227   0.022  0.7232  0.8785 -0.9423
17136SOL    HW255197   7.026   2.230   0.146  0.3739 -1.4314 -1.0971
17137SOL     OW55198   1.053   9.493   1.341  0.1785  0.1935 -0.4320
17137SOL    HW155199   0.958   9.509   1.340  0.1070  0.0045 -2.8133
17137SOL    HW255200   1.089   9.569   1.386 -1.1375 -0.3008  1.6156
17138SOL     OW55201   5.691   9.372   2.272  0.0388 -0.0105 -0.3533
17138SOL    HW155202   5.761   9.436   2.278 -1.2458  1.3576  0.9511
17138SOL    HW255203   5.614   9.423   2.247 -0.6558 -1.3593 -1.0846
17139SOL     OW55204   8.986   5.372   5.315  0.5111 -0.4267 -0.3001
17139SOL    HW155205   8.973   5.467   5.311  2.0463 -0.2003 -0.6088
17139SOL    HW255206   8.956   5.347   5.402 -1.7591  0.0063 -0.9032
17140SOL     OW55207   5.897   5.263   0.956  0.5541  0.0988  0.0410
17140SOL    HW155208   5.952   5.191   0.987  1.3320  0.3787 -0.6647
17140SOL    HW255209   5.933   5.287   0.871  0.3255  1.3451  0.2687
17141SOL     OW55210   4.850   3.370   3.743  0.3966  0.2630 -0.3215
17141SOL    HW155211   4.777   3.345   3.799 -0.4300  1.7105 -0.6870
17141SOL    HW255212   4.816   3.443   3.691  1.8358  0.3955 -1.1312
17142SOL     OW55213   9.172   5.948   2.586 -0.6833 -0.2835  0.4466
17142SOL    HW155214   9.127   5.951   2.670  0.8459 -0.8059  1.3329
17142SOL    HW255215   9.132   6.019   2.535 -1.2081  0.4756  1.8499
17143SOL     OW55216   8.686   4.390   9.126 -0.3253  0.9421  0.3451
17143SOL    HW155217   8.634   4.349   9.196 -0.2894  0.4971  0.1131
17143SOL    HW255218   8.768   4.414   9.168 -0.6659  1.5355  0.6847
17144SOL     OW55219   0.874   3.896   9.562 -0.2432  0.1989 -0.1724
17144SOL    HW155220   0.883   3.867   9.472  1.6119  1.6697 -0.5145
17144SOL    HW255221   0.949   3.859   9.608 -0.9773 -0.2450  0.7052
17145SOL     OW55222   6.784   6.696   7.699 -0.1541  0.7834  0.0404
17145SOL    HW155223   6.746   6.781   7.677 -0.9295  0.6895  0.9927
17145SOL    HW255224   6.877   6.715   7.712 -0.3793  1.5632  0.5912
17146SOL     OW55225   9.249   4.755   6.106 -0.8705  0.2329  0.0173
17146SOL    HW155226   9.340   4.784   6.099 -0.3577 -1.3819 -0.5484
17146SOL    HW255227   9.230   4.759   6.199  0.4344 -1.1471  0.3912
17147SOL     OW55228   4.821   4.619   2.292  0.1975  0.3883 -0.2099
17147SOL    HW155229   4.761   4.547   2.311 -1.0612  1.4865  0.1389
17147SOL    HW255230   4.901   4.576   2.262  0.3369 -1.2669  2.1905
17148SOL     OW55231   6.804   2.988   1.822 -0.2526 -0.4033  0.1546
17148SOL    HW155232   6.733   3.009   1.882  1.2711 -1.2348  2.4325
17148SOL    HW255233   6.857   3.068   1.818  0.6489 -0.8776  1.5325
17149SOL     OW55234   7.667   5.635   9.717  0.4216 -0.2442  0.3442
17149SOL    HW155235   7.578   5.610   9.744  0.3337  0.7354  1.0397
17149SOL    HW255236   7.665   5.630   9.621  0.0126 -1.4744  0.3946
17150SOL     OW55237   2.440   0.592   2.033 -0.4945  0.2249  0.3878
17150SOL    HW155238   2.372   0.614   1.970  0.9192  0.2225 -1.2124
17150SOL    HW255239   2.447   0.496   2.028 -0.5254  0.2033  0.7225
17151SOL     OW55240   9.405   1.378   5.213  0.4730 -0.1855  0.0491
17151SOL    HW155241   9.317   1.415   5.201  0.7458  0.2870 -0.4914
17151SOL    HW255242   9.421   1.328   5.133  0.1523 -1.4152  0.7258
17152SOL     OW55243   4.881   1.197   5.776  0.2273  0.3060 -0.0761
17152SOL    HW155244   4.898   1.291   5.764 -0.0620  0.2623 -0.9244
17152SOL    HW255245   4.785   1.189   5.775  0.1978 -0.2764 -2.8316
17153SOL     OW55246   5.819   8.948   3.970 -0.0919 -1.0073 -0.9181
17153SOL    HW155247   5.875   8.874   3.947  1.2400 -0.5746  0.7061
17153SOL    HW255248   5.822   9.006   3.894  0.1293 -1.8754 -1.5860
17154SOL     OW55249   1.133   3.632   4.138 -0.3028  0.4698  0.5753
17154SOL    HW155250   1.177   3.597   4.060 -0.7271 -0.6460  0.8116
17154SOL    HW255251   1.051   3.669   4.105 -0.5721 -0.1746  0.4885
17155SOL     OW55252   6.815   1.872   0.288  0.3297  0.0581 -0.1332
17155SOL    HW155253   6.869   1.797   0.312  0.3739  0.7195  2.0823
17155SOL    HW255254   6.737   1.834   0.248  0.8422 -1.0955 -0.0737
17156SOL     OW55255   8.838   9.216   9.421  0.1008 -0.0016  0.3007
17156SOL    HW155256   8.791   9.270   9.484  0.3708 -0.9156  1.3198
17156SOL    HW255257   8.770   9.179   9.365 -0.6389 -2.2614  2.4833
17157SOL     OW55258   3.373   9.518   9.106  0.0092 -0.1904 -0.1661
17157SOL    HW155259   3.442   9.471   9.154  1.0949 -0.1650 -1.6293
17157SOL    HW255260   3.415   9.545   9.024 -1.1489  1.6850 -0.1941
17158SOL     OW55261   9.749   9.235  10.355 -0.2590 -0.6655  0.0687
17158SOL    HW155262   9.831   9.210  10.313  0.2910  0.8764  0.1716
17158SOL    HW255263   9.692   9.262  10.283 -0.2890 -0.6444  0.0999
17159SOL     OW55264   7.205   6.991   0.892 -0.0081 -0.1856 -0.3788
17159SOL    HW155265   7.193   6.903   0.855 -0.2390 -0.8561  1.1720
17159SOL    HW255266   7.119   7.013   0.928 -0.0885  0.9169 -1.2184
17160SOL     OW55267   8.924   7.187   4.105 -0.5538 -0.3841 -0.5050
17160SOL    HW155268   8.973   7.263   4.135  1.0867 -2.0276  1.2392
17160SOL    HW255269   8.854   7.224   4.050  0.6132  2.2826 -0.3680
17161SOL     OW55270   2.459   9.639   6.839  0.2557 -0.4435 -0.1126
17161SOL    HW155271   2.454   9.720   6.890  0.8466 -0.6801  0.3380
17161SOL    HW255272   2.371   9.627   6.805  0.1808  0.4319 -0.2551
17162SOL     OW55273   3.623  10.049   3.105  0.0770  0.5204  0.0149
17162SOL    HW155274   3.703  10.027   3.152 -0.4243 -1.1394  0.1698
17162SOL    HW255275   3.644  10.036   3.013  0.9231  3.3278 -0.2662
17163SOL     OW55276   6.166  10.354   4.066  0.3500 -0.4559  0.1881
17163SOL    HW155277   6.116  10.348   4.148  0.3570 -0.5603  0.1841
17163SOL    HW255278   6.221  10.432   4.078  0.4430 -0.5418  0.3340
17164SOL     OW55279   9.183   2.164   4.482  0.4716  0.1930  0.0296
17164SOL    HW155280   9.242   2.201   4.416  0.0711 -0.2793 -0.6041
17164SOL    HW255281   9.194   2.069   4.473  0.5150  0.1262  0.7385
17165SOL     OW55282   9.419   5.883   5.880  0.2133  0.3917 -0.0617
17165SOL    HW155283   9.411   5.951   5.814 -1.6969  0.5481  0.2764
17165SOL    HW255284   9.374   5.808   5.842  1.0306 -0.2378  0.1780
17166SOL     OW55285   4.308   7.999   1.623 -0.0769  0.5616 -0.0109
17166SOL    HW155286   4.289   7.970   1.533  0.8550  0.7996 -0.2999
17166SOL    HW255287   4.239   8.062   1.643 -1.2865 -0.7238  0.0802
17167SOL     OW55288   2.531   1.778   7.921 -0.3351 -0.4120  0.1208
17167SOL    HW155289   2.472   1.716   7.964  0.0508 -0.7079  0.2244
17167SOL    HW255290   2.596   1.723   7.878  0.2878 -0.0590  0.6130
17168SOL     OW55291   2.177   2.635   5.218 -0.2162  0.9592  0.4669
17168SOL    HW155292   2.199   2.549   5.182 -0.9639  0.7978  0.3682
17168SOL    HW255293   2.141   2.684   5.144  1.2445  1.7586  0.2674
17169SOL     OW55294   5.622   4.617   3.649  0.1551 -0.3840  0.4242
17169SOL    HW155295   5.577   4.701   3.640  0.3602 -0.3347 -0.2031
17169SOL    HW255296   5.714   4.636   3.629 -0.0390 -1.0229 -1.2714
17170SOL     OW55297   2.628   3.890   4.603  0.0268  0.9136  0.1128
17170SOL    HW155298   2.723   3.884   4.612 -0.0353  0.8917  0.8056
17170SOL    HW255299   2.599   3.799   4.597 -0.0731  0.8383  1.3811
17171SOL     OW55300   7.747   9.920   9.417  0.0492 -0.0936  0.3314
17171SOL    HW155301   7.696   9.985   9.465 -2.2562 -1.7168  0.2876
17171SOL    HW255302   7.830   9.915   9.463 -1.5188 -0.5826  3.4064
17172SOL     OW55303   2.322   7.382   9.360 -0.0500  0.1798 -0.8070
17172SOL    HW155304   2.417   7.369   9.359 -0.0343 -0.2914  1.6226
17172SOL    HW255305   2.305   7.433   9.281  2.6696  2.9693  0.1746
17173SOL     OW55306   9.055   2.604   8.097  0.2327  0.7362  0.1720
17173SOL    HW155307   9.149   2.602   8.115  0.2709 -1.0279 -0.0629
17173SOL    HW255308   9.029   2.512   8.096 -1.8898  1.2325  2.1345
17174SOL     OW55309   7.967   1.031   4.605  0.7898 -0.5118 -0.9445
17174SOL    HW155310   7.911   1.000   4.676  0.4067 -0.3450 -1.1709
17174SOL    HW255311   7.966   1.127   4.613  0.6155 -0.4845 -1.2726
17175SOL     OW55312   7.687   0.763   3.619 -0.0509 -0.0951 -0.1273
17175SOL    HW155313   7.772   0.806   3.618 -0.1848  0.4045  2.3665
17175SOL    HW255314   7.706   0.672   3.640 -0.0746 -0.2292 -0.6732
17176SOL     OW55315   9.748   5.365   5.603 -0.4130 -0.0765  0.1475
17176SOL    HW155316   9.670   5.387   5.551 -1.3284 -0.0544  1.4621
17176SOL    HW255317   9.759   5.270   5.591  0.3616  0.1651 -1.3227
17177SOL     OW55318   0.431   6.932   1.040  0.5477 -0.7498  0.2763
17177SOL    HW155319   0.407   6.843   1.065 -1.6472 -0.1520  0.5470
17177SOL    HW255320   0.356   6.963   0.989  1.5424  0.7375 -0.3430
17178SOL     OW55321   3.595   6.047   2.116  0.3095  0.7751  0.2194
17178SOL    HW155322   3.512   6.005   2.091  1.1102 -0.5309 -0.3906
17178SOL    HW255323   3.649   6.039   2.037  0.8233  2.1540  0.4182
17179SOL     OW55324   4.606   2.801   9.086 -0.1179  0.7821  0.3780
17179SOL    HW155325   4.591   2.762   9.173  0.6124  2.4885  1.3181
17179SOL    HW255326   4.533   2.862   9.075 -0.2974  0.4513 -0.2963
17180SOL     OW55327   0.574   2.884   8.360  0.2910 -0.0096 -0.1681
17180SOL    HW155328   0.545   2.795   8.380 -0.9546  0.7266  1.5909
17180SOL    HW255329   0.668   2.875   8.343  0.5119 -1.4766  1.4930
17181SOL     OW55330   0.434   9.253   0.291  0.2568  0.2306 -0.3241
17181SOL    HW155331   0.365   9.225   0.231  1.0525  1.0012 -1.6552
17181SOL    HW255332   0.462   9.339   0.257  0.8374  0.6170  1.0702
17182SOL     OW55333   1.296   6.313   8.571 -0.1878 -0.7954 -0.4528
17182SOL    HW155334   1.355   6.260   8.518  1.6709  0.9680 -0.2760
17182SOL    HW255335   1.344   6.329   8.652 -0.3593  1.6338 -0.7434
17183SOL     OW55336   5.401   3.194   8.291  0.2487  0.2917  0.1082
17183SOL    HW155337   5.356   3.131   8.348 -0.2706  1.3600  0.8973
17183SOL    HW255338   5.348   3.195   8.211  0.3995 -0.4359 -0.0151
17184SOL     OW55339   1.222   9.984   9.864 -0.0985 -0.1074 -0.5624
17184SOL    HW155340   1.243   9.938   9.783 -1.6706 -0.4446 -0.7970
17184SOL    HW255341   1.198   9.914   9.925 -1.3251  0.3057 -0.5562
17185SOL     OW55342   8.007   9.405   1.558  0.0122  0.2974  0.0849
17185SOL    HW155343   8.002   9.364   1.645  1.0039 -0.0749 -0.0172
17185SOL    HW255344   8.012   9.331   1.497 -0.1470  0.5621 -0.2517
17186SOL     OW55345   8.876   8.431   4.693  0.1622  0.1697  0.5348
17186SOL    HW155346   8.938   8.488   4.738 -0.7558  0.4056  1.5459
17186SOL    HW255347   8.927   8.352   4.672  1.3690  1.2172 -0.6343
17187SOL     OW55348   6.515   2.274   7.665 -0.2675 -0.4184 -0.6052
17187SOL    HW155349   6.588   2.329   7.637 -1.8342  1.3993 -1.3166
17187SOL    HW255350   6.450   2.282   7.595 -1.0470 -2.2608 -0.1582
17188SOL     OW55351   4.975   3.026   9.374 -0.0859 -0.1600  0.0647
17188SOL    HW155352   5.042   2.960   9.356 -0.7217 -0.6287 -0.6676
17188SOL    HW255353   4.983   3.088   9.301 -1.5329 -1.1300 -0.9853
17189SOL     OW55354   1.966   8.367   7.012  0.1869 -0.0133 -0.3584
17189SOL    HW155355   1.896   8.428   7.036  1.0265  0.6503  0.4568
17189SOL    HW255356   1.966   8.302   7.082  0.2587 -0.1295 -0.4650
17190SOL     OW55357   0.894   5.029   3.081  0.3003 -0.0466  0.0496
17190SOL    HW155358   0.850   4.973   3.018 -1.4666  1.7753 -0.4315
17190SOL    HW255359   0.874   5.118   3.053  0.2235  0.8425  2.6252
17191SOL     OW55360   0.428   1.004   1.647 -0.2698  0.2083  0.1490
17191SOL    HW155361   0.441   0.971   1.736  0.1334 -2.3875 -0.7624
17191SOL    HW255362   0.465   1.092   1.648  1.1941 -0.3460  2.1589
17192SOL     OW55363   1.205  10.003   8.085  0.2547 -0.2575  0.0729
17192SOL    HW155364   1.200   9.922   8.034 -0.8166 -0.6456  0.7611
17192SOL    HW255365   1.129  10.053   8.057  0.8780  0.5011 -0.3025
17193SOL     OW55366   7.308   0.520   0.891 -0.7444  0.4320  0.0608
17193SOL    HW155367   7.235   0.458   0.896 -1.2457  0.9315 -0.8183
17193SOL    HW255368   7.383   0.467   0.866 -1.1875  0.1905 -0.7794
17194SOL     OW55369   7.501   8.908   1.906 -0.6724 -0.2397 -0.0382
17194SOL    HW155370   7.475   8.984   1.958 -2.9365 -1.1725  0.3125
17194SOL    HW255371   7.556   8.856   1.966 -0.7039  0.1887  0.3660
17195SOL     OW55372   1.741   4.815   5.941  0.2018 -0.8650  0.1833
17195SOL    HW155373   1.717   4.735   5.895 -0.0798 -0.9477  0.4712
17195SOL    HW255374   1.659   4.845   5.981  0.6538 -1.4395  1.6239
17196SOL     OW55375   1.971   2.612   9.062  0.0935 -0.6457 -0.6395
17196SOL    HW155376   2.048   2.663   9.087  0.7831 -0.7904 -2.3594
17196SOL    HW255377   1.898   2.659   9.102  0.9882 -0.1440  0.4953
17197SOL     OW55378   4.880   3.278   1.990  0.3678  0.5352  0.2024
17197SOL    HW155379   4.794   3.318   2.002 -0.4131 -1.3698  1.3333
17197SOL    HW255380   4.895   3.283   1.895 -2.0715 -1.1498 -0.3620
17198SOL     OW55381   7.778   7.370   1.989 -0.1380 -0.0141 -0.2673
17198SOL    HW155382   7.833   7.398   2.062 -0.0258 -1.4447  0.2267
17198SOL    HW255383   7.732   7.450   1.961 -0.5183  0.4861  1.6474
17199SOL     OW55384   2.728   3.212   7.394  0.0653 -0.0932 -0.3608
17199SOL    HW155385   2.750   3.120   7.412  0.2482 -0.0796 -0.5155
17199SOL    HW255386   2.757   3.259   7.472 -1.2955 -0.3433  0.3366
17200SOL     OW55387   2.506   1.099   5.185  0.7433  0.0874  0.1198
17200SOL    HW155388   2.436   1.140   5.235  1.7202  0.0548  1.5738
17200SOL    HW255389   2.527   1.162   5.116  0.5300  0.9110  0.8017
17201SOL     OW55390   7.529   0.178   0.141 -0.0508  0.1100 -0.3650
17201SOL    HW155391   7.535   0.094   0.096 -0.7747  0.5916 -1.3849
17201SOL    HW255392   7.465   0.164   0.210  0.0734 -0.2610 -0.3220
17202SOL     OW55393   3.311   7.464   0.742  0.1564  0.4314 -0.1636
17202SOL    HW155394   3.269   7.430   0.663 -0.5188 -1.0808  0.8084
17202SOL    HW255395   3.245   7.521   0.782 -0.7183 -1.2021  0.8635
17203SOL     OW55396   1.867   5.884   1.607  0.0263  0.1612 -0.0144
17203SOL    HW155397   1.941   5.938   1.634 -0.5495  1.0647 -0.1569
17203SOL    HW255398   1.836   5.925   1.526  0.2693 -1.0786 -0.7554
17204SOL     OW55399   2.101   9.334   8.538  0.1895 -0.1092 -0.1254
17204SOL    HW155400   2.177   9.334   8.596  0.7562 -0.6491 -0.8512
17204SOL    HW255401   2.121   9.399   8.471 -0.2103  0.1008 -0.0462
17205SOL     OW55402   1.261  10.179   8.427  0.2211  0.6263  0.2600
17205SOL    HW155403   1.245  10.272   8.443 -0.7818  0.9519 -2.1697
17205SOL    HW255404   1.312  10.178   8.346  1.1086 -0.9315  0.8099
17206SOL     OW55405   1.085   3.750   7.908  0.0147  0.0640 -0.8616
17206SOL    HW155406   1.128   3.834   7.928  0.6219 -0.5181  0.4191
17206SOL    HW255407   1.041   3.727   7.990  0.1195 -1.0128 -1.1015
17207SOL     OW55408   4.586   7.396   1.388  0.2505 -0.8113  0.1607
17207SOL    HW155409   4.627   7.363   1.467 -0.9431 -0.5601  0.9185
17207SOL    HW255410   4.492   7.391   1.406 -0.0371 -0.3996 -1.0967
17208SOL     OW55411   0.538   8.238   9.249 -0.1220 -0.2355  0.1212
17208SOL    HW155412   0.606   8.209   9.310  1.0806 -1.8269 -1.8347
17208SOL    HW255413   0.496   8.157   9.221 -2.2166  0.6496  0.5158
17209SOL     OW55414   9.646   0.761   9.018  0.0839  0.6520  0.1161
17209SOL    HW155415   9.578   0.781   9.082 -1.2776  0.2435 -1.1611
17209SOL    HW255416   9.726   0.753   9.070 -0.3487  3.4510  1.3990
17210SOL     OW55417   4.016   1.899   7.767 -0.0105  0.1259  0.1981
17210SOL    HW155418   3.984   1.899   7.857  1.4967  0.6020  0.7656
17210SOL    HW255419   4.002   1.989   7.736  0.5797  0.2936  0.3948
17211SOL     OW55420   5.909   0.385   7.704 -0.0301  0.9376 -0.4234
17211SOL    HW155421   5.989   0.408   7.751 -0.6884  0.5353  0.9573
17211SOL    HW255422   5.860   0.467   7.699 -0.1951  0.8696  0.0772
17212SOL     OW55423   0.345   4.218   9.596  0.2723  0.1576 -0.2029
17212SOL    HW155424   0.373   4.144   9.650 -0.0028 -0.0020 -0.2764
17212SOL    HW255425   0.406   4.217   9.522 -0.1944 -0.4696 -0.5958
17213SOL     OW55426   1.555   9.061   4.023 -0.3011  0.3309 -0.4187
17213SOL    HW155427   1.565   9.032   4.113 -0.0866 -0.5283 -0.7107
17213SOL    HW255428   1.490   9.132   4.027 -0.2486  0.3341  0.4057
17214SOL     OW55429   7.304   2.303   0.902  0.1292 -0.2294  0.0836
17214SOL    HW155430   7.264   2.217   0.907 -0.2157 -0.0675  0.1105
17214SOL    HW255431   7.339   2.319   0.989 -0.4245 -0.0414  0.2695
17215SOL     OW55432   0.908   9.268   7.380 -0.6381  0.0646 -0.1517
17215SOL    HW155433   1.004   9.267   7.377 -0.6416  0.4019 -0.9716
17215SOL    HW255434   0.885   9.358   7.357 -1.1670 -0.3381 -1.2920
17216SOL     OW55435   7.646   9.598   1.957  1.1762  0.8812 -0.3345
17216SOL    HW155436   7.636   9.688   1.927  1.2968  1.0858  0.2143
17216SOL    HW255437   7.731   9.570   1.925  1.6058  1.3305  0.3845
17217SOL     OW55438   8.299   2.066   5.461 -0.2039  0.0765 -0.1027
17217SOL    HW155439   8.261   2.016   5.389 -1.2458 -1.8081  1.6703
17217SOL    HW255440   8.349   2.002   5.512  1.8975  1.6807  0.0258
17218SOL     OW55441  10.291   6.474   5.929 -0.5691 -0.4858  0.2608
17218SOL    HW155442  10.226   6.446   5.864  0.7324 -2.3122 -0.3294
17218SOL    HW255443  10.351   6.400   5.936  0.3877  0.4050  2.2044
17219SOL     OW55444   2.999   8.801   2.241 -0.2592  0.1078  0.2038
17219SOL    HW155445   3.029   8.837   2.157  0.2627 -0.6135  0.0712
17219SOL    HW255446   3.038   8.713   2.244 -2.3664 -0.9060 -0.0025
17220SOL     OW55447   8.822   2.802   4.560  0.0752 -0.2773  0.4120
17220SOL    HW155448   8.818   2.883   4.510  1.0067 -0.6670 -0.3182
17220SOL    HW255449   8.731   2.785   4.584  0.0614  2.0068  2.2942
17221SOL     OW55450   5.762   6.680   8.626  0.1915  0.0264 -0.3773
17221SOL    HW155451   5.727   6.592   8.635 -2.0106  0.9087  0.2927
17221SOL    HW255452   5.763   6.697   8.532 -2.7437  0.4809 -0.4124
17222SOL     OW55453   1.005   3.714   5.220  0.8527 -0.6713 -0.1544
17222SOL    HW155454   1.033   3.707   5.128  2.6960 -0.4696  0.3448
17222SOL    HW255455   0.938   3.782   5.219  0.5280 -0.9679 -1.3979
17223SOL     OW55456   2.488   4.541   5.715  0.5546  0.1069 -0.5159
17223SOL    HW155457   2.521   4.473   5.656 -1.6537 -2.0304  0.5155
17223SOL    HW255458   2.450   4.607   5.657 -0.2231 -1.2021 -1.5570
17224SOL     OW55459   3.210   2.203   0.226  0.4082 -0.1734  0.1451
17224SOL    HW155460   3.211   2.117   0.268 -0.2794 -0.9113 -1.2640
17224SOL    HW255461   3.261   2.260   0.285  0.3295 -1.3753  1.4226
17225SOL     OW55462   6.477   5.456   4.375  0.1625 -0.5416 -0.3212
17225SOL    HW155463   6.463   5.519   4.304 -0.7342 -1.6354 -1.1568
17225SOL    HW255464   6.560   5.414   4.354  0.8821  0.4814  0.3646
17226SOL     OW55465  10.057   8.207   9.279  0.4400 -0.4990  0.3353
17226SOL    HW155466  10.147   8.190   9.251  0.1467  0.5165 -1.3846
17226SOL    HW255467  10.003   8.184   9.203 -0.5479  1.0524  0.5124
17227SOL     OW55468   8.932   7.705   1.092  0.0106  0.1496 -0.3169
17227SOL    HW155469   8.952   7.789   1.051 -0.6562  1.2554  1.5242
17227SOL    HW255470   8.852   7.676   1.047 -0.1963  0.8804 -0.4346
17228SOL     OW55471   9.924   8.988   5.096 -0.3000  0.3089 -0.0944
17228SOL    HW155472   9.939   8.996   5.190  0.1846  0.0460 -0.1472
17228SOL    HW255473   9.951   8.899   5.075 -0.1375  0.4600 -0.5329
17229SOL     OW55474   1.719   5.067  10.143 -0.4468  0.2735 -0.5533
17229SOL    HW155475   1.769   5.044  10.221  0.1811  0.4230 -0.9025
17229SOL    HW255476   1.653   5.129  10.174 -1.1096 -0.7292  0.1023
17230SOL     OW55477   3.312   1.370   8.105 -0.1258  0.1453  0.7537
17230SOL    HW155478   3.379   1.303   8.120  1.1868  1.6256  1.9093
17230SOL    HW255479   3.282   1.394   8.193 -1.9403 -0.1975  0.2723
17231SOL     OW55480   7.767   4.320   4.876  0.2582 -0.5552  0.2793
17231SOL    HW155481   7.827   4.277   4.815  0.4821 -1.2314  0.9572
17231SOL    HW255482   7.823   4.347   4.949 -0.1201 -0.4140  0.5177
17232SOL     OW55483   8.218   9.642   5.921  0.3104 -0.5125 -0.0751
17232SOL    HW155484   8.281   9.579   5.884  0.1326 -0.3654 -0.6437
17232SOL    HW255485   8.233   9.639   6.015  2.0288  0.4001 -0.2741
17233SOL     OW55486   9.912   3.423   9.444 -0.2879 -0.9833 -0.5740
17233SOL    HW155487   9.860   3.497   9.478  1.2793 -0.6510  1.2930
17233SOL    HW255488   9.848   3.353   9.430 -1.4568 -0.0823  0.0865
17234SOL     OW55489   2.596   0.128   7.343  0.5992  0.1254 -0.1569
17234SOL    HW155490   2.631   0.079   7.269 -0.0731 -2.4026  1.0888
17234SOL    HW255491   2.529   0.185   7.305 -0.4858 -1.8874 -1.4189
17235SOL     OW55492   0.643   5.504   0.696  0.0379  0.7510  0.2938
17235SOL    HW155493   0.651   5.468   0.784 -0.9595 -0.2400  0.0057
17235SOL    HW255494   0.678   5.593   0.703 -0.5151  0.8746  1.8006
17236SOL     OW55495   5.904   4.853  10.346 -0.5858  0.1804 -0.5661
17236SOL    HW155496   5.997   4.872  10.359 -1.1365  1.6490  2.0142
17236SOL    HW255497   5.875   4.820  10.431 -2.5642  0.3825 -1.1286
17237SOL     OW55498   4.493   3.460   0.704 -0.0967  0.3481  0.3887
17237SOL    HW155499   4.443   3.381   0.685  0.3918  0.3306 -0.9171
17237SOL    HW255500   4.572   3.452   0.651  0.1475  1.5222  0.5411
17238SOL     OW55501   3.385   5.120   8.145  0.5658 -0.2820 -0.3556
17238SOL    HW155502   3.458   5.161   8.099 -0.1845  0.3415 -1.0171
17238SOL    HW255503   3.404   5.136   8.238  2.5764 -2.3690 -0.3146
17239SOL     OW55504  10.360   7.297   7.850  0.0540 -0.6714 -0.2957
17239SOL    HW155505  10.344   7.203   7.854 -2.5518 -0.3770 -1.5816
17239SOL    HW255506  10.326   7.330   7.933 -2.3028 -0.5571 -1.2305
17240SOL     OW55507   4.716   2.829   8.069 -0.2422  0.6301 -0.0259
17240SOL    HW155508   4.785   2.800   8.009 -0.3757  3.0191 -1.4496
17240SOL    HW255509   4.756   2.823   8.156  0.6471 -1.0048 -0.5020
17241SOL     OW55510   7.378   8.781   3.394 -0.2957 -0.3603 -0.1708
17241SOL    HW155511   7.395   8.754   3.484  0.0015 -0.2332 -0.1865
17241SOL    HW255512   7.286   8.758   3.379 -0.4315 -0.1203  0.2577
17242SOL     OW55513   4.563   6.246   9.509 -0.2389  0.6795  0.3634
17242SOL    HW155514   4.622   6.177   9.479  0.0919  1.1958 -0.1792
17242SOL    HW255515   4.579   6.319   9.450 -1.3052  0.8802  0.3054
17243SOL     OW55516   3.030   6.325   0.746 -0.2040  0.2977 -0.4807
17243SOL    HW155517   3.054   6.378   0.671 -0.5788  0.3365 -0.5755
17243SOL    HW255518   3.075   6.241   0.731 -0.1758  0.3481 -0.6833
17244SOL     OW55519   9.359   7.517   8.860 -0.2502  0.2355  1.1333
17244SOL    HW155520   9.289   7.580   8.877  1.2105  2.7822 -1.3094
17244SOL    HW255521   9.326   7.463   8.789  0.4340  1.9885 -0.6080
17245SOL     OW55522   0.137   9.048   4.481  0.0148 -0.4673  0.2531
17245SOL    HW155523   0.169   8.962   4.455 -1.2911 -1.2219  1.0609
17245SOL    HW255524   0.042   9.038   4.489 -0.2688  1.2543 -0.3877
17246SOL     OW55525   3.524   8.307   4.845  0.3356 -0.6163 -0.2184
17246SOL    HW155526   3.451   8.294   4.905 -0.9197  1.5436 -1.1330
17246SOL    HW255527   3.523   8.230   4.788 -1.5108 -0.4663 -0.4447
17247SOL     OW55528   3.652   6.291   2.688  0.4684  0.5175  0.5965
17247SOL    HW155529   3.661   6.308   2.782 -0.5787  0.5826  0.7001
17247SOL    HW255530   3.620   6.374   2.652  0.9807  0.5284  0.1637
17248SOL     OW55531   9.350   1.077   8.013 -0.2004  0.4302 -0.0916
17248SOL    HW155532   9.301   1.123   8.081 -0.1491  1.6623 -0.8462
17248SOL    HW255533   9.382   1.147   7.956  0.6131 -0.5025 -0.8170
17249SOL     OW55534   8.969   6.812   5.923  0.3677 -0.6495  0.5407
17249SOL    HW155535   9.035   6.881   5.936 -1.1525  0.8550  0.6200
17249SOL    HW255536   8.986   6.749   5.993  2.0406 -0.5965  0.2387
17250SOL     OW55537   2.828   1.613   2.166  0.0678 -0.5332  0.3314
17250SOL    HW155538   2.756   1.627   2.105 -0.9012 -0.1557  1.5282
17250SOL    HW255539   2.906   1.637   2.116 -0.4035 -2.6594 -1.5820
17251SOL     OW55540   9.074   8.555   4.850 -0.0764  0.1773  0.0131
17251SOL    HW155541   9.059   8.536   4.943 -0.2366  0.4395  0.0435
17251SOL    HW255542   9.162   8.522   4.833  0.0716  0.3899  0.3358
17252SOL     OW55543   9.528   4.359   8.529  0.7522  0.2851 -0.7258
17252SOL    HW155544   9.451   4.356   8.472  0.6593 -1.1080 -0.5570
17252SOL    HW255545   9.550   4.452   8.535 -2.3900  1.0658  1.1664
17253SOL     OW55546   9.829   6.274   0.939 -0.4703 -0.2472 -0.3622
17253SOL    HW155547   9.886   6.349   0.958  2.3316 -2.5806  1.4142
17253SOL    HW255548   9.864   6.238   0.857 -0.5682 -0.6944 -0.2066
17254SOL     OW55549   3.995  10.333   2.712 -0.0676 -0.1227  0.4902
17254SOL    HW155550   3.914  10.289   2.688 -0.8706  1.0698  0.9421
17254SOL    HW255551   4.037  10.354   2.629 -1.4741  1.4892  0.1155
17255SOL     OW55552  10.187   7.347   7.402 -0.3294  0.0237 -0.4373
17255SOL    HW155553  10.176   7.273   7.461  0.9084  1.3704  1.5726
17255SOL    HW255554  10.279   7.343   7.376 -0.3182  0.7315 -0.5128
17256SOL     OW55555   3.376   9.646   2.450 -0.3169 -0.3262  0.4377
17256SOL    HW155556   3.381   9.663   2.544  0.7886  0.7954  0.2074
17256SOL    HW255557   3.315   9.712   2.417  0.3264  0.1488  0.1887
17257SOL     OW55558   6.307   1.187   2.183 -0.4985 -0.1454  0.3211
17257SOL    HW155559   6.325   1.260   2.124  0.2257 -0.9863 -0.5508
17257SOL    HW255560   6.224   1.150   2.150 -0.3393 -0.3227  0.1092
17258SOL     OW55561   4.730   8.999   1.986 -0.0167 -0.5225  0.5997
17258SOL    HW155562   4.794   9.012   1.917  0.4995 -1.7749  0.8278
17258SOL    HW255563   4.678   8.924   1.958  0.1583 -1.0086  1.5381
17259SOL     OW55564   6.620   3.383   6.990  0.7821  0.0771 -0.0718
17259SOL    HW155565   6.641   3.441   7.063  2.0328 -0.0376 -0.3264
17259SOL    HW255566   6.532   3.410   6.963  0.9546  1.2039  0.4343
17260SOL     OW55567   5.970   3.577   5.896  0.8408 -0.4475  0.3867
17260SOL    HW155568   5.987   3.658   5.847  0.4573  0.7977  2.2122
17260SOL    HW255569   6.028   3.513   5.856 -0.1610  0.2044 -2.3393
17261SOL     OW55570   6.198   3.542   6.553 -0.4475  0.2608 -0.4657
17261SOL    HW155571   6.291   3.562   6.569 -0.2629  0.5844 -1.7849
17261SOL    HW255572   6.150   3.600   6.611  0.1668 -1.2087  1.6199
17262SOL     OW55573   6.231   8.101   0.428 -0.4977  0.1572  0.3675
17262SOL    HW155574   6.193   8.120   0.342 -1.9374 -2.3591  0.3304
17262SOL    HW255575   6.314   8.148   0.429 -0.5397  0.4469 -2.3093
17263SOL     OW55576   1.498   9.932   8.707  0.0126  0.2598  0.2230
17263SOL    HW155577   1.404   9.952   8.706 -0.2698 -0.9738 -0.4074
17263SOL    HW255578   1.514   9.893   8.621  1.1020  0.4251  0.3426
17264SOL     OW55579   6.032   3.181   2.604  0.6168  0.1245 -0.2088
17264SOL    HW155580   5.996   3.193   2.517 -0.5326 -0.8009  0.1181
17264SOL    HW255581   6.014   3.265   2.648 -2.4124 -0.6885  0.3464
17265SOL     OW55582   9.801   4.902   4.979 -0.3723  0.0275 -0.1107
17265SOL    HW155583   9.857   4.825   4.988  0.6583  0.6979 -0.5247
17265SOL    HW255584   9.765   4.896   4.890 -1.7263 -0.8857  0.4785
17266SOL     OW55585   8.157   2.419  10.117 -0.2312 -0.0762  0.4974
17266SOL    HW155586   8.187   2.332  10.092 -0.5985  0.2602 -1.2275
17266SOL    HW255587   8.077   2.403  10.168 -0.2763 -0.7566  0.2252
17267SOL     OW55588   4.876   2.742   5.430  0.2359  0.4200 -0.2247
17267SOL    HW155589   4.941   2.803   5.467 -0.4500 -0.1705  2.1316
17267SOL    HW255590   4.925   2.661   5.416 -0.0588 -0.3389  2.4757
17268SOL     OW55591   5.476   2.261   9.096 -0.1967  0.2333 -0.0381
17268SOL    HW155592   5.409   2.204   9.133 -0.9760  0.9283 -0.3567
17268SOL    HW255593   5.428   2.330   9.052  0.7402  1.2634  0.5067
17269SOL     OW55594   3.949   2.409   8.784  0.7349  0.1323  0.1399
17269SOL    HW155595   3.889   2.439   8.852  1.7493  0.2119  1.0176
17269SOL    HW255596   3.891   2.370   8.717 -0.2041 -2.2562  2.1589
17270SOL     OW55597   9.535   6.547   9.809  0.9281 -0.1939  0.2233
17270SOL    HW155598   9.555   6.456   9.786  0.6409 -0.3578  0.6167
17270SOL    HW255599   9.470   6.574   9.744 -0.6897 -0.9991  1.4433
17271SOL     OW55600   9.426   2.461   5.224  0.3071 -0.8034  0.3359
17271SOL    HW155601   9.347   2.416   5.253  0.0226  0.2983  1.4016
17271SOL    HW255602   9.487   2.392   5.201 -0.7430 -1.6816  0.1233
17272SOL     OW55603   9.692   0.357   9.699 -0.1947 -0.4922  0.0944
17272SOL    HW155604   9.680   0.323   9.610 -0.0872 -1.2732  0.3733
17272SOL    HW255605   9.604   0.380   9.728 -0.0394  1.6149 -0.9155
17273SOL     OW55606   8.949   9.528   4.356  0.2790  0.4494 -0.2186
17273SOL    HW155607   8.913   9.566   4.276  1.0135  1.0233 -0.2882
17273SOL    HW255608   8.890   9.456   4.377 -1.3827  1.8504  0.1299
17274SOL     OW55609   8.214   4.636   7.157 -0.1070 -0.3047 -0.3832
17274SOL    HW155610   8.270   4.567   7.192 -0.7442 -1.8352 -2.2053
17274SOL    HW255611   8.128   4.619   7.196 -0.5818 -1.4198 -1.8114
17275SOL     OW55612   1.713   8.154   9.283 -0.1972 -0.3750 -0.1453
17275SOL    HW155613   1.683   8.236   9.243 -1.1358  0.2376  1.7088
17275SOL    HW255614   1.633   8.103   9.297 -0.3480  0.5989  3.3861
17276SOL     OW55615   8.448   1.927   3.890  0.7080  0.2980  0.2376
17276SOL    HW155616   8.431   1.865   3.961  1.9656  0.8833  1.0772
17276SOL    HW255617   8.362   1.963   3.869  0.3594  0.4767  1.8119
17277SOL     OW55618   0.354   7.849   4.833 -0.0466 -0.0857  0.0159
17277SOL    HW155619   0.446   7.822   4.841  0.0923  0.7087  1.2008
17277SOL    HW255620   0.305   7.770   4.855  0.3633 -0.1258  0.8320
17278SOL     OW55621   9.543   4.947   1.852 -0.5493  0.0192  0.2602
17278SOL    HW155622   9.508   4.885   1.916  0.9252  0.3046  1.4095
17278SOL    HW255623   9.518   5.033   1.886  0.2450  0.1715  0.4732
17279SOL     OW55624   5.936   7.337   1.555 -0.0367  0.4832  0.0913
17279SOL    HW155625   5.889   7.289   1.623 -0.5004 -0.1948 -0.6952
17279SOL    HW255626   6.023   7.298   1.553 -0.6564 -0.9246 -1.1010
17280SOL     OW55627   6.866   8.153   5.515 -0.3132 -0.2297 -0.5967
17280SOL    HW155628   6.810   8.090   5.561  0.2017 -0.1797  0.1176
17280SOL    HW255629   6.934   8.175   5.579  0.4639 -0.2134 -1.4166
17281SOL     OW55630   2.873   1.260   1.646  0.8105 -0.5177  0.1025
17281SOL    HW155631   2.849   1.216   1.564  0.1380 -0.9269  0.5111
17281SOL    HW255632   2.968   1.252   1.651  0.8202 -0.7939 -0.4655
17282SOL     OW55633   5.261   9.015   4.633 -0.4111 -0.7314  0.1284
17282SOL    HW155634   5.324   9.006   4.705 -1.1628 -0.9656  0.7655
17282SOL    HW255635   5.278   8.939   4.576  0.1744 -0.5524  0.0586
17283SOL     OW55636   6.120   4.537   4.200 -0.1360 -0.0111  0.0685
17283SOL    HW155637   6.090   4.617   4.158  0.2754 -1.0345 -2.3419
17283SOL    HW255638   6.206   4.559   4.236 -1.4010  1.4785  2.4232
17284SOL     OW55639   3.517   6.230   3.903 -0.2919 -0.1566 -0.7617
17284SOL    HW155640   3.453   6.255   3.969 -0.5023  0.6560 -1.2722
17284SOL    HW255641   3.566   6.158   3.944  0.6456  1.3557  0.9419
17285SOL     OW55642   6.621   4.896  10.092 -0.3474 -0.2899 -0.0115
17285SOL    HW155643   6.570   4.970  10.125  0.9085  1.0652 -0.9447
17285SOL    HW255644   6.590   4.820  10.141 -0.9482  1.0445  1.7505
17286SOL     OW55645   0.069   4.940   1.092  0.2147  0.1533 -0.2725
17286SOL    HW155646   0.086   4.933   1.186 -1.3350  1.8407  0.2078
17286SOL    HW255647   0.070   4.850   1.060  0.9092 -0.4365  1.3392
17287SOL     OW55648   5.962   0.308   3.156 -0.4299  0.5743  0.3743
17287SOL    HW155649   5.886   0.260   3.121  1.0495 -0.7733 -1.1611
17287SOL    HW255650   5.952   0.302   3.251 -1.7333 -0.4227  0.2028
17288SOL     OW55651   4.149   2.984   6.920  0.0318  0.1953  0.5510
17288SOL    HW155652   4.164   2.896   6.954 -0.4634  0.1823  0.7467
17288SOL    HW255653   4.058   3.004   6.944 -0.0568  0.5199 -0.0190
17289SOL     OW55654   1.713   9.287   9.679  0.1071  0.5672 -1.0160
17289SOL    HW155655   1.806   9.286   9.702  0.4144  1.2142 -2.1289
17289SOL    HW255656   1.696   9.200   9.645  0.4723  0.6429 -1.4007
17290SOL     OW55657   2.831   5.887   7.340  0.0921  0.4127 -0.0231
17290SOL    HW155658   2.864   5.798   7.325 -1.2844 -0.3348  1.0617
17290SOL    HW255659   2.739   5.883   7.313 -0.4371  1.0230  1.5822
17291SOL     OW55660   5.698   8.612   0.485  0.2416 -0.4505  0.0755
17291SOL    HW155661   5.705   8.585   0.577 -0.2647 -1.5591 -0.1956
17291SOL    HW255662   5.783   8.590   0.447  0.2659 -0.4930  0.1555
17292SOL     OW55663   5.769   7.186   2.061 -0.1906  0.2217 -0.1890
17292SOL    HW155664   5.811   7.229   2.135  0.1450  0.9706 -0.7996
17292SOL    HW255665   5.693   7.141   2.099  0.2268  0.2262  0.6656
17293SOL     OW55666   6.151   2.179   9.904 -0.9780 -0.7571  0.0863
17293SOL    HW155667   6.209   2.187   9.828 -0.1071 -2.4725  0.5039
17293SOL    HW255668   6.157   2.264   9.947  2.2831 -1.1658  0.7605
17294SOL     OW55669   1.292   3.388   0.884 -0.0740 -0.1752 -0.2616
17294SOL    HW155670   1.224   3.452   0.904 -1.1800 -1.4927  0.3351
17294SOL    HW255671   1.329   3.417   0.801 -1.1502  0.7234 -0.4461
17295SOL     OW55672   7.768   4.710   7.378 -0.3232  0.4038  0.3486
17295SOL    HW155673   7.816   4.793   7.375 -0.9478  0.7599 -0.3354
17295SOL    HW255674   7.755   4.687   7.286  1.1210 -1.2430  0.5027
17296SOL     OW55675   8.776   9.338   6.505 -0.0557 -0.0018  0.0047
17296SOL    HW155676   8.767   9.389   6.585 -0.1918 -0.8410  0.5366
17296SOL    HW255677   8.693   9.292   6.496 -0.8758  1.6687 -1.7727
17297SOL     OW55678   4.384   0.911   2.359 -0.0349 -0.0671 -0.4506
17297SOL    HW155679   4.355   0.973   2.292 -4.0851  0.0125  1.0580
17297SOL    HW255680   4.343   0.828   2.334 -0.2181 -0.4355  0.9572
17298SOL     OW55681   9.767   5.308   6.604  0.1444  0.2218 -0.5928
17298SOL    HW155682   9.837   5.258   6.562  0.6267 -0.5101  0.9912
17298SOL    HW255683   9.688   5.256   6.590  0.0591  0.6272 -1.6660
17299SOL     OW55684  10.162   1.297   3.404 -0.0180 -0.2092  0.0140
17299SOL    HW155685  10.232   1.288   3.339  0.7663 -2.8439  1.0943
17299SOL    HW255686  10.204   1.339   3.479 -0.1330  0.1014 -0.0968
17300SOL     OW55687   6.230   1.529   9.278 -0.1557 -0.2172 -0.0016
17300SOL    HW155688   6.155   1.542   9.220 -0.8903  1.9775  1.3277
17300SOL    HW255689   6.192   1.525   9.365  1.1776 -0.4534  0.5923
17301SOL     OW55690   4.349   4.288   9.906  0.3694  0.1596 -0.0548
17301SOL    HW155691   4.307   4.301   9.991  2.1907  0.2426  0.8907
17301SOL    HW255692   4.306   4.350   9.848 -2.1141 -1.0844  0.3187
17302SOL     OW55693   1.465   9.889   6.827  0.4735  0.5477 -0.1761
17302SOL    HW155694   1.411   9.837   6.888 -1.4806  0.8558 -1.5417
17302SOL    HW255695   1.405   9.956   6.794  1.6193  0.6914 -2.0751
17303SOL     OW55696   7.966   0.329   2.576  0.0200  0.2970 -0.0438
17303SOL    HW155697   7.949   0.414   2.617 -0.2821  0.9440 -1.4594
17303SOL    HW255698   7.880   0.296   2.552  0.2840  0.8754 -1.9528
17304SOL     OW55699   2.961   5.594   9.833  0.3165  0.4444 -0.3126
17304SOL    HW155700   2.962   5.536   9.757 -0.5236  0.7752 -0.5896
17304SOL    HW255701   2.967   5.535   9.908 -3.9830 -0.4410 -0.3881
17305SOL     OW55702   8.909   9.960   0.287  0.6222  0.2807  0.6879
17305SOL    HW155703   8.941  10.042   0.249  0.2740  0.8537  1.6114
17305SOL    HW255704   8.822   9.981   0.319  0.8641 -0.2230  1.6962
17306SOL     OW55705   7.763   7.465   1.103  0.6261 -0.8374  0.2301
17306SOL    HW155706   7.763   7.386   1.156 -0.0990 -0.8736  0.1821
17306SOL    HW255707   7.850   7.467   1.063  0.2528 -2.2420 -0.7058
17307SOL     OW55708   0.903   6.197   5.024  0.1162 -0.1033 -0.1740
17307SOL    HW155709   0.899   6.267   5.089  0.6638 -1.4959  1.4134
17307SOL    HW255710   0.977   6.143   5.050 -2.2509 -3.1718  0.6875
17308SOL     OW55711   3.044   7.297   0.915 -0.1702  0.4018  0.0483
17308SOL    HW155712   3.095   7.376   0.898 -0.5339  0.7164  0.4248
17308SOL    HW255713   3.101   7.244   0.971  0.4020  0.0330 -0.8514
17309SOL     OW55714   9.701   3.154   4.396  0.3869 -0.1520  0.5484
17309SOL    HW155715   9.796   3.151   4.382  0.4055  0.5213  0.4678
17309SOL    HW255716   9.664   3.156   4.308  0.4240  2.1880  0.5227
17310SOL     OW55717   1.749   6.583   8.020  0.1880 -0.6354  0.5177
17310SOL    HW155718   1.681   6.515   8.030  1.5103 -2.1645 -0.3232
17310SOL    HW255719   1.820   6.554   8.076  1.0143 -0.2744 -0.3145
17311SOL     OW55720   3.763   1.761   4.210  0.4548  0.0096  0.0576
17311SOL    HW155721   3.857   1.755   4.197  0.1847 -0.6596 -1.8403
17311SOL    HW255722   3.741   1.682   4.259  0.9400  0.5362  1.1808
17312SOL     OW55723   3.706   2.287   7.394  0.1927 -0.4368  0.0420
17312SOL    HW155724   3.711   2.311   7.487 -0.4412  0.0185 -0.0321
17312SOL    HW255725   3.797   2.286   7.365  0.5016 -1.7307  0.9425
17313SOL     OW55726   0.670   7.709   2.750 -0.0123 -0.1994  0.6464
17313SOL    HW155727   0.692   7.713   2.843  0.8674  0.7856  0.4076
17313SOL    HW255728   0.742   7.754   2.706 -1.0182  0.4147 -0.4175
17314SOL     OW55729  10.361   9.108   5.523  0.2203  0.6276  0.2706
17314SOL    HW155730  10.433   9.125   5.462  0.3146 -0.4463  0.0582
17314SOL    HW255731  10.364   9.181   5.585  0.6560  1.2848 -0.5125
17315SOL     OW55732   4.855   2.853   1.464 -0.0938 -0.1391 -0.5157
17315SOL    HW155733   4.950   2.856   1.453 -0.0467 -0.3152 -0.1880
17315SOL    HW255734   4.838   2.919   1.532  0.0253 -1.4787  0.8557
17316SOL     OW55735   8.541   7.206  10.275 -0.0906 -0.0525  0.6364
17316SOL    HW155736   8.508   7.119  10.252 -1.4811 -0.1630  2.7973
17316SOL    HW255737   8.524   7.259  10.197 -1.1750 -1.2332  0.0306
17317SOL     OW55738   2.318   5.642   0.811 -0.5235 -0.0818 -0.0083
17317SOL    HW155739   2.311   5.570   0.874 -0.9168  0.2675  0.3551
17317SOL    HW255740   2.411   5.659   0.803 -0.4830  0.0116  0.6413
17318SOL     OW55741   0.656   2.440   7.868 -0.1364 -0.4981 -0.3447
17318SOL    HW155742   0.750   2.434   7.852 -0.1790 -1.8019 -0.2311
17318SOL    HW255743   0.646   2.515   7.927  0.5705  1.0497 -2.0874
17319SOL     OW55744   0.194   9.346   9.260 -0.2319  0.4071  0.4065
17319SOL    HW155745   0.106   9.373   9.233 -0.6605 -0.2725  1.0735
17319SOL    HW255746   0.191   9.250   9.257  0.0398  0.3354  1.7813
17320SOL     OW55747   0.529   8.128   5.036 -0.0019  0.4817 -0.5227
17320SOL    HW155748   0.606   8.087   5.076 -0.0853  1.8813  1.2233
17320SOL    HW255749   0.556   8.149   4.947  1.7319  1.1093  0.1165
17321SOL     OW55750  10.071   4.265   6.278 -0.0599  0.4977 -0.5945
17321SOL    HW155751   9.992   4.264   6.333  0.8259 -1.9867  0.7659
17321SOL    HW255752  10.038   4.250   6.189 -1.1739  0.2450 -0.1610
17322SOL     OW55753   0.851   3.396   2.191  0.4418 -0.2021  0.3060
17322SOL    HW155754   0.839   3.341   2.269 -0.3795 -0.2854  0.1290
17322SOL    HW255755   0.840   3.485   2.223 -1.7277 -0.3152 -0.0168
17323SOL     OW55756   9.000   0.925   6.157  0.1704 -0.4840  0.3778
17323SOL    HW155757   8.973   0.854   6.099 -0.6535  0.5933 -0.6181
17323SOL    HW255758   8.946   0.913   6.235 -0.6751 -0.4225 -0.1730
17324SOL     OW55759   8.799   6.781   2.227  0.2620  0.4335  0.2011
17324SOL    HW155760   8.796   6.694   2.265  2.1401  0.4355  0.4435
17324SOL    HW255761   8.715   6.821   2.251 -1.0470 -1.6130 -0.7747
17325SOL     OW55762   1.603   6.911   1.488  0.4551  0.2627  0.7233
17325SOL    HW155763   1.549   6.949   1.557  0.5273  1.3167  0.2297
17325SOL    HW255764   1.540   6.878   1.424  0.3624 -1.8771  1.8460
17326SOL     OW55765   6.670   0.484  10.229 -0.2678  0.2809  0.1782
17326SOL    HW155766   6.733   0.525  10.169  1.3116  1.4068  2.4517
17326SOL    HW255767   6.706   0.397  10.247 -0.2990  0.2564  0.1215
17327SOL     OW55768   9.228   6.370   2.758  0.2765  0.3347  0.1338
17327SOL    HW155769   9.243   6.464   2.749 -0.3778  0.5732  1.3429
17327SOL    HW255770   9.189   6.343   2.674  1.6953  0.8556 -0.7293
17328SOL     OW55771   6.695   5.984   5.179  0.5287  0.2645 -0.0916
17328SOL    HW155772   6.749   6.027   5.245  0.4922 -1.4933  1.1482
17328SOL    HW255773   6.625   6.047   5.162  2.4787  2.2752 -1.1932
17329SOL     OW55774   4.747   1.397   2.896  0.2777 -0.3456  0.6834
17329SOL    HW155775   4.733   1.315   2.944 -1.8285  1.1350  2.8327
17329SOL    HW255776   4.840   1.417   2.909  0.1629 -0.9164  2.7289
17330SOL     OW55777   4.472   5.076   7.526 -0.5830 -0.3568 -0.0952
17330SOL    HW155778   4.488   5.079   7.620 -0.5235 -1.1904 -0.0746
17330SOL    HW255779   4.498   4.988   7.500 -0.3232 -0.0357 -0.9454
17331SOL     OW55780   5.009  10.313   4.028 -0.3180 -0.1109 -0.0116
17331SOL    HW155781   5.067  10.293   3.954  2.8946 -0.7488  2.4592
17331SOL    HW255782   4.926  10.270   4.006  0.3922 -0.0382 -3.2812
17332SOL     OW55783   3.864   7.316   1.542  0.2546 -0.1796 -0.1947
17332SOL    HW155784   3.771   7.328   1.523  0.1967 -0.4545 -0.0956
17332SOL    HW255785   3.875   7.221   1.548 -0.0423 -0.1167  2.6389
17333SOL     OW55786   4.372   0.386   9.866 -0.0689 -0.1616  0.7577
17333SOL    HW155787   4.349   0.317   9.804  0.7107 -1.1001  1.4639
17333SOL    HW255788   4.375   0.466   9.814 -0.6633 -0.7111 -0.1510
17334SOL     OW55789   6.150   0.049   3.762  0.4173  0.1235 -0.2044
17334SOL    HW155790   6.131   0.066   3.855  1.0336  1.2115 -0.2517
17334SOL    HW255791   6.065   0.034   3.722 -0.1675  2.5093  0.0178
17335SOL     OW55792   3.793   9.047   3.520  0.2596 -0.2292 -0.0480
17335SOL    HW155793   3.861   8.998   3.475 -0.2119 -1.6136  0.6961
17335SOL    HW255794   3.823   9.052   3.611 -0.3515 -0.3566  0.1667
17336SOL     OW55795   6.481   2.412  10.240 -0.4373  0.2044 -0.1389
17336SOL    HW155796   6.424   2.339  10.265  0.0788  0.5571  2.3093
17336SOL    HW255797   6.422   2.472  10.193 -1.0934 -1.2552 -1.3051
17337SOL     OW55798   0.316   7.542   9.626 -0.2064 -0.0773  0.9018
17337SOL    HW155799   0.401   7.509   9.655  0.6652  0.4332 -0.9462
17337SOL    HW255800   0.329   7.637   9.616 -0.7082 -0.1077 -0.2221
17338SOL     OW55801   7.277   5.212   4.793  0.6178 -0.2338  0.5136
17338SOL    HW155802   7.369   5.216   4.818  0.6271  0.4091  0.4114
17338SOL    HW255803   7.232   5.178   4.870  0.7461  0.9537  1.1335
17339SOL     OW55804   0.881   8.717   5.325 -0.2554  0.0434  0.0517
17339SOL    HW155805   0.851   8.728   5.416  1.3938 -0.6166  0.7109
17339SOL    HW255806   0.976   8.727   5.330 -0.1511  0.0671 -1.6287
17340SOL     OW55807   1.887   1.967   0.459 -0.9504  0.1511  0.2709
17340SOL    HW155808   1.945   2.006   0.525 -0.5471 -1.0306  0.6629
17340SOL    HW255809   1.807   1.947   0.507 -1.0330  0.2051  0.1553
17341SOL     OW55810   0.778   5.920   2.324 -0.1280 -0.1143 -0.2680
17341SOL    HW155811   0.789   6.004   2.280  0.5313  0.7196  1.3856
17341SOL    HW255812   0.722   5.940   2.399 -1.6940 -1.5930 -0.9930
17342SOL     OW55813   6.021   3.292   7.346  0.1708  0.3491  0.6180
17342SOL    HW155814   5.994   3.204   7.374  2.4152 -1.0648 -1.2927
17342SOL    HW255815   5.944   3.327   7.302 -0.1806 -1.5123 -0.3775
17343SOL     OW55816   4.445   0.607   8.598  0.3271 -0.5654  0.2033
17343SOL    HW155817   4.438   0.629   8.691  0.6788  2.1027 -0.3367
17343SOL    HW255818   4.512   0.538   8.596  0.8244 -0.1813  1.8564
17344SOL     OW55819   6.603   5.879   9.202 -0.5202  0.3267  0.4718
17344SOL    HW155820   6.666   5.951   9.202  1.5165 -1.1835 -2.7691
17344SOL    HW255821   6.527   5.914   9.155  0.1817  0.5863 -0.5015
17345SOL     OW55822   7.087   7.348   3.959  1.0376 -0.1480 -0.1579
17345SOL    HW155823   7.026   7.287   4.000 -0.9090  0.1750 -2.3305
17345SOL    HW255824   7.118   7.302   3.881  2.9862  0.0296  0.4601
17346SOL     OW55825  10.081   6.742   2.384 -0.4281  0.1831  0.3822
17346SOL    HW155826  10.052   6.823   2.426  0.3620  0.3150  0.6860
17346SOL    HW255827  10.019   6.676   2.416  0.4952  0.1681  2.2624
17347SOL     OW55828   2.322   3.225   0.850 -0.3826  0.1668  0.2318
17347SOL    HW155829   2.274   3.308   0.843 -0.8910  0.0138  1.5667
17347SOL    HW255830   2.383   3.227   0.777 -0.8122  1.4405 -0.1335
17348SOL     OW55831   0.742   4.888   1.982 -0.3710  0.3635  0.0189
17348SOL    HW155832   0.757   4.804   1.938 -0.7756 -0.3614  1.2135
17348SOL    HW255833   0.829   4.927   1.989  0.3321 -1.4222  2.2643
17349SOL     OW55834   9.045   6.394   1.088 -0.4599 -0.3819  0.2879
17349SOL    HW155835   8.985   6.385   1.014  0.9757 -1.7926 -0.7675
17349SOL    HW255836   9.110   6.458   1.059 -0.1932 -0.5216  0.5693
17350SOL     OW55837   0.242   0.238   5.924  0.0738  0.2843 -0.1057
17350SOL    HW155838   0.290   0.315   5.892  0.2056 -0.0061 -0.6182
17350SOL    HW255839   0.208   0.196   5.845  0.7447 -0.6720  0.0935
17351SOL     OW55840   1.569   5.313   6.308 -0.0609  0.2652 -0.2528
17351SOL    HW155841   1.662   5.290   6.313  0.1520  1.1242 -0.0929
17351SOL    HW255842   1.547   5.343   6.397 -0.9408 -1.5289  0.1813
17352SOL     OW55843   2.094   1.040   6.281  0.5747 -0.2747  0.1424
17352SOL    HW155844   2.130   0.959   6.318  0.8688 -0.5801 -0.7908
17352SOL    HW255845   2.121   1.038   6.189  1.9205  1.6370  0.4328
17353SOL     OW55846   4.537   0.019   5.712 -0.4525 -0.0196 -0.0369
17353SOL    HW155847   4.631   0.026   5.732 -0.5027  1.2672 -0.1315
17353SOL    HW255848   4.499  -0.022   5.790  0.2220 -0.8586 -0.1309
17354SOL     OW55849   3.840   9.703   6.951  0.0145 -0.1742 -0.2246
17354SOL    HW155850   3.760   9.716   7.001  0.4044 -0.7977  0.5852
17354SOL    HW255851   3.828   9.755   6.872 -0.6754  0.7165  0.4489
17355SOL     OW55852   7.432   0.991   1.640 -0.0958 -0.0837  0.8187
17355SOL    HW155853   7.409   1.028   1.555 -1.0633  0.5318  1.3393
17355SOL    HW255854   7.526   1.008   1.649  0.3189 -1.3296 -0.6914
17356SOL     OW55855   0.406   9.753   8.453  0.2493 -1.0221 -0.0872
17356SOL    HW155856   0.358   9.675   8.482  0.1834 -0.7826  0.4723
17356SOL    HW255857   0.414   9.742   8.359 -0.4688 -1.3191 -0.1265
17357SOL     OW55858   7.066   0.781   5.896 -0.2802  0.5137  0.5266
17357SOL    HW155859   7.021   0.796   5.978  0.7749  0.6996  1.0937
17357SOL    HW255860   7.044   0.858   5.842 -2.5356 -0.5212 -0.1273
17358SOL     OW55861   8.969   0.996   5.679 -0.5166 -0.0616 -0.4541
17358SOL    HW155862   9.018   0.923   5.642 -0.2341 -0.9835  1.5812
17358SOL    HW255863   8.882   0.989   5.640 -0.4537 -1.4253 -0.4092
17359SOL     OW55864   2.227   2.295   0.797 -1.1653 -0.3312 -0.6080
17359SOL    HW155865   2.207   2.361   0.864  2.1543  0.2328 -0.0195
17359SOL    HW255866   2.232   2.213   0.845 -0.4532 -0.1934 -0.4340
17360SOL     OW55867   7.086   9.394   4.330 -0.2007  0.0331  0.3666
17360SOL    HW155868   7.058   9.333   4.262 -0.5077  0.1985  0.3380
17360SOL    HW255869   7.113   9.472   4.282 -1.2317  0.4702  0.4588
17361SOL     OW55870   4.950   0.511   0.220 -0.3999 -0.4519 -0.3796
17361SOL    HW155871   4.866   0.466   0.224 -0.7120  0.2328  2.7885
17361SOL    HW255872   4.959   0.555   0.304  1.1752  3.1362 -2.1922
17362SOL     OW55873   1.752   1.583   9.628  0.5956 -0.4316  0.0813
17362SOL    HW155874   1.784   1.672   9.642 -0.5654  0.2963 -1.5648
17362SOL    HW255875   1.673   1.577   9.681  1.3818 -0.9657  1.2322
17363SOL     OW55876   7.297   7.752   8.746 -0.2611  0.2703 -0.5441
17363SOL    HW155877   7.300   7.682   8.681  1.9987 -0.1524 -0.0654
17363SOL    HW255878   7.276   7.707   8.828  4.3833 -0.6000  0.4399
17364SOL     OW55879   8.172   1.543   2.869  0.2968 -0.2054 -0.4051
17364SOL    HW155880   8.138   1.480   2.806  1.8134 -1.2754 -0.1940
17364SOL    HW255881   8.094   1.575   2.915 -0.6369 -0.8488 -1.4736
17365SOL     OW55882   0.851   7.253   3.724 -0.1067 -0.2772  0.6657
17365SOL    HW155883   0.848   7.225   3.632  0.4406 -0.4880  0.7084
17365SOL    HW255884   0.823   7.345   3.722 -0.8012 -0.4947  0.3825
17366SOL     OW55885   1.765   6.708   3.623  0.0076 -0.2168  0.2364
17366SOL    HW155886   1.740   6.778   3.562 -0.0846  2.0285  2.6334
17366SOL    HW255887   1.853   6.733   3.653  0.4269 -1.7568  0.3843
17367SOL     OW55888   9.995   8.097   0.168 -0.2164 -0.0224  0.3058
17367SOL    HW155889   9.999   8.183   0.209  0.3801  0.1540 -0.1143
17367SOL    HW255890  10.081   8.059   0.183  0.2450  0.3009 -1.3172
17368SOL     OW55891   7.964   0.122   0.904 -0.2727 -0.2751  0.1056
17368SOL    HW155892   7.958   0.209   0.944 -1.0513 -0.4850  0.4719
17368SOL    HW255893   8.045   0.085   0.940  0.4124  0.5400 -0.5648
17369SOL     OW55894   6.246   9.473   9.863 -0.4586  0.1387 -0.3905
17369SOL    HW155895   6.291   9.543   9.815  0.5486  0.8116  1.4524
17369SOL    HW255896   6.161   9.512   9.886 -0.6788  0.0483 -1.0273
17370SOL     OW55897   2.184   1.840   4.307  0.0497 -0.5017 -0.1398
17370SOL    HW155898   2.155   1.831   4.397  1.4735  0.4813  0.4521
17370SOL    HW255899   2.106   1.867   4.259 -0.4804  0.0210  0.9857
17371SOL     OW55900   7.707  10.236  10.102 -0.3294 -0.2811  0.6245
17371SOL    HW155901   7.770  10.171  10.134 -0.6946 -1.4869 -0.9723
17371SOL    HW255902   7.673  10.198  10.020 -1.2961  1.4788  0.1642
17372SOL     OW55903   2.691   2.624   5.474  0.0028 -0.1987  0.0141
17372SOL    HW155904   2.656   2.701   5.431  0.0387  0.6249  1.3764
17372SOL    HW255905   2.626   2.555   5.459 -1.8462  1.0550  1.7361
17373SOL     OW55906   6.710   7.605   9.862 -0.1271 -0.3783  0.1809
17373SOL    HW155907   6.646   7.662   9.905 -0.0470 -0.6291  0.6388
17373SOL    HW255908   6.792   7.622   9.908  0.4291  0.8373 -1.1889
17374SOL     OW55909   8.085   9.291   0.352  0.1372 -0.0326  0.2417
17374SOL    HW155910   8.140   9.288   0.431  1.2245 -0.3565 -0.5106
17374SOL    HW255911   8.126   9.230   0.292 -2.2441 -1.8985  0.3797
17375SOL     OW55912   9.974   2.938   3.012 -0.3112  0.7628  0.4585
17375SOL    HW155913  10.026   2.873   2.965 -1.1342 -0.3355  1.0085
17375SOL    HW255914   9.942   2.891   3.089  0.3681  2.2825  1.7220
17376SOL     OW55915  10.295   6.130   1.069 -0.8000  0.4302  0.4120
17376SOL    HW155916  10.348   6.096   0.996 -0.8621  0.4278  0.3684
17376SOL    HW255917  10.283   6.054   1.127  0.1416  0.6744  0.9592
17377SOL     OW55918   6.080   5.972   7.548 -0.3208 -0.1114 -0.3389
17377SOL    HW155919   6.017   6.018   7.492  0.0028 -0.4913 -1.0216
17377SOL    HW255920   6.163   5.978   7.501  0.5177  1.6690  1.2279
17378SOL     OW55921   3.984   5.121   7.414  0.2053 -0.0925  0.1462
17378SOL    HW155922   3.917   5.127   7.346  0.9995  0.4178 -0.5957
17378SOL    HW255923   3.947   5.058   7.477 -1.1399  0.4641 -0.0445
17379SOL     OW55924   7.366   8.762   8.776 -0.1501 -0.0235  0.4943
17379SOL    HW155925   7.331   8.712   8.850  1.7094  0.1362  1.5678
17379SOL    HW255926   7.422   8.828   8.817 -0.1827  0.9834 -1.0213
17380SOL     OW55927   8.013   9.791   2.188 -0.2480  0.0310  0.2950
17380SOL    HW155928   8.050   9.759   2.106 -1.7024  0.8040 -0.6868
17380SOL    HW255929   8.013   9.714   2.245  0.6130 -0.5521 -0.4599
17381SOL     OW55930   7.343   6.458   2.003  0.4906 -0.2545  0.5703
17381SOL    HW155931   7.407   6.418   1.944 -0.4180  0.0986 -0.7001
17381SOL    HW255932   7.362   6.420   2.089  1.7771 -0.8694  0.0381
17382SOL     OW55933   7.947   2.755   2.195  0.6634  0.3842  0.2000
17382SOL    HW155934   7.976   2.692   2.261 -2.6878 -1.6219 -0.0314
17382SOL    HW255935   7.962   2.710   2.112 -0.6861  0.3352 -0.0368
17383SOL     OW55936   5.788   4.428   5.939 -0.1449 -0.1350  0.5706
17383SOL    HW155937   5.873   4.427   5.981  0.7951 -1.2346 -1.2553
17383SOL    HW255938   5.804   4.465   5.852 -0.8931 -2.9942 -0.9179
17384SOL     OW55939   8.628   4.420   2.827 -0.0085 -0.0315 -0.3409
17384SOL    HW155940   8.669   4.391   2.746 -0.5331 -0.1440 -0.5690
17384SOL    HW255941   8.679   4.379   2.897 -0.1681 -0.7325 -0.6370
17385SOL     OW55942   1.429   4.573   9.572  0.3318  0.4528  0.3459
17385SOL    HW155943   1.386   4.651   9.538 -2.1288 -0.8287  0.2509
17385SOL    HW255944   1.502   4.557   9.512 -0.5500  1.3657 -1.0315
17386SOL     OW55945   1.636   7.704   9.286  0.7418  0.5211  0.3933
17386SOL    HW155946   1.643   7.740   9.198  1.8590  0.9276  0.6376
17386SOL    HW255947   1.636   7.609   9.272 -0.2436  0.5750 -0.1072
17387SOL     OW55948   0.455   2.850   9.670 -0.6893  0.0620  0.0973
17387SOL    HW155949   0.388   2.817   9.610 -1.6415  1.6777  0.2321
17387SOL    HW255950   0.463   2.943   9.650 -0.4577  0.4893  1.9412
17388SOL     OW55951   8.981  10.163   9.935 -0.3633 -0.3807  0.4716
17388SOL    HW155952   8.896  10.202   9.917 -0.6915 -0.7603  1.1614
17388SOL    HW255953   9.028  10.167   9.851 -1.4016 -1.0305 -0.1610
17389SOL     OW55954   2.279   6.809   6.759 -0.4252 -0.2091 -0.1019
17389SOL    HW155955   2.244   6.730   6.801  0.6112 -1.3748 -1.3166
17389SOL    HW255956   2.265   6.795   6.666  0.0569  0.9095 -0.3638
17390SOL     OW55957   9.974   3.145   8.081  0.0361 -0.3953 -0.1478
17390SOL    HW155958   9.948   3.063   8.038 -0.5913  0.9154 -2.5023
17390SOL    HW255959   9.893   3.197   8.082  0.9613  1.1440 -1.1617
17391SOL     OW55960   0.169   9.010   4.984  0.2552 -0.1024 -0.0376
17391SOL    HW155961   0.255   9.045   5.009  0.0336  0.1438  0.4029
17391SOL    HW255962   0.111   9.034   5.057 -0.3198  0.2590 -0.6005
17392SOL     OW55963   2.536   7.157   8.085  0.1626 -0.2935 -0.1330
17392SOL    HW155964   2.519   7.198   8.000 -1.0726 -1.5899 -0.5478
17392SOL    HW255965   2.617   7.198   8.115 -0.5196  1.7824 -0.9189
17393SOL     OW55966   8.442   8.656   1.615  0.5540  0.0065 -0.7056
17393SOL    HW155967   8.491   8.590   1.567  1.1515  0.0352 -0.1487
17393SOL    HW255968   8.475   8.650   1.705 -0.7484 -0.2536 -0.2151
17394SOL     OW55969   8.043   9.449   5.352  0.7054  0.0701  0.6899
17394SOL    HW155970   8.111   9.508   5.385 -0.2090 -0.0302  2.8883
17394SOL    HW255971   8.092   9.371   5.323  1.7063  0.9432 -0.0740
17395SOL     OW55972   9.214   7.479   8.016 -0.6047  0.6283  0.4796
17395SOL    HW155973   9.223   7.547   8.082 -1.0465 -0.1182  1.3412
17395SOL    HW255974   9.298   7.477   7.971 -0.3592  1.2728  0.8934
17396SOL     OW55975   9.798   3.089   6.338  0.1502  0.2546 -0.5870
17396SOL    HW155976   9.800   3.184   6.325 -0.0571  0.2660 -0.5392
17396SOL    HW255977   9.762   3.054   6.256  0.7289  0.1752 -0.8122
17397SOL     OW55978   9.870   6.260   0.655  0.1075  0.1676  0.0763
17397SOL    HW155979   9.919   6.187   0.693 -1.0500 -0.0626  1.1898
17397SOL    HW255980   9.935   6.331   0.648  0.6630 -0.1767  1.3549
17398SOL     OW55981   5.821   9.724   1.434 -0.3626  0.7352  0.1327
17398SOL    HW155982   5.849   9.664   1.503  0.3256  0.7502 -0.1179
17398SOL    HW255983   5.899   9.777   1.416 -0.4168  0.4798 -0.9193
17399SOL     OW55984  10.051   1.327   9.610 -0.1106 -0.3020  0.6776
17399SOL    HW155985   9.999   1.280   9.675 -1.9329  0.1181 -0.3813
17399SOL    HW255986  10.076   1.409   9.653 -1.9106  0.3002  0.6715
17400SOL     OW55987   9.542   6.035   7.971 -0.0354  0.0049 -0.3128
17400SOL    HW155988   9.464   5.989   7.940  0.9812 -1.9469 -0.1093
17400SOL    HW255989   9.518   6.068   8.057 -0.8693  0.0791 -0.5607
17401SOL     OW55990   1.778   3.648   6.479  0.0361 -0.1207  0.1339
17401SOL    HW155991   1.722   3.574   6.456 -0.1303  0.1095 -0.2013
17401SOL    HW255992   1.765   3.712   6.409  0.4847  0.0636  0.2101
17402SOL     OW55993   0.060   9.728   8.591  0.3861  0.1017  0.6968
17402SOL    HW155994   0.008   9.707   8.669 -0.1400 -0.4561  0.2074
17402SOL    HW255995   0.034   9.662   8.527 -3.0414  3.3444 -1.7050
17403SOL     OW55996   7.711  10.062   6.014 -0.1817  0.0520 -0.5764
17403SOL    HW155997   7.718  10.021   5.927  0.5870  0.9485 -0.9553
17403SOL    HW255998   7.769  10.138   6.009  0.1711 -0.1064  0.8608
17404SOL     OW55999   9.475   3.587   0.309  0.2111 -0.0265  0.1235
17404SOL    HW156000   9.545   3.646   0.338  2.5112 -2.0732 -0.9229
17404SOL    HW256001   9.430   3.563   0.390  1.4378  0.4727  0.9940
17405SOL     OW56002   4.766   0.046   2.960  0.1156 -0.3164 -0.3884
17405SOL    HW156003   4.794   0.137   2.963 -1.1949  0.1427 -1.3095
17405SOL    HW256004   4.709   0.036   3.036 -0.7942  0.0239 -1.0064
17406SOL     OW56005   0.434   2.700   0.517 -0.0808 -0.8203  0.0362
17406SOL    HW156006   0.401   2.790   0.519  1.2557 -0.2500 -1.3763
17406SOL    HW256007   0.460   2.682   0.607  0.0527  0.3837  0.2556
17407SOL     OW56008   6.366   6.081   9.496  0.4326 -0.3936  0.3161
17407SOL    HW156009   6.443   6.139   9.498  0.3027 -0.2213  0.3524
17407SOL    HW256010   6.402   5.993   9.507  0.6661 -0.3566 -0.1340
17408SOL     OW56011   4.531   3.744   3.590  0.5246  0.2707 -0.0433
17408SOL    HW156012   4.508   3.834   3.564 -1.7990 -0.4153 -0.5820
17408SOL    HW256013   4.618   3.752   3.629  0.1795  2.8338  0.3817
17409SOL     OW56014   2.135   3.357   9.549 -0.5980  0.1268 -0.2972
17409SOL    HW156015   2.163   3.437   9.593 -0.5688  0.1875 -0.4250
17409SOL    HW256016   2.197   3.291   9.579 -0.8791  0.0571  0.1382
17410SOL     OW56017   9.297   5.214   7.158  0.2181 -0.5558  0.8461
17410SOL    HW156018   9.316   5.120   7.154  1.4190 -0.3247  0.7969
17410SOL    HW256019   9.352   5.253   7.090 -0.2786  0.1827  0.8525
17411SOL     OW56020   9.055   3.245  10.328  0.3655  0.4266 -0.0766
17411SOL    HW156021   9.133   3.263  10.380 -0.1784  0.6375  0.6861
17411SOL    HW256022   9.019   3.332  10.309 -0.4292  0.2937  0.7551
17412SOL     OW56023   3.028   2.224   8.694  0.1972  0.7048  0.0020
17412SOL    HW156024   3.079   2.213   8.613  2.4373  0.2299  1.3734
17412SOL    HW256025   3.020   2.135   8.728 -0.2008  0.9692  0.6020
17413SOL     OW56026   9.688   2.833   2.896 -0.3940  0.5303  0.9522
17413SOL    HW156027   9.656   2.868   2.979  2.9286  0.9349  2.1914
17413SOL    HW256028   9.766   2.783   2.919 -0.1439 -0.5141 -1.7988
17414SOL     OW56029   5.399   2.278   0.100  0.2178  0.5084 -0.3543
17414SOL    HW156030   5.360   2.311   0.181  1.7439  2.0755 -0.1825
17414SOL    HW256031   5.460   2.210   0.129  0.1531  0.4885 -0.2660
17415SOL     OW56032   8.985   6.232   3.984 -0.1363  0.0848  0.0682
17415SOL    HW156033   9.073   6.247   3.951  0.6546 -2.6158  0.6690
17415SOL    HW256034   8.959   6.314   4.024  2.3211  0.7878  0.3415
17416SOL     OW56035   7.058   3.797   1.737  0.4048 -0.7276  0.0227
17416SOL    HW156036   7.052   3.876   1.684  1.2521  0.3201  1.4322
17416SOL    HW256037   7.152   3.778   1.742  0.3727 -0.5824  1.4401
17417SOL     OW56038   9.795   9.046   6.418 -0.3478  0.2484 -0.1796
17417SOL    HW156039   9.709   9.065   6.379 -0.2465 -0.2763 -0.6730
17417SOL    HW256040   9.781   8.964   6.466 -0.0809  0.0439 -0.4405
17418SOL     OW56041   4.484  10.321   8.767 -0.2673  0.0521  1.0001
17418SOL    HW156042   4.570  10.330   8.726 -0.6799  1.4661  0.3390
17418SOL    HW256043   4.499  10.339   8.860  0.5858 -2.5968  1.4585
17419SOL     OW56044   8.856   6.994   0.808 -0.0644 -0.0060  0.5239
17419SOL    HW156045   8.766   6.960   0.802 -0.3963  0.6893  1.4467
17419SOL    HW256046   8.907   6.936   0.750 -1.3252  0.3614 -1.0429
17420SOL     OW56047   9.050   3.141   3.526 -0.4074 -0.2674  0.1952
17420SOL    HW156048   9.029   3.108   3.614  1.2329  0.5696  0.9466
17420SOL    HW256049   9.093   3.226   3.542 -0.7513  0.2565 -1.4647
17421SOL     OW56050   7.631   6.171   6.974 -0.2233 -0.6139  0.1050
17421SOL    HW156051   7.605   6.218   7.054 -1.6688  0.7258 -1.0878
17421SOL    HW256052   7.714   6.130   6.997 -0.3740  0.0891  2.1632
17422SOL     OW56053   4.444   9.924   5.886 -0.0533  0.1092 -0.0162
17422SOL    HW156054   4.440   9.928   5.982 -2.6588 -0.5692 -0.0291
17422SOL    HW256055   4.363   9.965   5.857 -0.8112 -2.3930 -1.7824
17423SOL     OW56056   0.733   4.791   0.156  0.1243 -0.6039  0.2409
17423SOL    HW156057   0.677   4.833   0.091  0.7823 -1.5665 -0.9890
17423SOL    HW256058   0.821   4.823   0.137  0.0641  0.7807  2.0597
17424SOL     OW56059   0.226   3.823   8.642  0.5269 -0.3009  0.4248
17424SOL    HW156060   0.134   3.849   8.643  0.9179  1.2080 -0.3611
17424SOL    HW256061   0.228   3.739   8.689 -1.3003 -0.5719  0.0842
17425SOL     OW56062   9.123   7.460   7.420 -0.4989  0.1798  0.0551
17425SOL    HW156063   9.187   7.483   7.487 -1.6134  3.1339  0.3011
17425SOL    HW256064   9.042   7.442   7.468 -0.9709  1.0289 -0.3757
17426SOL     OW56065   5.830   4.372   8.476  0.1794  0.2261 -0.1785
17426SOL    HW156066   5.884   4.323   8.538 -0.1716 -0.2248 -0.2237
17426SOL    HW256067   5.829   4.461   8.510  0.1997  0.0391  0.3253
17427SOL     OW56068   9.402   0.526   6.509 -0.1143  0.2279 -0.6128
17427SOL    HW156069   9.387   0.433   6.526 -0.4697  0.3964  0.0191
17427SOL    HW256070   9.316   0.567   6.521  0.4202  0.9296  1.1886
17428SOL     OW56071   6.858   5.325   5.503  0.3369 -0.1618 -0.0591
17428SOL    HW156072   6.902   5.313   5.418  1.0752  3.1624 -0.2638
17428SOL    HW256073   6.765   5.314   5.483  0.4372  1.1840 -1.5003
17429SOL     OW56074   9.303   0.161   0.298  0.4817  0.4126 -0.4194
17429SOL    HW156075   9.316   0.068   0.280  0.0206  0.5157 -1.3458
17429SOL    HW256076   9.387   0.202   0.277  0.3302  0.3556 -1.1854
17430SOL     OW56077   2.162   7.708   0.615 -0.4187  0.4876 -0.2067
17430SOL    HW156078   2.106   7.733   0.541  0.5262  0.1444 -1.0656
17430SOL    HW256079   2.162   7.785   0.672 -1.2032  0.7430 -0.5327
17431SOL     OW56080   4.327   2.874   1.022  0.1429  0.2005  0.6441
17431SOL    HW156081   4.402   2.867   0.964  1.1124  4.1427  1.1504
17431SOL    HW256082   4.259   2.915   0.968 -0.0712  0.8295  1.3754
17432SOL     OW56083   1.035   1.899   5.489  0.1893 -0.3942  0.1296
17432SOL    HW156084   1.051   1.990   5.466 -1.0709 -0.2459 -0.2353
17432SOL    HW256085   1.056   1.850   5.410  0.1312 -0.3421  0.0821
17433SOL     OW56086   2.079   4.857   1.514 -0.6426  0.5777  0.4754
17433SOL    HW156087   2.141   4.929   1.523  1.0441 -0.8510  0.7260
17433SOL    HW256088   2.068   4.847   1.420 -1.0519  1.2728  0.4399
17434SOL     OW56089   0.178   4.619   6.586  0.5570  0.1085  0.0237
17434SOL    HW156090   0.107   4.654   6.533 -0.5292 -0.3120  1.1567
17434SOL    HW256091   0.253   4.614   6.526 -0.8236 -1.1251 -1.6959
17435SOL     OW56092   5.934  10.335   3.608 -0.2804 -0.0187 -0.1448
17435SOL    HW156093   5.985  10.277   3.551 -1.0204 -0.9040  0.0651
17435SOL    HW256094   5.855  10.355   3.558 -0.6398 -0.2817  0.3076
17436SOL     OW56095   1.487   5.800   4.889 -0.1168  0.0156 -0.1953
17436SOL    HW156096   1.476   5.770   4.798  1.4337  0.3664 -0.5233
17436SOL    HW256097   1.439   5.883   4.892 -1.1771 -0.5663 -0.3424
17437SOL     OW56098   8.738  10.171   2.757  0.3501  0.0071  0.6646
17437SOL    HW156099   8.817  10.191   2.706 -0.2409 -0.7759 -0.6013
17437SOL    HW256100   8.709  10.256   2.791  0.9884  0.4874  0.0310
17438SOL     OW56101   4.428   3.520   2.867 -0.3544  0.2085 -0.2303
17438SOL    HW156102   4.468   3.548   2.949  1.9363 -0.1293 -1.1693
17438SOL    HW256103   4.401   3.430   2.883 -0.3635  0.3003  0.2928
17439SOL     OW56104   5.704   8.303   4.652  0.0509  0.0598  0.1335
17439SOL    HW156105   5.691   8.212   4.677 -1.0328 -0.5103 -2.2135
17439SOL    HW256106   5.799   8.311   4.638  0.2455 -0.4699  1.1221
17440SOL     OW56107  10.260   4.444   8.024 -0.4809  0.1045  0.0381
17440SOL    HW156108  10.346   4.441   7.983 -0.8015 -0.2433 -0.6332
17440SOL    HW256109  10.203   4.482   7.957 -0.4211  2.5773  1.2962
17441SOL     OW56110   2.083   5.990   7.590  0.2857  0.2290 -0.1884
17441SOL    HW156111   2.015   6.057   7.582 -1.2843 -1.3779 -1.0772
17441SOL    HW256112   2.044   5.922   7.645  1.1514 -0.7597 -0.7430
17442SOL     OW56113   6.331   5.396   2.703 -0.1729  0.3543 -0.8670
17442SOL    HW156114   6.252   5.403   2.650 -0.9153  0.8998  0.2698
17442SOL    HW256115   6.299   5.377   2.791  0.9481  0.8762 -0.3254
17443SOL     OW56116   4.189   5.628   4.571  0.1484  0.3446 -0.0953
17443SOL    HW156117   4.119   5.587   4.519  0.2005  0.1173  0.0126
17443SOL    HW256118   4.226   5.556   4.622 -0.0291  0.6054  0.4037
17444SOL     OW56119   0.312   7.250   4.236  0.1174 -0.6177 -0.5336
17444SOL    HW156120   0.269   7.307   4.173  0.2560  0.2246  0.1191
17444SOL    HW256121   0.403   7.278   4.236 -0.0872  0.1254  0.8114
17445SOL     OW56122   0.548   7.184   2.741  0.1121 -0.4149 -0.5897
17445SOL    HW156123   0.514   7.189   2.652  0.7781 -0.3212 -0.8420
17445SOL    HW256124   0.615   7.252   2.746  0.3482 -0.6713 -0.1375
17446SOL     OW56125   5.296   8.246   0.176  0.2500 -0.2651 -0.1237
17446SOL    HW156126   5.328   8.292   0.098 -2.6938 -0.6892 -1.7492
17446SOL    HW256127   5.313   8.153   0.158 -1.2089 -0.4482 -0.7712
17447SOL     OW56128   6.429   1.988   2.723 -0.1458  0.3864 -0.4463
17447SOL    HW156129   6.348   1.983   2.673  0.0813 -0.1290 -0.7633
17447SOL    HW256130   6.497   2.002   2.657  0.0158  0.9360 -0.1728
17448SOL     OW56131   2.159   0.607   1.234 -0.2327  0.5269 -0.1118
17448SOL    HW156132   2.215   0.569   1.167 -0.8274 -0.9882  0.2179
17448SOL    HW256133   2.220   0.649   1.296  0.5299 -0.7950  0.0572
17449SOL     OW56134   1.002   0.781   5.843 -0.7810 -0.0992 -0.4181
17449SOL    HW156135   1.049   0.713   5.889 -0.0648 -1.1914 -2.6235
17449SOL    HW256136   0.912   0.775   5.876 -0.4186 -1.1416  0.4320
17450SOL     OW56137   9.823   1.021   6.959 -0.4039  0.2475  0.0860
17450SOL    HW156138   9.905   1.065   6.979  0.3880 -1.3362  0.4945
17450SOL    HW256139   9.845   0.959   6.889 -1.3346  0.0805 -0.0725
17451SOL     OW56140   0.314  10.300   2.367 -0.1585 -0.3127  0.0037
17451SOL    HW156141   0.240  10.241   2.380 -0.8718  0.7726  1.2102
17451SOL    HW256142   0.372  10.283   2.442 -0.3107  0.4083  0.2947
17452SOL     OW56143   3.437   2.111   0.890  0.6053  0.0297 -0.2801
17452SOL    HW156144   3.450   2.151   0.976 -1.9602  1.0462 -0.2850
17452SOL    HW256145   3.382   2.034   0.908 -0.1102  0.3618 -1.0034
17453SOL     OW56146   5.256   8.096   3.640 -0.1081  0.3800  0.5247
17453SOL    HW156147   5.297   8.079   3.725 -0.0034 -0.3205  0.3362
17453SOL    HW256148   5.310   8.049   3.577 -1.8544 -1.6544  0.3952
17454SOL     OW56149   6.883   4.557  10.179 -0.4592 -0.2493  0.6502
17454SOL    HW156150   6.812   4.585  10.238  0.7629  2.4306  0.9734
17454SOL    HW256151   6.876   4.461  10.178 -3.6536 -0.1391  1.1511
17455SOL     OW56152   9.344   5.602   5.902 -0.0566  0.3875 -0.4408
17455SOL    HW156153   9.410   5.579   5.836 -0.1049  0.8912 -0.6641
17455SOL    HW256154   9.380   5.567   5.984 -1.0035 -2.1917 -1.0410
17456SOL     OW56155   5.295   7.178   7.993  1.0416 -0.1537 -0.0725
17456SOL    HW156156   5.270   7.123   8.066  1.4461 -1.4514 -0.8834
17456SOL    HW256157   5.272   7.127   7.915  3.8999 -0.4318 -0.8760
17457SOL     OW56158   2.268   0.840   3.651 -0.0653  0.1119 -0.1903
17457SOL    HW156159   2.299   0.754   3.624 -1.4437  0.0941 -1.8661
17457SOL    HW256160   2.327   0.902   3.608  0.5445  0.0486  0.5214
17458SOL     OW56161   5.763   4.658   7.657 -0.2133  0.3659  0.6232
17458SOL    HW156162   5.759   4.567   7.684  2.6119  0.0586  0.3581
17458SOL    HW256163   5.697   4.666   7.588  0.0160 -1.7001  0.0957
17459SOL     OW56164   5.800   5.228   7.837  0.2484  0.0653  0.0872
17459SOL    HW156165   5.821   5.189   7.922  3.0328 -0.7116 -0.8484
17459SOL    HW256166   5.786   5.152   7.779  0.6277  0.5360 -0.6335
17460SOL     OW56167   0.964   5.162   3.763  0.3981  0.2775 -0.2211
17460SOL    HW156168   0.998   5.073   3.777 -0.5890  0.0726  1.1530
17460SOL    HW256169   1.036   5.220   3.785  0.4143 -0.1718  0.9823
17461SOL     OW56170   5.830   7.367   3.948 -0.0870  0.0000 -0.3694
17461SOL    HW156171   5.801   7.296   3.891 -0.1084  0.0473 -0.4170
17461SOL    HW256172   5.912   7.397   3.909 -0.7043  0.8426 -1.0747
17462SOL     OW56173   3.364   2.905   8.712  0.0964  0.3598  0.1602
17462SOL    HW156174   3.317   2.932   8.634  0.3660 -0.3646 -0.2589
17462SOL    HW256175   3.295   2.879   8.774 -0.2081  2.4822  0.7973
17463SOL     OW56176   0.155   3.510   8.507 -0.1410  0.3265 -0.7218
17463SOL    HW156177   0.093   3.453   8.552  0.5110  0.4725  0.3965
17463SOL    HW256178   0.104   3.586   8.481  0.1143  2.0659  3.1740
17464SOL     OW56179   4.027   0.877   5.708 -0.2615  0.2020  0.4131
17464SOL    HW156180   4.103   0.859   5.762 -0.1736 -0.5990  0.0357
17464SOL    HW256181   3.954   0.878   5.769 -0.2685 -1.4474  0.4863
17465SOL     OW56182   8.119   6.419   6.505 -0.6579  0.5882  0.5564
17465SOL    HW156183   8.101   6.370   6.586 -2.0690 -1.2116 -0.7710
17465SOL    HW256184   8.044   6.478   6.496 -0.9007  0.2174  0.1524
17466SOL     OW56185   8.502   4.239  10.102 -0.0620  0.3903 -0.4550
17466SOL    HW156186   8.418   4.243  10.149  0.7697 -0.6703  1.2504
17466SOL    HW256187   8.489   4.293  10.024 -0.8737  4.1312  2.0000
17467SOL     OW56188   9.981   6.507   1.328 -0.1488  0.0058  0.7073
17467SOL    HW156189   9.913   6.468   1.382  0.2772 -0.0317  1.2331
17467SOL    HW256190  10.063   6.470   1.361 -0.0017 -2.1093 -1.7123
17468SOL     OW56191   7.511   6.345   1.827 -0.1853  0.2306  1.0220
17468SOL    HW156192   7.584   6.407   1.824  0.0565 -0.0506 -1.7960
17468SOL    HW256193   7.553   6.259   1.834  0.0312 -0.0691 -2.1158
17469SOL     OW56194   7.110   6.638   4.611 -0.7151 -0.0618  0.1630
17469SOL    HW156195   7.064   6.625   4.694 -3.1785  1.8198 -0.7984
17469SOL    HW256196   7.198   6.666   4.637 -1.6801  1.3549  2.1916
17470SOL     OW56197   3.551   6.655  10.144  0.2993 -0.6203  0.2983
17470SOL    HW156198   3.488   6.618  10.205 -0.5903 -0.7042 -0.6264
17470SOL    HW256199   3.557   6.591  10.073  2.7147 -1.4008  1.1276
17471SOL     OW56200   4.134   3.321   0.263 -0.6317 -0.1219 -0.1879
17471SOL    HW156201   4.191   3.263   0.314  0.4177 -1.4181 -2.6647
17471SOL    HW256202   4.054   3.327   0.315  0.1691 -1.7427  1.3560
17472SOL     OW56203   5.321   7.621   9.726 -0.0294  0.1250 -0.1154
17472SOL    HW156204   5.250   7.586   9.672 -0.0134 -0.4805  0.2421
17472SOL    HW256205   5.394   7.632   9.666  0.1808 -1.1167 -0.1149
17473SOL     OW56206   3.503   9.995   4.631 -0.1695  0.2968 -0.7816
17473SOL    HW156207   3.450   9.972   4.707 -0.7756 -0.1178 -1.3225
17473SOL    HW256208   3.475  10.084   4.608 -2.0384 -0.5842 -2.2008
17474SOL     OW56209  10.322   3.010   7.094  0.0108 -0.5424 -0.0498
17474SOL    HW156210  10.228   3.000   7.111  0.1442 -0.3472  0.8142
17474SOL    HW256211  10.358   3.047   7.174  1.1784 -2.5514  0.4139
17475SOL     OW56212   3.799   9.490   7.740 -0.0490 -0.0170  0.0311
17475SOL    HW156213   3.826   9.413   7.789  1.6399 -0.3028 -1.2919
17475SOL    HW256214   3.807   9.562   7.803  1.8269 -0.4102  0.2939
17476SOL     OW56215   9.482   4.256   7.509 -0.1004 -0.1530 -0.7462
17476SOL    HW156216   9.570   4.292   7.496  0.2088 -0.4161  0.4863
17476SOL    HW256217   9.488   4.205   7.590 -1.7896  1.1877  0.3064
17477SOL     OW56218   8.968   8.250   1.478  0.6414 -0.1999  0.1707
17477SOL    HW156219   9.036   8.237   1.411  1.1384 -1.4915  0.8793
17477SOL    HW256220   9.001   8.323   1.531  0.4717  0.5207 -0.7024
17478SOL     OW56221   3.870   4.797   4.182 -0.2600 -0.0168  0.1660
17478SOL    HW156222   3.842   4.706   4.177 -0.6599 -0.0356  2.0113
17478SOL    HW256223   3.935   4.806   4.112 -1.0381 -1.3967 -0.7723
17479SOL     OW56224   8.217   1.400   8.318 -0.3609  0.1022  0.0748
17479SOL    HW156225   8.199   1.463   8.388 -0.2370 -0.5950  0.7418
17479SOL    HW256226   8.260   1.451   8.250 -1.3384  0.9917  0.1009
17480SOL     OW56227   4.953   5.093   2.511  0.4746  0.3316 -0.0060
17480SOL    HW156228   5.000   5.012   2.530 -0.8671 -0.0882  1.9429
17480SOL    HW256229   4.862   5.065   2.500  0.0281  1.5258  0.4676
17481SOL     OW56230   2.961   8.133   8.821 -0.3304 -0.1661 -0.5435
17481SOL    HW156231   3.054   8.155   8.822 -0.1862 -0.5712 -2.2320
17481SOL    HW256232   2.952   8.068   8.752 -1.8628 -0.1995 -0.3565
17482SOL     OW56233   6.033   3.321   3.181  0.1000  0.0578 -0.2500
17482SOL    HW156234   6.097   3.289   3.244  0.3005  0.7796 -0.0789
17482SOL    HW256235   6.070   3.299   3.096  0.2274 -0.1804 -0.1333
17483SOL     OW56236   1.128   5.704   7.118 -0.5094 -0.0645  0.0624
17483SOL    HW156237   1.088   5.771   7.062 -0.2906 -0.3521 -0.4396
17483SOL    HW256238   1.203   5.748   7.157 -0.5864  0.0998  0.0283
17484SOL     OW56239   0.295   4.046   1.191  0.3706 -0.6672 -0.4137
17484SOL    HW156240   0.224   3.983   1.176 -0.7733  0.4267  0.2548
17484SOL    HW256241   0.336   4.017   1.273  0.0770 -0.7425 -0.2932
17485SOL     OW56242   2.997   4.220   3.537  0.4978  0.5958 -0.4782
17485SOL    HW156243   3.047   4.141   3.516  0.0079  0.2549 -0.3722
17485SOL    HW256244   3.009   4.277   3.461  0.3540  0.1719 -0.8178
17486SOL     OW56245   4.783   5.000   7.794  0.0758  0.3420  0.1423
17486SOL    HW156246   4.794   5.023   7.702 -0.3728  1.4524  0.3507
17486SOL    HW256247   4.737   5.075   7.832 -0.8947 -0.6551  1.0003
17487SOL     OW56248  10.283   3.383   9.086 -0.2595 -0.0448  1.1770
17487SOL    HW156249  10.251   3.345   9.003  0.1788  2.0286 -0.0027
17487SOL    HW256250  10.207   3.429   9.122  0.4716  2.2989 -0.0836
17488SOL     OW56251   2.635   1.288   2.474  0.0521  0.4020 -0.0671
17488SOL    HW156252   2.706   1.321   2.419  0.7027  0.3625  0.7311
17488SOL    HW256253   2.669   1.294   2.564  0.0144 -1.9024  0.1668
17489SOL     OW56254  10.360   4.194   1.591  0.3255 -0.5029  0.0637
17489SOL    HW156255  10.367   4.179   1.497 -1.0100 -1.1612  0.0463
17489SOL    HW256256  10.439   4.244   1.614  0.8990 -0.7556 -1.3074
17490SOL     OW56257   4.217   6.043   7.719 -0.3373 -0.2834  0.5744
17490SOL    HW156258   4.129   6.081   7.730 -0.8395 -0.6192 -1.8017
17490SOL    HW256259   4.206   5.950   7.739 -0.8582 -0.5713 -0.9089
17491SOL     OW56260   7.752   0.975   4.939 -0.0519  0.0745 -0.5173
17491SOL    HW156261   7.784   1.064   4.922 -0.6229  0.5801  0.9012
17491SOL    HW256262   7.699   0.954   4.862 -1.4723  1.7385 -0.0625
17492SOL     OW56263   3.335   9.745   2.960  0.3997  0.3699 -0.2843
17492SOL    HW156264   3.347   9.654   2.985 -1.2759  0.4449  1.0037
17492SOL    HW256265   3.373   9.795   3.032 -0.1248  0.6625 -0.2062
17493SOL     OW56266   0.007   6.762   1.099 -0.1358 -0.7487 -0.3998
17493SOL    HW156267   0.052   6.763   1.183  2.5904  0.2514 -1.7130
17493SOL    HW256268  -0.018   6.853   1.084 -0.6790 -0.9333 -0.6503
17494SOL     OW56269   3.304  10.354   8.288 -0.5451 -0.2590 -0.2943
17494SOL    HW156270   3.361  10.429   8.272 -1.5413  0.7007  0.5339
17494SOL    HW256271   3.216  10.386   8.272 -1.1031 -0.8460  1.4091
17495SOL     OW56272   4.327   3.283   6.035  0.0624  0.5630 -0.0714
17495SOL    HW156273   4.354   3.348   6.100 -1.3081  1.7065 -0.6087
17495SOL    HW256274   4.307   3.205   6.087  2.3436  0.2913  0.5260
17496SOL     OW56275   4.777  10.293   9.935 -0.5851  0.1928  0.1977
17496SOL    HW156276   4.693  10.247   9.939 -0.2606 -0.4772 -0.5118
17496SOL    HW256277   4.819  10.272  10.018  0.3209 -2.3283 -0.8070
17497SOL     OW56278   0.709   0.645   5.382 -0.3935  0.1632 -0.1349
17497SOL    HW156279   0.720   0.724   5.436 -0.0621 -0.7461  1.1887
17497SOL    HW256280   0.790   0.637   5.333 -0.7750  1.1173 -0.9493
17498SOL     OW56281   4.362   6.406   9.782  0.0704  0.6291 -0.3189
17498SOL    HW156282   4.331   6.399   9.872 -1.9053  1.9336 -0.8329
17498SOL    HW256283   4.400   6.321   9.763  1.3033  0.5905  1.9943
17499SOL     OW56284   8.768   3.041   5.500  0.2811 -0.3317 -0.4035
17499SOL    HW156285   8.711   3.039   5.422  0.5491  0.5425 -0.6272
17499SOL    HW256286   8.831   2.970   5.485  0.8850  0.3934 -1.4183
17500SOL     OW56287   3.081   7.607   0.879 -0.4974  0.1117  0.1422
17500SOL    HW156288   2.985   7.609   0.882 -0.5609  0.8593 -1.3872
17500SOL    HW256289   3.108   7.688   0.923 -0.5903  0.2383 -0.0333
17501SOL     OW56290   0.113   0.915   7.356  0.3642 -0.3395  0.6140
17501SOL    HW156291   0.023   0.948   7.358 -0.2304 -1.9188  1.5707
17501SOL    HW256292   0.159   0.976   7.300 -1.3311  0.4612  0.0176
17502SOL     OW56293   5.848   3.806   9.168 -0.5565 -0.5142 -0.8515
17502SOL    HW156294   5.943   3.804   9.156 -0.5800 -1.8070 -1.0002
17502SOL    HW256295   5.822   3.894   9.140  0.9548  1.1177  2.3772
17503SOL     OW56296   9.651   6.258   4.024 -0.7409  0.0380 -0.0856
17503SOL    HW156297   9.560   6.234   4.038 -0.5406  0.0145  1.3698
17503SOL    HW256298   9.655   6.352   4.044 -0.3400 -0.1001  0.5256
17504SOL     OW56299   2.436   2.342   7.137 -0.1506 -0.0709  0.0887
17504SOL    HW156300   2.344   2.356   7.112 -0.6313  1.6140  2.4444
17504SOL    HW256301   2.448   2.247   7.132 -1.7640 -0.2534 -1.0600
17505SOL     OW56302   8.522   9.619   1.506  0.6288  0.6659  0.4043
17505SOL    HW156303   8.431   9.592   1.515  1.2585 -1.4368  0.8298
17505SOL    HW256304   8.517   9.703   1.460 -1.4049 -0.6338 -2.0119
17506SOL     OW56305   6.493   2.889   6.392  0.2590  0.4315 -0.2104
17506SOL    HW156306   6.500   2.955   6.323 -1.5048  0.7702 -0.1020
17506SOL    HW256307   6.412   2.842   6.372  0.3109 -0.2160  0.9980
17507SOL     OW56308   6.772   9.511   1.051  0.1294  0.4371  0.9203
17507SOL    HW156309   6.709   9.440   1.063  0.5855 -0.1261  0.0725
17507SOL    HW256310   6.856   9.467   1.039  0.2372  1.0285 -0.8853
17508SOL     OW56311   5.461   1.143   0.568 -0.6461 -0.4077  0.5972
17508SOL    HW156312   5.526   1.133   0.638  1.0934 -3.0876 -1.2080
17508SOL    HW256313   5.390   1.084   0.593 -0.6960 -0.2867  0.7495
17509SOL     OW56314   1.618   5.722  10.352  0.3773 -0.4195 -0.4055
17509SOL    HW156315   1.680   5.661  10.312  1.3691  1.2523 -1.5378
17509SOL    HW256316   1.648   5.730  10.442  1.7747  0.2413 -0.8892
17510SOL     OW56317   3.076   3.824   8.098 -0.2479 -0.1885  0.2466
17510SOL    HW156318   3.031   3.812   8.015 -0.9855 -3.4162  0.9700
17510SOL    HW256319   3.042   3.907   8.132 -1.5041  0.1607 -1.6901
17511SOL     OW56320   5.776   4.119   4.412  0.2067 -0.2523 -0.3842
17511SOL    HW156321   5.794   4.213   4.417 -2.0284  0.2254 -0.0012
17511SOL    HW256322   5.725   4.109   4.332 -0.0311 -1.0434 -0.1416
17512SOL     OW56323  10.097   7.977   9.977  0.4518 -0.0615  0.2101
17512SOL    HW156324  10.045   7.904   9.945  0.9641 -0.7117  0.8521
17512SOL    HW256325  10.033   8.047   9.991 -0.1868 -0.6894  0.5025
17513SOL     OW56326   8.085   5.720   4.176 -0.3661 -0.2681  0.2788
17513SOL    HW156327   8.145   5.791   4.154 -1.7830  0.5631 -1.1176
17513SOL    HW256328   8.032   5.754   4.248  0.0458 -0.5458  0.7150
17514SOL     OW56329   3.268   7.832   5.502 -0.1177  0.4832  0.3512
17514SOL    HW156330   3.194   7.782   5.538 -0.3390  0.8753  0.4425
17514SOL    HW256331   3.300   7.778   5.430  2.1188 -1.7586  2.7885
17515SOL     OW56332   9.364  10.104   1.685 -0.0133 -0.1172  0.5325
17515SOL    HW156333   9.294  10.127   1.623 -0.3164  0.3311  1.0337
17515SOL    HW256334   9.377  10.183   1.737 -0.2139 -0.6899  1.4760
17516SOL     OW56335  10.312   9.065   5.194  0.0369 -0.5838 -0.0777
17516SOL    HW156336  10.260   8.991   5.226  0.9167 -1.6944 -1.1133
17516SOL    HW256337  10.381   9.076   5.260 -0.2502 -0.5023  0.2124
17517SOL     OW56338   9.412   8.206   7.299 -0.4227  0.1577  0.0170
17517SOL    HW156339   9.376   8.140   7.240 -0.7770  0.3815 -0.0211
17517SOL    HW256340   9.439   8.277   7.241 -1.9383  0.9245  0.2061
17518SOL     OW56341   2.875   2.217   9.411  0.2448  0.0780 -0.3997
17518SOL    HW156342   2.963   2.243   9.435  0.2468  1.1665 -1.4791
17518SOL    HW256343   2.820   2.248   9.483  0.6350  0.1563 -0.1316
17519SOL     OW56344   8.830   8.990   5.640 -0.1896  0.0072 -0.0090
17519SOL    HW156345   8.762   8.976   5.574  0.8757 -0.6777 -1.0005
17519SOL    HW256346   8.872   8.904   5.649  1.8235  0.8435 -0.8893
17520SOL     OW56347   7.998   7.176   0.327 -0.5473  0.3175 -0.7239
17520SOL    HW156348   8.018   7.126   0.406  0.3365  1.1397 -0.4130
17520SOL    HW256349   7.976   7.263   0.358 -0.4973  0.5665 -1.3654
17521SOL     OW56350   7.791   5.429   9.296 -0.4446 -0.2866 -0.3132
17521SOL    HW156351   7.738   5.496   9.252 -0.7545 -0.4457 -0.1892
17521SOL    HW256352   7.844   5.391   9.227 -0.4160 -0.0491 -0.4226
17522SOL     OW56353   8.816   7.656  10.264  0.2375 -0.4301  0.5728
17522SOL    HW156354   8.812   7.564  10.238  1.9013 -0.2448 -0.4078
17522SOL    HW256355   8.786   7.704  10.187  2.3653 -0.0328 -0.0738
17523SOL     OW56356   2.274   7.532   9.148 -0.0490 -0.1338 -0.2280
17523SOL    HW156357   2.301   7.465   9.085 -0.1171 -0.3583 -0.0155
17523SOL    HW256358   2.182   7.548   9.128  0.1083  0.2866 -0.6347
17524SOL     OW56359   3.671   8.650   9.248  0.1704  0.1913 -0.5922
17524SOL    HW156360   3.740   8.683   9.191  0.8084  1.2136  0.7307
17524SOL    HW256361   3.592   8.695   9.219  0.7595  1.8433  0.2290
17525SOL     OW56362   4.285   2.269   6.304  0.0320 -0.1179 -0.1387
17525SOL    HW156363   4.348   2.306   6.366 -0.5661  1.8190 -0.6001
17525SOL    HW256364   4.337   2.246   6.228  0.4060 -0.0946  0.1060
17526SOL     OW56365   6.277   6.190   6.837 -0.0728  0.7597  0.3905
17526SOL    HW156366   6.246   6.118   6.891  0.4627 -0.5346 -0.9482
17526SOL    HW256367   6.291   6.262   6.898  0.0462 -0.4838  1.8825
17527SOL     OW56368   7.640   3.404   8.733  0.3615 -0.4994 -0.9821
17527SOL    HW156369   7.726   3.366   8.715  0.3347  0.1964 -2.7459
17527SOL    HW256370   7.652   3.498   8.722  0.2351  0.0882  2.5436
17528SOL     OW56371   8.287   1.384   9.436 -0.0799  0.6331  0.4707
17528SOL    HW156372   8.214   1.329   9.407 -0.3725  1.0924  0.3326
17528SOL    HW256373   8.365   1.329   9.423 -0.3564  0.2937  0.2296
17529SOL     OW56374   5.786   2.029  10.053 -0.2856 -0.1701  0.6430
17529SOL    HW156375   5.797   2.121  10.030  0.5904 -0.0899  1.3119
17529SOL    HW256376   5.778   2.029  10.148  0.4822 -0.8336  0.7193
17530SOL     OW56377   0.861   2.801   8.676  0.3063  0.2195 -0.1757
17530SOL    HW156378   0.775   2.764   8.695  1.4363 -0.7237  3.9980
17530SOL    HW256379   0.922   2.728   8.688  1.8979  1.4316 -0.5141
17531SOL     OW56380  10.287   8.148   6.463  0.7298  0.2121  0.0699
17531SOL    HW156381  10.241   8.224   6.498  2.0727  1.1165 -0.0456
17531SOL    HW256382  10.217   8.088   6.435 -0.3681  1.5682 -0.2032
17532SOL     OW56383   0.278   4.203   4.537  0.1407  0.0487  0.3691
17532SOL    HW156384   0.243   4.142   4.601 -0.5653  0.8872  0.8005
17532SOL    HW256385   0.372   4.184   4.535 -0.4366 -3.4853 -2.1434
17533SOL     OW56386   2.529   0.393   2.939 -0.0438  0.1393 -0.8502
17533SOL    HW156387   2.540   0.324   2.874 -1.4806  0.3710 -1.3944
17533SOL    HW256388   2.594   0.459   2.916 -0.3564  0.0932 -1.9139
17534SOL     OW56389   5.514   9.035  10.117 -0.6082 -0.8586  0.6355
17534SOL    HW156390   5.594   9.022  10.167 -0.1983  0.7014  0.4110
17534SOL    HW256391   5.535   9.000  10.030  0.0127 -0.0389  0.4384
17535SOL     OW56392   7.880   3.724   5.550 -0.2037  0.1792  0.3229
17535SOL    HW156393   7.840   3.810   5.538 -2.8261 -1.0490 -0.6241
17535SOL    HW256394   7.943   3.717   5.478 -2.3690  0.1234 -1.7073
17536SOL     OW56395   7.518   0.843   3.815  0.0253 -0.2881 -0.2584
17536SOL    HW156396   7.578   0.872   3.883 -0.9592 -0.1611  0.5769
17536SOL    HW256397   7.575   0.814   3.743  1.0565  1.5458 -0.2310
17537SOL     OW56398   6.054   6.108   8.105 -0.4858 -0.3197 -0.2195
17537SOL    HW156399   6.065   6.170   8.176  0.2532 -1.1711  0.4247
17537SOL    HW256400   6.041   6.024   8.148 -0.9988 -0.6992 -1.0825
17538SOL     OW56401   0.006   1.992   8.382 -0.2595 -0.0492 -0.2051
17538SOL    HW156402  -0.038   1.986   8.467 -0.7216  0.6982 -0.3830
17538SOL    HW256403  -0.043   2.058   8.334 -0.0571 -0.5329 -1.0973
17539SOL     OW56404   2.251   8.073   2.740 -0.1329  0.2034 -0.0126
17539SOL    HW156405   2.160   8.092   2.717  0.2546  0.2224 -1.7034
17539SOL    HW256406   2.297   8.154   2.722  0.4390 -0.2454 -0.6316
17540SOL     OW56407   9.815   7.606   6.170  0.0882  0.4959  0.1483
17540SOL    HW156408   9.810   7.665   6.246 -1.5649  0.7881 -0.1473
17540SOL    HW256409   9.724   7.580   6.154  0.4461  0.1714 -1.5238
17541SOL     OW56410   3.173   7.554   6.476 -0.2415  0.7241  0.1680
17541SOL    HW156411   3.096   7.606   6.452 -0.1764  0.4102 -0.7632
17541SOL    HW256412   3.145   7.463   6.467  0.1650  0.6055  0.0457
17542SOL     OW56413   8.301   2.013   0.827 -0.4908  0.6288  0.3153
17542SOL    HW156414   8.269   1.967   0.749 -0.1283  1.2383 -0.1962
17542SOL    HW256415   8.221   2.038   0.874 -0.6977 -0.2549  0.4544
17543SOL     OW56416   0.804   9.635   2.028  0.2412 -0.0288  0.5889
17543SOL    HW156417   0.812   9.565   1.964 -0.0865 -0.3095  0.8563
17543SOL    HW256418   0.802   9.591   2.113  0.9894  0.3610  0.8167
17544SOL     OW56419   7.293   8.077   3.661  0.0923 -0.3284 -0.1105
17544SOL    HW156420   7.310   7.988   3.691  0.8834 -0.7419 -1.6657
17544SOL    HW256421   7.198   8.083   3.654  0.0524 -1.2177 -0.4396
17545SOL     OW56422   9.373   4.398   2.139  0.0740 -0.2582 -0.0782
17545SOL    HW156423   9.427   4.466   2.099 -1.1774  0.4195 -0.6581
17545SOL    HW256424   9.296   4.444   2.172 -0.5061 -1.3067  0.0791
17546SOL     OW56425   4.669   7.664  10.209  0.4408  0.3170  0.0056
17546SOL    HW156426   4.648   7.672  10.116 -0.2850  0.0703  0.1462
17546SOL    HW256427   4.632   7.743  10.249 -0.9598 -0.5047  0.3786
17547SOL     OW56428   0.544   4.601  10.325  0.1349 -0.1511  0.3210
17547SOL    HW156429   0.557   4.696  10.336 -2.2318  0.3241 -0.3333
17547SOL    HW256430   0.520   4.591  10.233 -2.2982 -0.9668  0.9690
17548SOL     OW56431   8.595   6.923   8.514 -0.0304 -0.1962 -0.4304
17548SOL    HW156432   8.524   6.950   8.456 -0.5007  0.7728  0.5671
17548SOL    HW256433   8.674   6.933   8.461 -0.1472  3.2123 -0.2121
17549SOL     OW56434   6.914   1.205   3.628 -0.1928 -0.0643 -0.3070
17549SOL    HW156435   6.992   1.150   3.636  0.8960  1.4027 -0.4604
17549SOL    HW256436   6.947   1.294   3.622 -1.7287  0.4539 -2.8603
17550SOL     OW56437   9.549   7.155   0.718  0.0832 -0.1539 -0.1327
17550SOL    HW156438   9.514   7.080   0.670 -1.6910 -0.4489  1.5302
17550SOL    HW256439   9.472   7.203   0.748  1.1706  1.1865  0.6355
17551SOL     OW56440   9.990   6.793   3.572  0.3008  0.6950  0.1917
17551SOL    HW156441  10.005   6.709   3.527 -1.5231  0.6569 -0.4265
17551SOL    HW256442  10.024   6.859   3.512 -1.4989  0.5956 -1.0106
17552SOL     OW56443   9.013   5.142   2.804 -0.6079 -0.1312 -0.3801
17552SOL    HW156444   8.996   5.217   2.745  2.0125  0.8988  0.0447
17552SOL    HW256445   9.105   5.151   2.828 -1.4209 -0.7423  3.5987
17553SOL     OW56446   3.590  10.000   1.138 -0.0652  0.6249 -0.0858
17553SOL    HW156447   3.602  10.032   1.049  0.0898  2.4478  0.5602
17553SOL    HW256448   3.572  10.078   1.190 -0.2906 -0.4142  1.4672
17554SOL     OW56449   8.508   0.259   9.829  0.3356 -0.5842  0.5117
17554SOL    HW156450   8.453   0.215   9.894  1.4258 -0.3278  1.6249
17554SOL    HW256451   8.558   0.322   9.879  0.2302  0.5655 -0.7900
17555SOL     OW56452   5.016   2.019   9.693  0.4123 -0.1692  0.3387
17555SOL    HW156453   5.024   2.012   9.598  0.6047  1.8060  0.1610
17555SOL    HW256454   5.106   2.019   9.725  0.3304 -1.6358  0.6246
17556SOL     OW56455   4.326   2.527   2.379 -0.0075 -0.3063  0.0789
17556SOL    HW156456   4.296   2.481   2.458 -3.1858 -0.9408 -1.3279
17556SOL    HW256457   4.356   2.612   2.411  2.0031 -1.6907  2.2631
17557SOL     OW56458   6.197   3.946   9.364  0.4560 -0.1893 -0.8385
17557SOL    HW156459   6.141   3.885   9.316  0.4335 -1.2883  0.5365
17557SOL    HW256460   6.149   4.029   9.362 -1.1277 -1.0490  0.1185
17558SOL     OW56461   8.605   7.886   4.228 -0.4640  0.0105 -0.7851
17558SOL    HW156462   8.555   7.968   4.222 -0.3113  0.4023  1.9450
17558SOL    HW256463   8.565   7.839   4.301  1.9125 -0.5093  0.2721
17559SOL     OW56464   3.500   4.596   7.441  0.5367 -0.5110  0.2709
17559SOL    HW156465   3.466   4.510   7.416 -0.9651 -0.3936  1.7503
17559SOL    HW256466   3.558   4.577   7.515 -0.0020 -0.2432  0.7688
17560SOL     OW56467   6.533   8.137   8.812 -0.5958 -0.3987  0.2138
17560SOL    HW156468   6.569   8.080   8.745  1.3976  1.6549 -0.6162
17560SOL    HW256469   6.598   8.136   8.882 -0.7351  0.4940  0.3683
17561SOL     OW56470   0.467   0.479   3.454 -0.4112  0.2758 -0.3139
17561SOL    HW156471   0.521   0.422   3.400  0.4086  1.0508 -0.3242
17561SOL    HW256472   0.378   0.467   3.421 -0.1162 -0.3128 -0.9018
17562SOL     OW56473   8.298   7.342   8.151 -0.2410  0.3510 -0.0326
17562SOL    HW156474   8.251   7.406   8.204 -2.8401  0.4335 -2.2368
17562SOL    HW256475   8.340   7.394   8.082 -0.7621 -0.1262 -0.7228
17563SOL     OW56476   7.526   4.770   8.145 -0.2432 -0.5663 -0.1558
17563SOL    HW156477   7.518   4.812   8.231  3.8501 -1.0565  0.6643
17563SOL    HW256478   7.532   4.842   8.083 -0.9131 -0.1622  0.2303
17564SOL     OW56479   9.242   6.201   6.306  0.6624 -0.0277  0.3602
17564SOL    HW156480   9.272   6.156   6.227  0.8507  0.8996 -0.1108
17564SOL    HW256481   9.295   6.165   6.376 -1.3594 -2.9224  0.5970
17565SOL     OW56482   1.232   7.154   3.400  0.1858 -0.1671 -0.1384
17565SOL    HW156483   1.290   7.137   3.474 -1.3796  1.8866  1.6981
17565SOL    HW256484   1.185   7.072   3.387 -1.2782  0.0489  2.8883
17566SOL     OW56485   5.281   4.042   8.599 -0.6099 -0.2381 -0.1182
17566SOL    HW156486   5.284   4.114   8.536  0.0398  0.9339  1.1959
17566SOL    HW256487   5.283   3.963   8.545  0.1251  0.7103 -1.5561
17567SOL     OW56488   8.978   8.474   8.614 -0.3862 -0.5214  1.1491
17567SOL    HW156489   8.924   8.552   8.626 -0.0424  0.0867 -0.8595
17567SOL    HW256490   9.052   8.505   8.561 -0.8861 -2.4456 -0.7906
17568SOL     OW56491   2.185   1.837   1.723 -0.1852  0.1390  0.2193
17568SOL    HW156492   2.193   1.879   1.638 -0.2868 -0.0557  0.1126
17568SOL    HW256493   2.271   1.796   1.737 -0.5940 -1.0099 -0.4253
17569SOL     OW56494   2.018   9.624   2.880 -0.2867  0.1001 -0.1172
17569SOL    HW156495   2.077   9.685   2.925 -0.3734  0.6220 -0.7052
17569SOL    HW256496   2.036   9.539   2.921 -0.7277  0.6437  1.2765
17570SOL     OW56497   5.699   2.873   2.280 -0.0658 -0.3845 -0.0322
17570SOL    HW156498   5.787   2.911   2.274  1.1167 -2.8867  0.0704
17570SOL    HW256499   5.653   2.927   2.344  1.9371  0.0736  1.1023
17571SOL     OW56500   7.723   8.242   3.261  0.0607 -0.4087  0.5379
17571SOL    HW156501   7.735   8.213   3.171 -3.9764  2.3861 -1.2219
17571SOL    HW256502   7.651   8.189   3.295  0.7290 -0.6038  1.7213
17572SOL     OW56503   2.523   5.387   7.089  0.8679 -0.0257  0.3031
17572SOL    HW156504   2.611   5.365   7.118  0.3717 -1.2437  0.9399
17572SOL    HW256505   2.466   5.360   7.161  0.0408  1.7486  0.3760
17573SOL     OW56506   6.251   6.446   2.967 -0.4670 -0.1024 -0.6079
17573SOL    HW156507   6.192   6.373   2.949  0.8607 -1.2147 -0.5876
17573SOL    HW256508   6.338   6.412   2.947  0.2360  1.3156 -0.0913
17574SOL     OW56509   1.122   7.607   1.298 -0.4283  0.0644  0.4645
17574SOL    HW156510   1.116   7.556   1.379  0.6727  0.5581  0.8776
17574SOL    HW256511   1.109   7.698   1.326  0.7969  0.3212  0.2252
17575SOL     OW56512   4.865   5.088   7.262  0.0875 -0.1206  0.4472
17575SOL    HW156513   4.814   5.113   7.185 -0.2018  1.5804  1.1373
17575SOL    HW256514   4.890   4.997   7.246  0.1788  0.2403 -1.7185
17576SOL     OW56515   2.452   5.763   7.496 -0.3204 -0.4610 -0.0630
17576SOL    HW156516   2.522   5.804   7.446  1.9355 -1.5402  2.0243
17576SOL    HW256517   2.433   5.826   7.566  0.1967 -1.1240  0.6910
17577SOL     OW56518   0.812   6.595   8.634  0.0918 -0.1872 -0.3706
17577SOL    HW156519   0.813   6.501   8.615 -1.5978 -0.6099  1.3873
17577SOL    HW256520   0.844   6.601   8.724  0.1043  0.9283 -0.4389
17578SOL     OW56521   0.511   5.450   1.546 -0.4078  0.0976 -0.1067
17578SOL    HW156522   0.594   5.469   1.503  0.7503  0.7185  2.1849
17578SOL    HW256523   0.529   5.372   1.598 -1.0454  0.5538  0.8406
17579SOL     OW56524   1.992   7.122   5.635 -0.1938 -0.1191  0.6748
17579SOL    HW156525   2.027   7.209   5.618  2.3102 -1.2704 -0.6295
17579SOL    HW256526   1.899   7.130   5.617  0.0334  2.1892  0.2057
17580SOL     OW56527   2.109   6.199   3.998  0.5387  0.0790  0.4847
17580SOL    HW156528   2.123   6.195   4.093  1.8373 -1.7518  0.2571
17580SOL    HW256529   2.073   6.114   3.975 -1.0192  0.9664 -0.5221
17581SOL     OW56530   5.662   2.651   7.825  0.6353 -0.1409  0.1802
17581SOL    HW156531   5.613   2.719   7.779  0.0936 -0.1257  0.7752
17581SOL    HW256532   5.712   2.698   7.891  1.4308 -0.1616 -0.3946
17582SOL     OW56533   6.934   7.079   4.101 -0.1804  0.5356  0.5214
17582SOL    HW156534   6.957   7.012   4.165 -0.6155  0.2986  0.4311
17582SOL    HW256535   6.840   7.094   4.114 -0.3868  0.1070 -0.4104
17583SOL     OW56536   2.840   9.606   0.954 -0.1931  0.4113  0.2408
17583SOL    HW156537   2.808   9.566   1.035 -0.2405  2.3199  1.2298
17583SOL    HW256538   2.761   9.625   0.903 -0.2923  0.6395  0.4756
17584SOL     OW56539   2.352   8.839   1.955  0.4102 -0.0315  0.2289
17584SOL    HW156540   2.329   8.900   2.026  0.2049 -1.8009  1.7525
17584SOL    HW256541   2.386   8.762   2.000  0.1652 -1.2736 -1.6121
17585SOL     OW56542   3.283   7.742   3.360 -0.1577 -0.3869  0.1668
17585SOL    HW156543   3.269   7.833   3.333 -1.3706 -0.6346 -0.1005
17585SOL    HW256544   3.214   7.726   3.425  0.3823 -0.9626  0.6141
17586SOL     OW56545   6.816   8.102   1.619  0.6465  0.0912  0.3932
17586SOL    HW156546   6.782   8.035   1.678 -1.6609  0.2118 -0.7173
17586SOL    HW256547   6.829   8.057   1.536  1.0989  0.5654  0.1996
17587SOL     OW56548   9.298   3.244   0.095  0.3915 -0.4008  0.2372
17587SOL    HW156549   9.337   3.331   0.110 -0.9580  0.3906 -0.6050
17587SOL    HW256550   9.372   3.188   0.073  1.1672  0.8329 -0.4020
17588SOL     OW56551   6.813   9.005   7.855 -0.0092 -0.4025  0.3149
17588SOL    HW156552   6.850   8.979   7.939  3.4128 -2.3821 -1.5513
17588SOL    HW256553   6.748   8.938   7.836 -2.0862  1.0142  2.0145
17589SOL     OW56554   1.677   4.992   4.474  0.2852 -0.6252 -0.3284
17589SOL    HW156555   1.638   5.075   4.502 -1.6885 -0.3636 -3.4057
17589SOL    HW256556   1.751   5.018   4.420  1.6887 -1.0326  1.3122
17590SOL     OW56557   8.546   1.622   4.316 -0.1570 -0.1305 -0.4283
17590SOL    HW156558   8.639   1.643   4.330 -0.1271  1.4075 -2.5583
17590SOL    HW256559   8.546   1.527   4.301  0.6282 -0.6919  2.4123
17591SOL     OW56560   1.046   4.156   1.830 -0.3405 -0.5625  0.2798
17591SOL    HW156561   0.976   4.184   1.770  0.7775 -1.7960 -1.6757
17591SOL    HW256562   1.005   4.089   1.884 -1.1464  0.0061  0.4053
17592SOL     OW56563   5.950   5.382   1.219 -0.6746 -0.4635 -0.3249
17592SOL    HW156564   5.906   5.466   1.205  3.1371  1.8755  0.4521
17592SOL    HW256565   5.953   5.342   1.132 -1.0028  1.0390 -1.0514
17593SOL     OW56566   1.996   9.013   5.181 -0.0607  0.2699  0.2796
17593SOL    HW156567   2.005   9.104   5.153 -0.8720  0.7875  1.6294
17593SOL    HW256568   2.006   9.016   5.276  0.4088 -1.1286  0.2939
17594SOL     OW56569   6.256   0.600   7.434  0.6388  0.6627 -0.3078
17594SOL    HW156570   6.162   0.597   7.419  0.4465  1.4867  0.5888
17594SOL    HW256571   6.295   0.614   7.348 -0.1017  0.8568 -0.6118
17595SOL     OW56572   7.573   3.654   2.538  0.8474  0.1045 -0.0610
17595SOL    HW156573   7.575   3.661   2.634 -2.3735  0.8754  0.0639
17595SOL    HW256574   7.625   3.576   2.519  0.9383 -0.5246  2.3852
17596SOL     OW56575   0.180   9.176   8.665  0.0755 -0.1238  0.3631
17596SOL    HW156576   0.203   9.167   8.572 -0.9044  0.4707  0.0488
17596SOL    HW256577   0.163   9.270   8.677  1.0025 -0.0631  1.3516
17597SOL     OW56578   1.440   3.173  10.220 -0.4406  0.1524  0.1246
17597SOL    HW156579   1.418   3.257  10.179  1.6147  0.1173 -1.2094
17597SOL    HW256580   1.447   3.193  10.313 -2.4863  0.8484  0.1892
17598SOL     OW56581   6.644   6.512   7.967  0.4586 -0.0118  0.4669
17598SOL    HW156582   6.620   6.465   8.047 -1.1308  0.0258  0.0347
17598SOL    HW256583   6.732   6.480   7.946  0.0098 -1.7037  0.9887
17599SOL     OW56584  10.094   2.048   3.794 -0.2173  0.1020 -0.0831
17599SOL    HW156585  10.183   2.070   3.766  0.0096 -1.0173 -0.3034
17599SOL    HW256586  10.038   2.078   3.722  0.2694 -1.8006 -1.3289
17600SOL     OW56587   5.694   6.160   2.375  0.1716  0.0220 -0.0232
17600SOL    HW156588   5.734   6.146   2.289  0.0646 -0.7297  0.0434
17600SOL    HW256589   5.688   6.072   2.413 -1.5496  0.0987 -0.0334
17601SOL     OW56590   8.755   1.197   7.312 -0.7689 -0.4034 -0.2831
17601SOL    HW156591   8.746   1.283   7.352 -0.2459  0.7283 -2.4966
17601SOL    HW256592   8.700   1.200   7.234  2.2434 -0.5953 -2.6162
17602SOL     OW56593   1.080   9.605   2.370 -0.4761  0.4266 -0.4330
17602SOL    HW156594   1.123   9.685   2.398  0.6974 -0.4595  0.3939
17602SOL    HW256595   1.133   9.575   2.295 -0.8340  0.3549 -0.6583
17603SOL     OW56596   2.597   1.930   5.277  0.2911 -0.0001  0.5048
17603SOL    HW156597   2.600   1.978   5.360 -2.1332 -0.3788  0.8861
17603SOL    HW256598   2.594   1.998   5.210  0.4874  0.3310  0.8277
17604SOL     OW56599   7.099   7.365   9.968 -0.1607 -0.1000  0.5038
17604SOL    HW156600   7.161   7.295   9.948 -0.1977 -0.0506  0.2148
17604SOL    HW256601   7.150   7.429  10.018 -0.4186 -0.8751  1.8018
17605SOL     OW56602   6.512   8.470   7.991 -0.0130  0.4614 -0.0259
17605SOL    HW156603   6.541   8.532   8.057 -1.6296 -0.2004  1.4065
17605SOL    HW256604   6.591   8.426   7.961  0.6550 -0.3284  2.6774
17606SOL     OW56605   2.464   0.845   3.950  0.0072 -0.1550  0.0694
17606SOL    HW156606   2.526   0.915   3.970  0.9814 -0.6172 -1.1943
17606SOL    HW256607   2.516   0.764   3.956 -1.5478 -1.0705  3.5706
17607SOL     OW56608   4.556   0.562   8.149  0.0948  0.0639 -0.4088
17607SOL    HW156609   4.643   0.564   8.109  1.1221 -1.6926  1.5204
17607SOL    HW256610   4.560   0.627   8.220 -0.2382  0.1081 -0.4262
17608SOL     OW56611   3.841   8.440   5.379 -0.3523  0.1382 -0.0607
17608SOL    HW156612   3.891   8.378   5.432 -3.7694 -1.2443  1.8114
17608SOL    HW256613   3.851   8.409   5.289  0.4020 -1.3423  0.5093
17609SOL     OW56614   5.452   8.733   1.660  0.2785  0.5443  0.0476
17609SOL    HW156615   5.518   8.733   1.729  0.0703 -0.9699  0.2597
17609SOL    HW256616   5.462   8.648   1.616 -1.5958  0.2316  0.1466
17610SOL     OW56617   2.395   0.314   2.602 -0.3424  0.2130 -0.0925
17610SOL    HW156618   2.324   0.284   2.544  0.5221 -1.0360 -0.5562
17610SOL    HW256619   2.381   0.408   2.609 -2.0098  0.0195 -0.2127
17611SOL     OW56620   5.840   2.831   9.914 -0.2357 -0.0679  0.0269
17611SOL    HW156621   5.841   2.923   9.887  1.8153 -0.3011 -0.8442
17611SOL    HW256622   5.816   2.783   9.835  2.4358 -0.5058 -0.6060
17612SOL     OW56623   3.313   7.738   2.577 -0.5572 -0.5061 -0.4331
17612SOL    HW156624   3.354   7.818   2.612 -2.2826 -0.5964  2.0612
17612SOL    HW256625   3.386   7.678   2.564  1.0559  1.8673 -4.0149
17613SOL     OW56626   1.293   9.325   6.003  0.2581  0.2106  0.1971
17613SOL    HW156627   1.319   9.400   6.057 -0.5156  1.0981 -0.6235
17613SOL    HW256628   1.200   9.340   5.985 -0.1905 -1.4980  0.8737
17614SOL     OW56629   8.118   6.035   3.151  0.1761  0.4749  0.0777
17614SOL    HW156630   8.034   6.023   3.194  0.3366 -1.4084 -0.0405
17614SOL    HW256631   8.154   5.946   3.144  2.1167  1.2183  0.0330
17615SOL     OW56632  10.192   1.798   4.929 -0.3509 -0.5376 -0.1215
17615SOL    HW156633  10.193   1.817   4.835  0.6964  0.6688  0.0951
17615SOL    HW256634  10.276   1.830   4.960 -1.3922  0.8184  1.5289
17616SOL     OW56635   4.164   7.522   2.017  0.2512  0.3671  0.6177
17616SOL    HW156636   4.145   7.547   2.107  1.1953  5.0236 -0.1788
17616SOL    HW256637   4.088   7.554   1.967  2.3024  3.8011 -0.7105
17617SOL     OW56638   7.501   1.879   8.766  0.2588 -0.1633 -0.1935
17617SOL    HW156639   7.494   1.818   8.692 -0.0345 -0.4131  0.0321
17617SOL    HW256640   7.467   1.828   8.841 -0.5806  0.4872 -0.1201
17618SOL     OW56641   4.208   4.729   7.400 -0.0084  0.1549 -0.5110
17618SOL    HW156642   4.304   4.726   7.402  0.1046  1.1536 -2.1573
17618SOL    HW256643   4.188   4.819   7.373 -1.5410  0.9247  2.7928
17619SOL     OW56644   6.659   1.811   0.740 -0.0208  0.2373 -0.1918
17619SOL    HW156645   6.706   1.867   0.679 -0.4290  0.8673  0.0664
17619SOL    HW256646   6.568   1.813   0.710 -0.2912  0.8345  0.6338
17620SOL     OW56647   5.948   9.942   6.977  0.3070 -0.5745  0.0838
17620SOL    HW156648   6.035   9.905   6.962  0.6212 -0.1363  0.7339
17620SOL    HW256649   5.926   9.914   7.066  0.0848 -0.0965  0.1791
17621SOL     OW56650   7.916   6.063   7.910  0.1879 -0.0569 -0.2968
17621SOL    HW156651   7.977   5.996   7.939 -2.4103 -1.5389  2.1889
17621SOL    HW256652   7.927   6.135   7.972  0.1027  0.0926 -0.4518
17622SOL     OW56653   0.858   1.942   1.128 -0.0262 -0.4006 -0.0464
17622SOL    HW156654   0.804   1.973   1.055  0.3527 -0.4970 -0.3672
17622SOL    HW256655   0.795   1.904   1.190 -0.1711 -2.2358 -1.2586
17623SOL     OW56656   8.350   9.270   1.318 -0.6177  0.2094  0.0160
17623SOL    HW156657   8.335   9.195   1.376 -0.2359 -0.9015 -1.2796
17623SOL    HW256658   8.348   9.346   1.376  1.7401 -0.9884  1.8434
17624SOL     OW56659   9.781   4.998   6.145 -0.1544 -0.3383  0.1776
17624SOL    HW156660   9.733   5.007   6.063  0.7998 -1.0544 -0.4810
17624SOL    HW256661   9.867   4.964   6.119  1.8967  3.6994  0.9690
17625SOL     OW56662  10.015   4.784   1.888  0.0694  0.2031 -0.0552
17625SOL    HW156663   9.928   4.775   1.927  0.2667 -1.5042  0.0714
17625SOL    HW256664  10.000   4.779   1.794  0.1697 -2.2873 -0.0093
17626SOL     OW56665   9.560   9.025   4.118  0.1552 -0.6271 -0.5171
17626SOL    HW156666   9.496   9.057   4.055 -1.6415 -0.8795  1.0656
17626SOL    HW256667   9.617   9.099   4.135  0.4013 -0.4294 -2.0700
17627SOL     OW56668   6.966   4.469   8.139 -0.0474 -0.0242  0.1172
17627SOL    HW156669   6.905   4.492   8.069  2.0455  2.1647 -1.1529
17627SOL    HW256670   6.951   4.535   8.207  0.0064 -0.2961  0.3974
17628SOL     OW56671  10.058   0.333   8.075  0.0161  0.1431 -0.0130
17628SOL    HW156672  10.029   0.408   8.128 -0.5723 -1.1922  1.6563
17628SOL    HW256673  10.001   0.262   8.102  1.1997 -1.1566 -0.8328
17629SOL     OW56674   5.441   5.170   1.106  0.7712  0.3354  0.3944
17629SOL    HW156675   5.428   5.176   1.200 -0.3876 -0.1572  0.2833
17629SOL    HW256676   5.527   5.127   1.096  0.9777  0.5532  1.2099
17630SOL     OW56677   4.977   3.329   6.974 -0.1872 -0.0444 -0.3483
17630SOL    HW156678   5.008   3.245   6.938  0.4540  0.9264 -2.1591
17630SOL    HW256679   4.939   3.375   6.900  0.4721  1.7348  0.3506
17631SOL     OW56680   0.513   0.404   0.717  0.7874  0.1998 -0.3084
17631SOL    HW156681   0.591   0.374   0.669  0.6483  1.2737 -1.2518
17631SOL    HW256682   0.448   0.419   0.648  0.2460  0.7996  0.3295
17632SOL     OW56683   6.795   7.849   8.887  0.3159 -0.8282  0.0494
17632SOL    HW156684   6.777   7.937   8.920  0.1421 -1.1030  0.7117
17632SOL    HW256685   6.852   7.810   8.953  1.5447 -0.7436 -0.9284
17633SOL     OW56686   5.408   8.646   3.680  0.0403  0.0705  0.1502
17633SOL    HW156687   5.405   8.572   3.620  2.3100  0.9760 -1.2453
17633SOL    HW256688   5.419   8.607   3.766 -0.4920 -1.2276 -0.3461
17634SOL     OW56689   7.181   6.960   0.166 -0.3096 -0.6088 -0.6892
17634SOL    HW156690   7.092   6.929   0.153 -0.1382 -1.5365  0.1980
17634SOL    HW256691   7.236   6.884   0.146  0.1226 -0.9308  1.4549
17635SOL     OW56692   3.678   0.243   6.522  0.2400 -0.3486  0.1805
17635SOL    HW156693   3.752   0.193   6.556  0.6818  0.8000  0.9791
17635SOL    HW256694   3.706   0.335   6.529 -0.9161  0.0601 -0.3260
17636SOL     OW56695   2.369   9.770   4.259  0.1940  0.4263  0.0423
17636SOL    HW156696   2.357   9.689   4.308  0.4343  0.3413 -0.0380
17636SOL    HW256697   2.280   9.805   4.249  0.0105 -0.1693 -0.5055
17637SOL     OW56698   8.871   6.768   8.154  0.2154 -0.7926 -0.3808
17637SOL    HW156699   8.926   6.690   8.160 -0.7835 -1.4569  0.6576
17637SOL    HW256700   8.857   6.781   8.060 -0.1590 -2.2900 -0.5545
17638SOL     OW56701   6.805   1.547   3.547 -0.2051  0.0923 -0.2013
17638SOL    HW156702   6.834   1.531   3.637 -0.1272  2.1921  0.1977
17638SOL    HW256703   6.714   1.519   3.546 -0.0493 -0.4577  0.3803
17639SOL     OW56704   2.404   9.453   1.476 -0.7593  0.3325  0.1048
17639SOL    HW156705   2.390   9.520   1.544 -2.4355 -0.2788  0.3990
17639SOL    HW256706   2.339   9.386   1.494  0.5397 -1.1663 -0.5085
17640SOL     OW56707   3.643   3.860   8.154 -0.1014 -0.8290  0.1598
17640SOL    HW156708   3.581   3.803   8.108  0.9976  0.2715 -2.8753
17640SOL    HW256709   3.728   3.819   8.141  0.4367  0.3720 -0.2221
17641SOL     OW56710   3.609   6.482   6.310 -0.0321 -0.3797  0.5461
17641SOL    HW156711   3.540   6.533   6.266 -0.2589 -0.8360  0.3669
17641SOL    HW256712   3.585   6.483   6.402 -0.5777 -0.9849  0.4188
17642SOL     OW56713   3.097   0.697   3.228 -0.3283  0.2077  0.4389
17642SOL    HW156714   3.016   0.737   3.196 -0.1799  0.6793  0.6580
17642SOL    HW256715   3.067   0.626   3.285 -0.6200 -1.3384 -1.5237
17643SOL     OW56716   3.029   8.016   4.181 -0.4868 -0.3400  0.2060
17643SOL    HW156717   3.077   7.945   4.224 -0.9378 -1.7842 -1.5649
17643SOL    HW256718   3.075   8.028   4.097 -0.7893  1.0671  0.2176
17644SOL     OW56719   1.443   2.333   3.636 -0.2024  0.3009 -0.0308
17644SOL    HW156720   1.418   2.361   3.724 -0.3657 -1.9036  0.7012
17644SOL    HW256721   1.479   2.245   3.649 -1.9607 -0.8672 -2.3708
17645SOL     OW56722   6.973   4.783   5.210 -0.2823 -0.1388 -0.1303
17645SOL    HW156723   7.043   4.739   5.163  0.6047  0.0153  0.9994
17645SOL    HW256724   6.893   4.760   5.163  0.3437 -1.6414 -0.4871
17646SOL     OW56725   2.020   5.701   4.027 -0.1347 -0.2272  0.3400
17646SOL    HW156726   1.934   5.666   4.002 -0.9429  1.8467  0.0063
17646SOL    HW256727   2.058   5.634   4.083 -2.2587 -0.9336  1.0269
17647SOL     OW56728   2.788   4.604   1.903 -0.3473  0.5091  0.3058
17647SOL    HW156729   2.873   4.647   1.916 -0.5123  0.2495  2.5298
17647SOL    HW256730   2.789   4.530   1.963 -1.0176 -1.3081 -1.7811
17648SOL     OW56731   7.031   8.918   2.999 -0.3230 -0.0810 -0.7952
17648SOL    HW156732   7.064   8.895   3.086  0.2032  0.7008 -0.7805
17648SOL    HW256733   6.963   8.983   3.015  0.0676  0.3771 -0.9956
17649SOL     OW56734   8.217   0.154   1.940 -0.0048  0.0800 -0.2264
17649SOL    HW156735   8.275   0.081   1.922 -0.9978 -0.7185 -0.2509
17649SOL    HW256736   8.130   0.123   1.915 -0.4369  1.2887 -0.3003
17650SOL     OW56737   1.025   0.868   1.352  0.3053 -0.4191 -0.4412
17650SOL    HW156738   1.099   0.808   1.364  0.6781 -0.1109 -1.1468
17650SOL    HW256739   0.987   0.876   1.440 -0.3878 -2.4650 -0.5147
17651SOL     OW56740   8.050   7.954   3.664  0.1695  0.5652  0.5908
17651SOL    HW156741   8.022   7.862   3.666  0.7363  0.3981  1.4368
17651SOL    HW256742   8.033   7.982   3.574 -2.6157  0.4502  0.9963
17652SOL     OW56743   4.409   7.995   8.071  0.0397 -0.3544  0.3915
17652SOL    HW156744   4.476   7.985   8.139 -0.7413 -0.1726  1.2018
17652SOL    HW256745   4.388   7.905   8.045  1.2110 -0.3908 -0.4974
17653SOL     OW56746   8.973   3.273   5.488  0.4284 -0.0798 -0.0014
17653SOL    HW156747   8.951   3.365   5.470 -0.6845 -0.4651 -0.7371
17653SOL    HW256748   8.889   3.228   5.487  0.9535 -1.0952  0.4818
17654SOL     OW56749   9.961   4.846   1.604  0.0097  0.1889  0.6016
17654SOL    HW156750  10.036   4.847   1.543  0.0163  1.7695  0.5906
17654SOL    HW256751   9.889   4.883   1.553 -0.6919 -0.9290  0.7510
17655SOL     OW56752   8.612   4.202   4.837  0.1822 -0.0920 -0.4262
17655SOL    HW156753   8.647   4.290   4.829  0.1970  0.0131  0.5961
17655SOL    HW256754   8.672   4.147   4.787  0.7836  0.3304 -0.1745
17656SOL     OW56755   9.146   7.182   8.449  0.0917  0.5698  0.1591
17656SOL    HW156756   9.108   7.104   8.491 -0.7482  0.6426 -0.4288
17656SOL    HW256757   9.177   7.150   8.364  0.1237  0.7910  0.0878
17657SOL     OW56758   5.468   4.477  10.218  0.4184  0.1077  0.7031
17657SOL    HW156759   5.453   4.550  10.158 -1.3462 -2.2186 -1.9816
17657SOL    HW256760   5.553   4.441  10.192  0.5936  0.2924  1.0104
17658SOL     OW56761   6.366   3.432   4.337  0.0872  0.3739  0.6365
17658SOL    HW156762   6.300   3.375   4.375 -0.1542  0.6002  0.5606
17658SOL    HW256763   6.449   3.396   4.367 -0.1190  1.3588  2.5566
17659SOL     OW56764   5.989   3.673   6.688  0.0865  0.1467  0.6375
17659SOL    HW156765   5.909   3.621   6.678  1.3224 -1.4939 -1.6917
17659SOL    HW256766   5.964   3.761   6.660 -1.6490  0.5163  3.0853
17660SOL     OW56767   0.130   8.676   0.735 -0.0256  0.0697  0.6336
17660SOL    HW156768   0.128   8.586   0.702  0.9568  1.0788 -2.5078
17660SOL    HW256769   0.040   8.693   0.762 -0.7548 -1.1886 -0.8280
17661SOL     OW56770   2.839   0.759   5.545 -0.2535 -0.1923 -0.1233
17661SOL    HW156771   2.796   0.727   5.624 -0.2977  0.9199  0.3228
17661SOL    HW256772   2.780   0.733   5.474 -1.0922  0.2969  0.3746
17662SOL     OW56773   5.610   7.459   0.096 -0.4809 -1.1635 -0.2690
17662SOL    HW156774   5.666   7.423   0.027 -1.1702  0.1895 -1.5848
17662SOL    HW256775   5.626   7.553   0.093  1.1528 -1.1822  2.9727
17663SOL     OW56776   9.109   8.222   2.914  0.0115  0.5852  0.5077
17663SOL    HW156777   9.144   8.258   2.832 -1.0559  1.0232  0.2314
17663SOL    HW256778   9.089   8.299   2.967  3.7556  0.3646  2.6117
17664SOL     OW56779   0.838   1.862   5.024 -0.4729 -0.4072  0.5704
17664SOL    HW156780   0.816   1.775   5.057 -1.1327 -0.7120 -0.5751
17664SOL    HW256781   0.798   1.864   4.936  0.8085  0.4976 -0.0225
17665SOL     OW56782   9.647   3.510   2.235  0.5127 -0.3250 -0.8964
17665SOL    HW156783   9.603   3.498   2.151  0.1454 -0.5503 -0.6746
17665SOL    HW256784   9.601   3.584   2.276 -0.3852 -1.2515 -0.1960
17666SOL     OW56785   0.613   2.702   8.669 -0.1780 -0.2105  0.1591
17666SOL    HW156786   0.573   2.709   8.582  1.4899 -0.4204 -0.6582
17666SOL    HW256787   0.628   2.608   8.681  1.2203 -0.0464 -0.1236
17667SOL     OW56788   3.535   8.940   9.226 -0.3166  0.4439  0.3111
17667SOL    HW156789   3.620   8.907   9.197 -0.0853  1.3466 -0.0495
17667SOL    HW256790   3.504   8.994   9.154 -0.9559  0.5639  0.6667
17668SOL     OW56791   1.758   2.253   3.645 -0.4761  0.0830  0.3379
17668SOL    HW156792   1.713   2.168   3.634 -1.6707  1.0067 -3.2508
17668SOL    HW256793   1.738   2.278   3.735 -4.5135 -1.1333 -0.0093
17669SOL     OW56794   5.200   2.020   5.823  0.0523  0.0851 -0.1308
17669SOL    HW156795   5.259   2.044   5.752  0.6502 -2.6924 -0.6851
17669SOL    HW256796   5.147   2.098   5.838  2.5606  2.0587 -0.9124
17670SOL     OW56797   2.578   7.434   8.834  0.2814 -0.3247  0.3124
17670SOL    HW156798   2.612   7.490   8.904 -0.5942  0.4998  0.1091
17670SOL    HW256799   2.526   7.493   8.779 -0.3743 -1.2666 -0.1164
17671SOL     OW56800   2.080   3.635   4.608  0.5635  0.4527  0.3128
17671SOL    HW156801   2.041   3.581   4.539  0.4121 -0.0031  0.7498
17671SOL    HW256802   2.092   3.575   4.681  2.3010  0.5315  0.1216
17672SOL     OW56803   7.719   8.962  10.012 -0.1089  0.1380  0.2319
17672SOL    HW156804   7.802   8.985  10.053  0.3674 -0.9339 -0.1065
17672SOL    HW256805   7.725   9.000   9.924 -1.0168  2.1914  0.9837
17673SOL     OW56806   5.231   2.706   3.136  0.5367  0.0835 -0.0033
17673SOL    HW156807   5.180   2.681   3.059  1.3904 -2.4876  0.1745
17673SOL    HW256808   5.244   2.624   3.184  1.8577  1.2605  1.7690
17674SOL     OW56809  10.250   1.153   4.881  0.5466 -0.0093  0.4298
17674SOL    HW156810  10.255   1.119   4.791  0.1163  0.3751  0.2546
17674SOL    HW256811  10.157   1.146   4.904  0.6539 -0.0892  0.8401
17675SOL     OW56812   6.040   3.498   2.382  0.1877  0.3030 -0.2839
17675SOL    HW156813   6.051   3.576   2.328 -1.1493  1.7405  1.4398
17675SOL    HW256814   6.035   3.530   2.471 -0.3413 -1.7697  0.5006
17676SOL     OW56815   5.218   1.322   2.488 -0.1333  0.0935  0.2940
17676SOL    HW156816   5.145   1.279   2.444 -0.7960  1.1431  0.3319
17676SOL    HW256817   5.212   1.413   2.460  0.6538  0.3639  0.9674
17677SOL     OW56818   0.429   2.039   5.860  0.2964  0.1526 -0.5328
17677SOL    HW156819   0.401   2.001   5.776  1.2612 -0.6463 -0.5031
17677SOL    HW256820   0.522   2.021   5.865  0.0476 -0.8410  1.2611
17678SOL     OW56821   6.639   8.800   4.043 -0.3225  0.0999  0.0888
17678SOL    HW156822   6.708   8.768   4.101 -0.2811 -2.3253 -1.1987
17678SOL    HW256823   6.562   8.750   4.067 -1.0249  1.0701 -0.1003
17679SOL     OW56824   5.534   0.421   1.223  0.2881 -0.0238 -0.0853
17679SOL    HW156825   5.440   0.435   1.236  0.3108  0.7325 -0.7001
17679SOL    HW256826   5.563   0.378   1.304 -0.6420 -0.5658 -0.0196
17680SOL     OW56827   4.868   0.091   2.216  0.0716  0.6955 -0.0230
17680SOL    HW156828   4.959   0.071   2.234  0.7169  0.7115 -2.7544
17680SOL    HW256829   4.861   0.085   2.120 -3.2808 -1.4754  0.1767
17681SOL     OW56830   5.654   9.027   2.992  0.5257 -0.3700  0.0538
17681SOL    HW156831   5.600   8.975   3.051  0.1915 -0.0131  0.0680
17681SOL    HW256832   5.599   9.102   2.970  0.1805 -1.1023 -1.6906
17682SOL     OW56833   8.970   6.977  10.101 -0.0994  0.1750  0.3874
17682SOL    HW156834   8.889   6.927  10.110  0.9867 -1.7495 -0.0419
17682SOL    HW256835   8.999   6.960  10.012  0.1887  1.8270  0.1278
17683SOL     OW56836   5.255   1.691   7.689  0.0523 -0.1165 -0.1796
17683SOL    HW156837   5.241   1.695   7.784  1.1880 -0.2354  0.0110
17683SOL    HW256838   5.237   1.780   7.658  1.3421  0.3855  0.4207
17684SOL     OW56839   2.973   3.038   4.740  0.8123 -0.1633  0.3956
17684SOL    HW156840   3.057   2.996   4.723  0.8725  0.2958 -0.4732
17684SOL    HW256841   2.912   2.965   4.752  1.4678 -0.5111  1.8374
17685SOL     OW56842   8.404  10.134   1.719  0.4803 -0.1073  0.3159
17685SOL    HW156843   8.322  10.084   1.718 -1.6621  3.0558  1.8881
17685SOL    HW256844   8.384  10.213   1.669  1.3000  2.3605  3.5816
17686SOL     OW56845   9.844   9.513   8.266 -0.4870  0.2349  0.5325
17686SOL    HW156846   9.847   9.525   8.361  0.9493  1.2192  0.3820
17686SOL    HW256847   9.763   9.557   8.239  1.1292  3.7092  0.8470
17687SOL     OW56848   5.182   0.125   6.335  0.2526  0.3747  0.4768
17687SOL    HW156849   5.093   0.111   6.367  0.7869  0.6744  2.1937
17687SOL    HW256850   5.187   0.073   6.255 -0.7537 -1.5826  1.6082
17688SOL     OW56851   9.191   6.005   5.462  0.3462 -0.0807 -0.5468
17688SOL    HW156852   9.101   6.032   5.475  0.3517 -0.2658 -0.1032
17688SOL    HW256853   9.185   5.924   5.411  0.1700 -0.9932  0.8632
17689SOL     OW56854   8.306   9.482   6.636 -0.2314  0.1164 -1.3488
17689SOL    HW156855   8.222   9.522   6.615 -0.1702 -0.0496 -1.9355
17689SOL    HW256856   8.370   9.551   6.616 -0.2938  0.7505  0.4423
17690SOL     OW56857   4.939   1.009   4.188  0.0696  0.5242  0.4550
17690SOL    HW156858   4.878   1.072   4.225 -2.6732 -0.7397 -1.5521
17690SOL    HW256859   4.953   0.946   4.258 -0.4235  1.1815  1.1673
17691SOL     OW56860   8.788   3.156   1.876  0.1292 -0.2101 -0.2556
17691SOL    HW156861   8.811   3.209   1.953 -1.7365 -1.8402  1.5477
17691SOL    HW256862   8.769   3.220   1.808 -1.5345  1.4975  1.6659
17692SOL     OW56863   3.098   4.915   4.851 -0.9488  0.6898 -0.2870
17692SOL    HW156864   3.094   4.931   4.756 -0.8114  0.2125 -0.3732
17692SOL    HW256865   3.008   4.894   4.875 -0.7332 -0.6203 -0.5685
17693SOL     OW56866   1.512   2.418  10.190 -0.9847  0.4466  0.2108
17693SOL    HW156867   1.555   2.340  10.154 -0.5118  0.1230  1.4270
17693SOL    HW256868   1.498   2.475  10.114  0.6642  0.1119 -0.3935
17694SOL     OW56869   5.826   4.313   3.553  0.3684 -0.4031  0.9519
17694SOL    HW156870   5.756   4.374   3.528  0.6661 -0.5833 -0.4198
17694SOL    HW256871   5.878   4.303   3.473  0.4671 -2.2657  1.2133
17695SOL     OW56872   6.991   9.528   2.178  0.0630  0.4520  0.8487
17695SOL    HW156873   7.033   9.574   2.105 -1.5563  1.2779  0.3923
17695SOL    HW256874   7.008   9.583   2.254  1.1686 -0.0608  0.9970
17696SOL     OW56875   2.043   8.961   6.509 -0.0461 -0.0711  0.5967
17696SOL    HW156876   2.113   8.961   6.573  1.4457  1.9617 -0.9160
17696SOL    HW256877   2.040   8.871   6.477  0.2295 -0.7390  2.3411
17697SOL     OW56878   2.937   2.691   9.435  0.0276  0.5716  0.0724
17697SOL    HW156879   2.955   2.613   9.383  1.8034  0.7778  0.3125
17697SOL    HW256880   2.993   2.680   9.513 -0.9901  1.2715  0.9210
17698SOL     OW56881   8.467   3.874   0.467  0.2110  0.2144  0.3616
17698SOL    HW156882   8.525   3.940   0.504  2.0615 -1.2897  0.3418
17698SOL    HW256883   8.420   3.838   0.542 -1.1393  1.7932  0.3166
17699SOL     OW56884   6.088   6.688   3.346  0.2393  0.8527 -0.0781
17699SOL    HW156885   6.151   6.677   3.418 -0.6311  0.9691  0.7098
17699SOL    HW256886   6.009   6.644   3.377 -0.0784  0.7179 -1.0614
17700SOL     OW56887   1.511   4.048   9.729  0.4293 -0.4269 -0.3145
17700SOL    HW156888   1.529   4.056   9.635 -0.8041 -0.1019 -0.5381
17700SOL    HW256889   1.439   4.109   9.745  1.4970  0.5118  1.1222
17701SOL     OW56890   0.549   8.633   2.132  0.4231  0.2649 -0.5090
17701SOL    HW156891   0.535   8.693   2.058  1.4661  0.2558 -0.7314
17701SOL    HW256892   0.637   8.655   2.164 -0.3818  0.9464  1.3756
17702SOL     OW56893   0.136   3.870   8.111  0.3773 -0.3909 -0.0229
17702SOL    HW156894   0.083   3.945   8.136  0.3892 -0.4559  0.2041
17702SOL    HW256895   0.181   3.897   8.032  0.5831 -0.0657  0.2062
17703SOL     OW56896   4.508   4.053   1.178  0.3864  0.2698 -0.1775
17703SOL    HW156897   4.581   4.090   1.227  0.8770  0.5551 -1.0999
17703SOL    HW256898   4.448   4.020   1.245  0.6831  1.3135  0.6228
17704SOL     OW56899   3.432   7.357   3.083  0.2259  0.3943 -0.3283
17704SOL    HW156900   3.414   7.450   3.099  0.8915  0.8604 -2.0437
17704SOL    HW256901   3.356   7.311   3.120 -1.1159  1.7714 -1.2272
17705SOL     OW56902   1.945   0.722  10.067  0.5113 -0.6227 -0.1596
17705SOL    HW156903   1.931   0.701   9.975  0.4112 -0.8774 -0.0860
17705SOL    HW256904   2.035   0.694  10.085 -0.0008 -2.1191  0.2488
17706SOL     OW56905   8.102  10.084   0.764  0.5623  0.5856 -0.3650
17706SOL    HW156906   8.121  10.153   0.828  0.8379  0.8092 -0.6848
17706SOL    HW256907   8.187  10.063   0.726  0.3289  0.8386 -1.0484
17707SOL     OW56908   9.215   4.691   4.870 -0.1860 -0.0512  0.6852
17707SOL    HW156909   9.231   4.677   4.963  0.5508 -0.2040  0.5413
17707SOL    HW256910   9.299   4.719   4.835 -0.4105 -0.1828  0.0296
17708SOL     OW56911   7.143   0.795   4.198 -0.0660 -0.5499 -0.2459
17708SOL    HW156912   7.123   0.703   4.182  0.1893 -0.4275 -1.2979
17708SOL    HW256913   7.074   0.843   4.153  0.5740 -0.2032 -0.8831
17709SOL     OW56914   8.495  10.041   3.554 -0.3981  0.6432  0.5040
17709SOL    HW156915   8.424  10.097   3.585 -0.8003  0.6995 -0.5043
17709SOL    HW256916   8.561  10.102   3.520 -0.0395  0.5705  1.0475
17710SOL     OW56917   7.944   0.059   4.431  0.2616 -0.2867  0.0517
17710SOL    HW156918   7.997   0.138   4.422  0.1345 -0.0703  1.0673
17710SOL    HW256919   7.907   0.044   4.344  1.2859  0.0552 -0.4571
17711SOL     OW56920   9.644   9.492   0.954  0.3239  0.3658  0.5197
17711SOL    HW156921   9.572   9.551   0.978 -0.1966 -0.3099  0.6442
17711SOL    HW256922   9.660   9.440   1.032 -0.5023 -0.9522 -0.1586
17712SOL     OW56923   3.225   6.374   5.158  0.4903  0.1339 -0.4240
17712SOL    HW156924   3.134   6.399   5.140  0.4234 -0.5600 -1.1099
17712SOL    HW256925   3.274   6.456   5.154  0.2994  0.2110 -2.7037
17713SOL     OW56926   5.261   5.640   4.084  0.3977  0.3429 -0.7311
17713SOL    HW156927   5.258   5.550   4.114  3.3346 -0.3766 -2.1621
17713SOL    HW256928   5.209   5.641   4.003 -1.4072  0.5037  0.3971
17714SOL     OW56929   1.989   5.158   7.209  0.0366 -0.5219  0.1117
17714SOL    HW156930   1.895   5.149   7.224  0.1137  0.2773  1.1507
17714SOL    HW256931   2.026   5.173   7.295  1.2291 -1.5498 -0.1887
17715SOL     OW56932   9.929   6.696   0.348 -0.5782 -0.9815  0.2947
17715SOL    HW156933   9.851   6.752   0.349 -0.6182 -1.0101 -0.3923
17715SOL    HW256934   9.988   6.739   0.286  0.1022 -0.7725  1.0772
17716SOL     OW56935   1.141   2.420   7.932 -0.0436  0.2667  0.5234
17716SOL    HW156936   1.138   2.378   7.845  1.9964 -0.9444  0.9889
17716SOL    HW256937   1.153   2.513   7.913  0.1372  0.0474 -0.5061
17717SOL     OW56938   0.690   5.596   1.346 -0.0276 -0.5222 -0.9848
17717SOL    HW156939   0.784   5.610   1.352  0.2693 -2.5573 -0.2193
17717SOL    HW256940   0.653   5.684   1.336  1.7496  0.5949  1.3955
17718SOL     OW56941   9.947   1.220   0.639  0.1924  0.1952 -0.5259
17718SOL    HW156942   9.893   1.251   0.567 -0.7371 -0.2369 -0.0331
17718SOL    HW256943   9.887   1.169   0.694  1.2126 -0.7630 -0.2547
17719SOL     OW56944   4.223  10.223   0.556  0.2399  0.2804 -0.0671
17719SOL    HW156945   4.198  10.131   0.551 -0.0945  0.4476 -2.0814
17719SOL    HW256946   4.156  10.269   0.505  0.7884  1.5664  0.3338
17720SOL     OW56947   4.374   7.856   1.118  0.1650 -0.1224  0.2500
17720SOL    HW156948   4.440   7.812   1.172 -0.3907 -0.2655  0.8268
17720SOL    HW256949   4.303   7.876   1.179 -0.3747 -0.0748 -0.3853
17721SOL     OW56950  10.102   6.588   7.649 -0.2579  0.0221  0.5126
17721SOL    HW156951  10.194   6.614   7.650  0.0080 -0.6979  3.6336
17721SOL    HW256952  10.104   6.493   7.653 -1.2085 -0.1645 -1.9193
17722SOL     OW56953   6.360   1.815   6.372  0.2839  0.0261 -0.3366
17722SOL    HW156954   6.285   1.872   6.389 -0.3258 -1.3449  1.9768
17722SOL    HW256955   6.325   1.745   6.316 -0.0071 -0.2248  0.1512
17723SOL     OW56956   3.371   2.846   0.478 -0.2144  0.3661  0.2294
17723SOL    HW156957   3.451   2.795   0.492 -1.7441 -1.9943  0.8621
17723SOL    HW256958   3.372   2.868   0.385  0.7265 -0.4500  0.0311
17724SOL     OW56959   1.685   4.907   2.028  0.3234  0.2231  0.1782
17724SOL    HW156960   1.701   4.932   2.119 -1.2702 -1.6996  1.0807
17724SOL    HW256961   1.595   4.874   2.028  0.4870 -0.3666 -1.9731
17725SOL     OW56962   5.871   8.855   9.600 -0.1170  0.3464 -0.1267
17725SOL    HW156963   5.816   8.779   9.580  0.5735  0.1934 -1.5151
17725SOL    HW256964   5.952   8.818   9.633  0.1152  0.4815 -0.5374
17726SOL     OW56965   4.834   4.064   9.351 -0.1282 -0.3723 -0.3557
17726SOL    HW156966   4.805   4.031   9.436 -1.3594 -0.7252 -0.8943
17726SOL    HW256967   4.756   4.102   9.312  0.2766 -0.7797 -1.5997
17727SOL     OW56968   8.015   1.764   6.975  0.1926 -0.0945 -0.5157
17727SOL    HW156969   7.929   1.765   6.932 -0.4869  0.0215  0.7930
17727SOL    HW256970   8.050   1.677   6.956 -1.8858 -1.6303  2.0049
17728SOL     OW56971   9.713  10.302  10.014  0.0949 -0.0000 -0.6255
17728SOL    HW156972   9.763  10.360   9.957 -0.4604  0.4256 -0.6837
17728SOL    HW256973   9.689  10.357  10.089 -1.4252  0.1855 -1.2271
17729SOL     OW56974   3.473   3.432   0.884  0.0313 -0.4622 -0.2914
17729SOL    HW156975   3.542   3.468   0.940  1.0389  0.9788 -2.3320
17729SOL    HW256976   3.393   3.474   0.914  0.5536  0.2850  0.0807
17730SOL     OW56977   9.198   0.414   7.750 -0.3718 -0.2920  0.0057
17730SOL    HW156978   9.107   0.385   7.754 -0.5428  0.3463  1.6140
17730SOL    HW256979   9.240   0.370   7.823  0.3706  0.1732 -0.1347
17731SOL     OW56980  10.169   9.235   7.146 -0.3035  0.6406 -0.1136
17731SOL    HW156981  10.222   9.159   7.166  1.8040  1.6446 -1.5825
17731SOL    HW256982  10.129   9.217   7.061 -0.1673  0.9817 -0.2543
17732SOL     OW56983   4.467   8.979   1.167 -0.1885 -0.3031 -0.1032
17732SOL    HW156984   4.386   9.010   1.208  0.6416  0.7597  0.8067
17732SOL    HW256985   4.536   9.028   1.211  0.8802 -0.3068 -1.6969
17733SOL     OW56986   2.436   7.767   0.673  0.1002  0.4313  0.0073
17733SOL    HW156987   2.351   7.810   0.670  0.7288  1.7188 -0.5293
17733SOL    HW256988   2.422   7.682   0.631 -0.5663  1.3081 -1.6390
17734SOL     OW56989   3.059   6.454   6.490 -0.2614  0.4199  0.1350
17734SOL    HW156990   3.010   6.440   6.571  0.0453  2.5381  0.7507
17734SOL    HW256991   2.997   6.497   6.431 -0.5830 -1.4054 -0.9231
17735SOL     OW56992   5.326   0.680   8.421 -0.0602  0.2534  0.3122
17735SOL    HW156993   5.285   0.752   8.373 -1.0475  0.6031  1.6246
17735SOL    HW256994   5.416   0.709   8.436 -0.3227  1.0294  0.4402
17736SOL     OW56995   7.077   2.520  10.028 -0.3456  0.0370 -0.1418
17736SOL    HW156996   7.161   2.539  10.070  0.2715  1.5480 -1.9374
17736SOL    HW256997   7.024   2.598  10.045 -0.4573  0.2058 -1.2138
17737SOL     OW56998   2.281   8.882   3.202 -0.4250 -0.0897  0.1023
17737SOL    HW156999   2.232   8.814   3.249  0.3467 -0.3508  0.5549
17737SOL    HW257000   2.224   8.908   3.130 -1.2235 -0.3859  0.6124
17738SOL     OW57001   2.728   3.838   9.222  0.2839 -0.1429 -0.3203
17738SOL    HW157002   2.656   3.805   9.168 -0.3256 -0.4295  0.6391
17738SOL    HW257003   2.781   3.891   9.162 -1.3285  0.9820 -0.8247
17739SOL     OW57004   9.672   7.857   4.724  0.1487  0.3682 -0.3606
17739SOL    HW157005   9.591   7.814   4.697  0.6287 -0.1403 -1.0584
17739SOL    HW257006   9.693   7.819   4.809  1.2292 -1.8217 -1.4977
17740SOL     OW57007   9.919   5.039   2.775  0.4782  1.3652  0.9961
17740SOL    HW157008   9.951   5.125   2.750  0.0832  0.6697 -2.2823
17740SOL    HW257009   9.862   5.012   2.703 -0.3120 -1.1828  2.4453
17741SOL     OW57010   6.398   4.562   3.910  0.1608 -0.2830 -0.9095
17741SOL    HW157011   6.418   4.514   3.990 -0.3177  1.5142  0.3554
17741SOL    HW257012   6.312   4.600   3.925  0.4359  0.8161 -1.9013
17742SOL     OW57013   2.040   9.562   4.911  0.2256  0.1030  0.5107
17742SOL    HW157014   2.017   9.623   4.981 -1.5200  0.6701 -0.5080
17742SOL    HW257015   2.068   9.619   4.838 -1.8041 -0.2013 -0.5895
17743SOL     OW57016   5.361   7.492   8.785  0.3096  0.2827 -0.5419
17743SOL    HW157017   5.281   7.462   8.742 -0.9534  1.4621  0.9204
17743SOL    HW257018   5.411   7.534   8.715 -0.2495 -0.5807 -1.5007
17744SOL     OW57019   5.388   8.525   2.305 -0.0444  0.4336  0.2846
17744SOL    HW157020   5.367   8.535   2.212 -0.8534  1.3397  0.5475
17744SOL    HW257021   5.415   8.434   2.314 -2.6186 -0.4775 -0.3359
17745SOL     OW57022   6.209   2.712   8.872  0.0180  0.2218  0.5266
17745SOL    HW157023   6.214   2.708   8.776  0.5237  0.1330  0.5508
17745SOL    HW257024   6.270   2.644   8.901 -0.4070  0.0026  0.9114
17746SOL     OW57025   6.388   1.420   2.048  0.0911  0.2694  0.4768
17746SOL    HW157026   6.329   1.480   2.094 -2.0901  1.7316 -3.7327
17746SOL    HW257027   6.458   1.475   2.014  0.6909 -0.4357  0.5501
17747SOL     OW57028   1.093   2.951   0.561  0.1468 -0.6414 -0.3123
17747SOL    HW157029   1.120   3.014   0.628 -0.6779 -1.2563  0.6143
17747SOL    HW257030   1.145   2.873   0.579 -2.3005 -1.9571  1.6957
17748SOL     OW57031   0.579   0.050   0.197  0.1995  0.3473  0.5154
17748SOL    HW157032   0.613  -0.034   0.166  1.5363  0.7618  0.7872
17748SOL    HW257033   0.551   0.096   0.117  0.8279  0.2192  0.2163
17749SOL     OW57034   2.312   4.500   0.444 -0.0743 -0.2649  0.3523
17749SOL    HW157035   2.217   4.508   0.446 -0.1861 -1.4501  0.4664
17749SOL    HW257036   2.336   4.472   0.533  0.1263 -2.2816 -0.2985
17750SOL     OW57037   0.512   0.924   7.322  0.5282 -0.2149  0.1324
17750SOL    HW157038   0.482   0.979   7.394  1.7007 -0.7365  1.0580
17750SOL    HW257039   0.508   0.980   7.245 -2.2674 -0.1051  0.2615
17751SOL     OW57040   6.726   9.003   2.438 -0.1178  0.5816 -0.5633
17751SOL    HW157041   6.747   8.914   2.409  0.1789 -0.1799  1.7914
17751SOL    HW257042   6.734   9.000   2.533 -0.3964  3.0757 -0.3924
17752SOL     OW57043   8.632   6.921   4.061 -0.9692  0.6806 -0.2616
17752SOL    HW157044   8.557   6.937   4.120 -0.6347  1.2304  0.0188
17752SOL    HW257045   8.655   7.008   4.028 -0.0506  0.6021  0.1510
17753SOL     OW57046   6.837  10.141   9.774  0.2115  0.2453  0.3164
17753SOL    HW157047   6.860  10.178   9.860  0.5856 -0.1432  0.3848
17753SOL    HW257048   6.749  10.105   9.786 -0.1051  0.9871  0.2869
17754SOL     OW57049   8.828   8.703   8.331  0.0759 -0.0349 -0.1562
17754SOL    HW157050   8.759   8.769   8.333 -1.5680 -1.6863  1.5728
17754SOL    HW257051   8.908   8.751   8.351 -0.7760  1.6880 -0.7070
17755SOL     OW57052   9.342   8.198   0.697  0.2864 -0.1140 -0.2805
17755SOL    HW157053   9.431   8.163   0.684  0.0232 -0.8581 -0.1488
17755SOL    HW257054   9.335   8.270   0.635  0.8050 -0.3805 -0.6593
17756SOL     OW57055   1.463   8.838   5.579 -0.0824  0.2858  0.5838
17756SOL    HW157056   1.542   8.889   5.595  1.9105 -2.0038 -1.2906
17756SOL    HW257057   1.446   8.793   5.662  1.0330  0.2509  0.8042
17757SOL     OW57058   9.810   7.880  10.158  0.2551 -0.3458  1.6818
17757SOL    HW157059   9.786   7.959  10.108  2.7951  0.0942  1.0385
17757SOL    HW257060   9.802   7.809  10.095 -0.8470 -0.4672  1.9292
17758SOL     OW57061   3.181   7.715   3.720  0.4666 -0.3283 -0.1420
17758SOL    HW157062   3.156   7.791   3.667 -0.7801  0.0525  0.9224
17758SOL    HW257063   3.268   7.691   3.689  1.0848  1.8096 -0.2228
17759SOL     OW57064   3.403   5.641   5.410 -0.4266  0.3944  0.2148
17759SOL    HW157065   3.460   5.586   5.464  0.9638  1.0859 -0.4766
17759SOL    HW257066   3.378   5.714   5.466  0.0877  0.5286  0.2742
17760SOL     OW57067   0.434   8.687   9.974 -0.5702  0.0201 -0.7063
17760SOL    HW157068   0.346   8.682  10.012 -0.7358 -0.8676 -1.1831
17760SOL    HW257069   0.420   8.726   9.888 -0.4029  0.5354 -0.5010
17761SOL     OW57070   0.441   2.054   1.150 -0.3204 -0.5407 -0.0098
17761SOL    HW157071   0.388   2.126   1.185  0.1341  0.3279 -1.0620
17761SOL    HW257072   0.451   2.074   1.057 -2.2938 -3.2735 -0.9423
17762SOL     OW57073   1.887   7.154   8.145 -0.5100  0.8440  0.4696
17762SOL    HW157074   1.868   7.150   8.239  0.8373 -0.1435  0.7355
17762SOL    HW257075   1.979   7.128   8.138 -1.3201 -1.9888 -1.3762
17763SOL     OW57076   5.289   9.124   0.531  0.1761 -0.5552  0.1264
17763SOL    HW157077   5.377   9.106   0.497  0.7049  0.9924  0.5701
17763SOL    HW257078   5.302   9.198   0.590 -0.8185 -2.5598  3.1035
17764SOL     OW57079   7.266   6.310   2.232  0.1059 -0.1824  0.0264
17764SOL    HW157080   7.252   6.227   2.278  0.9816  0.8665  2.3126
17764SOL    HW257081   7.325   6.359   2.288 -0.0010  1.8328 -1.5139
17765SOL     OW57082   1.106   5.603   4.241  0.1944 -0.3243  0.0486
17765SOL    HW157083   1.092   5.615   4.335 -0.2486  2.4752 -0.3147
17765SOL    HW257084   1.194   5.636   4.225  0.2558 -0.7599 -0.5531
17766SOL     OW57085   4.158   9.026   0.460  0.0420 -0.2182 -0.2258
17766SOL    HW157086   4.151   9.004   0.553 -0.8296 -0.0292 -0.2342
17766SOL    HW257087   4.081   9.080   0.443  0.7316  0.5867 -0.8278
17767SOL     OW57088   0.144   7.379   9.493 -0.2117  0.4496  0.3959
17767SOL    HW157089   0.208   7.440   9.529 -0.1535  0.6364 -0.0164
17767SOL    HW257090   0.085   7.434   9.440  1.1874 -0.1016 -1.8713
17768SOL     OW57091   4.098  10.157   4.317 -0.2455  0.6148 -0.2747
17768SOL    HW157092   4.085  10.198   4.232 -2.2523  1.2085  0.2574
17768SOL    HW257093   4.093  10.063   4.299 -1.0932  0.7401 -0.7838
17769SOL     OW57094   0.009   0.315   4.790  0.2888  0.5151 -0.1882
17769SOL    HW157095  -0.009   0.275   4.875  0.0285  1.5801  0.2702
17769SOL    HW257096   0.014   0.241   4.730 -0.5292 -0.1805  0.5689
17770SOL     OW57097   1.956   9.360   9.566  0.3331 -0.4679 -0.4489
17770SOL    HW157098   1.916   9.367   9.479 -2.2851  1.0795  0.7627
17770SOL    HW257099   2.049   9.378   9.551 -0.0807  0.0086 -2.8770
17771SOL     OW57100   8.605   1.631   9.436  0.0420  0.3015  0.7250
17771SOL    HW157101   8.522   1.661   9.474  0.4895  1.2325  0.9719
17771SOL    HW257102   8.643   1.575   9.504  0.4914  1.3736  1.3836
17772SOL     OW57103   3.426   9.478   9.847  0.4639 -0.2470 -0.2407
17772SOL    HW157104   3.453   9.395   9.886 -0.3725 -0.1239  0.6159
17772SOL    HW257105   3.455   9.545   9.909 -0.2136 -0.0063 -0.1699
17773SOL     OW57106   8.071   2.247   4.066  0.3767 -0.2299 -0.0868
17773SOL    HW157107   8.062   2.296   3.984 -1.2884  0.4637  0.4507
17773SOL    HW257108   8.134   2.298   4.118  0.3869  0.0913 -0.4101
17774SOL     OW57109   8.918   1.239   9.035  0.2939 -0.3882  0.0169
17774SOL    HW157110   8.890   1.148   9.032 -0.5639 -0.1564  0.4389
17774SOL    HW257111   8.848   1.287   8.990  1.9941 -0.1936 -2.6035
17775SOL     OW57112   0.229   4.540   5.621 -0.0674  0.5778 -0.1256
17775SOL    HW157113   0.179   4.480   5.567 -0.9453  0.8185  0.3925
17775SOL    HW257114   0.318   4.506   5.620 -0.1763  0.2924 -1.2874
17776SOL     OW57115   0.454  10.313   2.128 -0.0138 -0.4127 -0.4496
17776SOL    HW157116   0.408  10.328   2.211  1.0969  0.7655 -0.0145
17776SOL    HW257117   0.502  10.231   2.142 -1.3633 -1.2769 -0.6591
17777SOL     OW57118   2.653   0.447   7.176 -0.0411 -0.6691  0.0491
17777SOL    HW157119   2.618   0.450   7.265  0.0173 -1.5977  0.1094
17777SOL    HW257120   2.581   0.478   7.121  0.2808  0.9952  0.5007
17778SOL     OW57121   7.659   8.365   0.411  1.0562 -0.6197 -0.4661
17778SOL    HW157122   7.686   8.417   0.335  0.0655 -0.1418 -0.5060
17778SOL    HW257123   7.741   8.344   0.456  1.4437  1.6655  0.0078
17779SOL     OW57124   8.618   7.252   2.364 -0.1222 -0.0127  0.5749
17779SOL    HW157125   8.656   7.317   2.423 -0.4410  0.6730  0.0478
17779SOL    HW257126   8.543   7.216   2.412  0.1522 -0.1103  0.9316
17780SOL     OW57127   0.909   7.445   2.498  0.5193 -0.0885 -0.4290
17780SOL    HW157128   0.822   7.449   2.537  0.2085 -1.4371 -0.9047
17780SOL    HW257129   0.939   7.536   2.496 -0.9569  0.4319 -0.4392
17781SOL     OW57130   7.434   4.457   6.466 -0.2353 -0.0970  0.2793
17781SOL    HW157131   7.391   4.394   6.408  0.1050  0.1830 -0.2894
17781SOL    HW257132   7.457   4.407   6.544 -0.5903 -0.5088  0.1235
17782SOL     OW57133   2.825   1.524   4.036  0.6482 -0.2709 -0.5229
17782SOL    HW157134   2.877   1.516   3.956  0.2962  0.2961 -0.8168
17782SOL    HW257135   2.813   1.619   4.047 -1.0202 -0.4156 -0.9283
17783SOL     OW57136   1.819   8.994   7.758 -0.0052  0.1853 -0.3451
17783SOL    HW157137   1.839   8.917   7.705  1.2109  1.5737 -2.0211
17783SOL    HW257138   1.903   9.019   7.796 -0.8158 -0.6509  2.1592
17784SOL     OW57139   4.192   1.722   1.703  0.7082 -0.4068  0.2109
17784SOL    HW157140   4.144   1.717   1.786  0.1224 -1.1072 -0.1526
17784SOL    HW257141   4.151   1.794   1.655  2.2016  1.1723  1.2160
17785SOL     OW57142   0.990   2.264   2.452 -0.2334  0.5433  0.1094
17785SOL    HW157143   0.907   2.223   2.475  0.0740  1.0704  2.4592
17785SOL    HW257144   0.967   2.355   2.430 -0.2537  0.8360  1.2827
17786SOL     OW57145   4.119   4.291   8.673 -0.4515  0.4818  0.3939
17786SOL    HW157146   4.082   4.234   8.606  0.1489  1.8653 -1.2043
17786SOL    HW257147   4.159   4.232   8.736 -0.2025 -0.8905 -0.9858
17787SOL     OW57148   7.259   1.308   1.616 -0.8900  0.7501  0.4965
17787SOL    HW157149   7.177   1.273   1.580 -0.7484 -0.3204  1.1537
17787SOL    HW257150   7.293   1.237   1.671  0.7397  0.9891 -0.1552
17788SOL     OW57151   9.618   2.821   9.268 -0.0284  0.4997 -0.0473
17788SOL    HW157152   9.708   2.838   9.240  0.3388  1.2006  1.4414
17788SOL    HW257153   9.598   2.734   9.234  1.6325 -0.1576  0.5373
17789SOL     OW57154   6.916   3.147   9.971  0.2735 -0.3214  0.5594
17789SOL    HW157155   6.931   3.212  10.040  0.0275 -1.2778  1.5414
17789SOL    HW257156   6.943   3.191   9.890 -1.2652  1.5202  0.9877
17790SOL     OW57157   1.978   0.198   7.932 -0.5327 -0.5477 -0.3062
17790SOL    HW157158   1.984   0.281   7.979 -0.6916 -0.7320  0.0462
17790SOL    HW257159   1.983   0.222   7.839 -0.0800 -0.1929 -0.1931
17791SOL     OW57160   3.651   3.080   3.725  0.5191  0.2153 -0.0892
17791SOL    HW157161   3.574   3.099   3.672 -0.9976  0.4510  2.0786
17791SOL    HW257162   3.633   2.995   3.764  0.2233  1.2937  2.2701
17792SOL     OW57163   6.830   9.954   0.829  0.5338  0.0813  0.1364
17792SOL    HW157164   6.872  10.032   0.792 -0.0807 -0.1240 -1.0378
17792SOL    HW257165   6.903   9.904   0.867  1.2690  0.1051 -1.1729
17793SOL     OW57166   9.860   0.752   9.481 -0.2993 -0.5494  0.5011
17793SOL    HW157167   9.949   0.734   9.510 -0.2180  1.2130  1.4772
17793SOL    HW257168   9.823   0.808   9.549 -1.6884 -0.1070 -0.5654
17794SOL     OW57169   9.687   0.484   4.652 -0.3342  0.2622  0.6672
17794SOL    HW157170   9.771   0.441   4.634 -0.3474  0.3696  0.3511
17794SOL    HW257171   9.630   0.414   4.682 -1.2387 -0.5421 -2.5371
17795SOL     OW57172   0.690   6.176   2.967  0.2709 -0.0832  0.3877
17795SOL    HW157173   0.754   6.187   2.896 -1.4171  0.1334 -1.1857
17795SOL    HW257174   0.615   6.229   2.939 -0.1803  0.6130  2.7363
17796SOL     OW57175   1.892   7.498   0.588  0.0891  0.0283  0.2386
17796SOL    HW157176   1.883   7.403   0.581  0.4515  0.1045 -1.8363
17796SOL    HW257177   1.808   7.526   0.625 -0.9121 -0.9340 -1.1720
17797SOL     OW57178   7.406   9.570   5.434 -0.2806  0.3220 -0.2235
17797SOL    HW157179   7.452   9.608   5.359 -0.1310  0.5771 -0.0054
17797SOL    HW257180   7.440   9.481   5.441 -0.3478  0.2734 -0.5024
17798SOL     OW57181   7.367   4.614   9.923  0.4211 -0.4187 -0.0702
17798SOL    HW157182   7.360   4.586   9.831  1.3093  0.5216 -0.4487
17798SOL    HW257183   7.460   4.637   9.934 -0.0373  1.3540  0.4784
17799SOL     OW57184   5.407  10.331   7.934 -0.2029 -0.4752  0.4600
17799SOL    HW157185   5.407  10.420   7.900 -0.5026 -1.1594 -1.5040
17799SOL    HW257186   5.317  10.317   7.964 -0.3911 -0.3769 -0.0376
17800SOL     OW57187   1.194   2.794   9.820  0.1414  0.2494 -0.0905
17800SOL    HW157188   1.145   2.797   9.902  0.5298  1.3992  0.1185
17800SOL    HW257189   1.133   2.829   9.754  0.5960  1.5552  0.1462
17801SOL     OW57190   2.145   3.047   0.530  0.2027  0.0654  0.5350
17801SOL    HW157191   2.069   3.046   0.588  0.8205 -1.2875  1.3670
17801SOL    HW257192   2.131   2.975   0.469  0.3092  0.4851  0.0111
17802SOL     OW57193   1.161   9.934   2.333 -0.2223  0.2906  0.4023
17802SOL    HW157194   1.080   9.923   2.283  0.2138  0.7439 -0.4300
17802SOL    HW257195   1.225   9.961   2.268  0.8211 -0.9357  0.8787
17803SOL     OW57196   6.490   1.829   2.948 -0.8047 -0.2404  0.4018
17803SOL    HW157197   6.529   1.749   2.912  0.4776  0.4471  0.2345
17803SOL    HW257198   6.436   1.863   2.876 -0.7488 -0.5399  0.2133
17804SOL     OW57199   8.825   2.705   6.733 -0.0388  0.1874  0.5389
17804SOL    HW157200   8.777   2.759   6.795  0.0180 -0.1578  0.8909
17804SOL    HW257201   8.843   2.763   6.659 -1.3084  0.2247  0.2348
17805SOL     OW57202   8.217   6.702   6.230 -0.0823  0.2419  0.6452
17805SOL    HW157203   8.260   6.643   6.168 -0.0384 -0.0050  0.9121
17805SOL    HW257204   8.269   6.696   6.310 -0.8460 -0.3648  1.1036
17806SOL     OW57205  10.357   2.850   2.659 -0.8539  0.0813  0.2691
17806SOL    HW157206  10.434   2.892   2.698 -1.1349  0.3633  0.5332
17806SOL    HW257207  10.285   2.910   2.681 -1.0631  0.0794 -0.4169
17807SOL     OW57208   4.607   9.945   9.083  0.3143  0.3528  0.2714
17807SOL    HW157209   4.579   9.967   9.171  1.6875  0.4264  0.7128
17807SOL    HW257210   4.678   9.881   9.095  0.5574  0.4076 -0.7665
17808SOL     OW57211   0.217   2.988  10.043  0.3324  0.2907 -0.1524
17808SOL    HW157212   0.125   2.997  10.018  0.7419  2.5101 -1.1502
17808SOL    HW257213   0.236   2.895  10.034 -1.9418 -0.2998  0.6227
17809SOL     OW57214   2.414   2.302   0.624 -0.7999 -0.4038  0.2669
17809SOL    HW157215   2.455   2.223   0.658 -0.0311  0.1672  0.6808
17809SOL    HW257216   2.331   2.309   0.671  0.1358  0.2408  1.8905
17810SOL     OW57217   5.168   5.927   3.198 -0.1165  0.0938  0.0634
17810SOL    HW157218   5.093   5.897   3.147  0.4311  0.7491 -1.1774
17810SOL    HW257219   5.157   6.022   3.202  0.3434  0.1353  0.3711
17811SOL     OW57220   2.837   7.862   8.139 -0.2446 -0.3841 -0.3754
17811SOL    HW157221   2.775   7.924   8.176  1.0099  0.8920 -0.3461
17811SOL    HW257222   2.834   7.878   8.045 -1.0503 -1.3904 -0.5461
17812SOL     OW57223   9.064   8.536   6.644 -0.1050 -0.1092 -0.4198
17812SOL    HW157224   8.985   8.537   6.698 -0.1461  0.5933 -0.4837
17812SOL    HW257225   9.095   8.626   6.646 -0.6804  0.1677 -2.4031
17813SOL     OW57226   6.889   1.754   4.121 -0.0959  0.1823  0.4078
17813SOL    HW157227   6.851   1.727   4.205 -3.6750  1.7977 -0.4948
17813SOL    HW257228   6.886   1.675   4.067  0.2877 -0.3562  1.1645
17814SOL     OW57229   8.492   1.095   1.449 -0.1169  0.5490 -0.1678
17814SOL    HW157230   8.562   1.154   1.420  1.3163 -0.7980  0.4592
17814SOL    HW257231   8.502   1.017   1.395 -0.7744  0.1030  0.3425
17815SOL     OW57232   4.082   4.556   8.622 -0.5086 -0.4491  0.0548
17815SOL    HW157233   4.044   4.590   8.702 -1.4050 -0.2610 -0.4411
17815SOL    HW257234   4.103   4.465   8.642 -1.1295 -0.5245  0.3700
17816SOL     OW57235   5.976   2.810   0.248  0.0070 -0.3288 -0.5604
17816SOL    HW157236   6.049   2.871   0.260 -1.0686  0.6722  1.1910
17816SOL    HW257237   5.905   2.864   0.212 -0.8819 -0.5511  0.7798
17817SOL     OW57238   3.636   0.258   7.345 -0.6966  0.6521 -0.3335
17817SOL    HW157239   3.542   0.245   7.363 -1.0708  1.1995 -1.7403
17817SOL    HW257240   3.641   0.344   7.305  0.3828  0.5166 -0.5134
17818SOL     OW57241   4.439   6.915   7.429 -0.2129 -0.3702  0.3494
17818SOL    HW157242   4.497   6.875   7.365 -0.4984 -1.9310  1.0070
17818SOL    HW257243   4.357   6.865   7.422 -1.7915  2.1942 -1.0198
17819SOL     OW57244   2.010   1.348   7.803 -0.0086  0.2381 -0.1062
17819SOL    HW157245   1.966   1.407   7.742  1.0961 -0.0826 -1.2355
17819SOL    HW257246   2.097   1.385   7.815  0.3166 -0.5653  0.0574
17820SOL     OW57247   3.006   2.708  10.309  0.7711 -0.2691 -0.3631
17820SOL    HW157248   3.031   2.674  10.396  1.7418 -0.3560 -0.6597
17820SOL    HW257249   2.952   2.785  10.328  0.4516 -0.6596  0.3205
17821SOL     OW57250   1.909   2.933   6.389 -0.6111 -0.0566  0.1013
17821SOL    HW157251   1.862   2.850   6.386  0.7075 -0.8148 -0.3262
17821SOL    HW257252   1.884   2.971   6.473 -0.1300 -1.5810  0.9788
17822SOL     OW57253   0.758   0.588   5.067 -0.6550  0.0770  0.0530
17822SOL    HW157254   0.816   0.529   5.018 -0.2134  1.7453 -1.5645
17822SOL    HW257255   0.805   0.671   5.069 -1.0203  0.2969  2.7310
17823SOL     OW57256   6.113   1.672   5.325  0.6300  0.5981  0.2570
17823SOL    HW157257   6.100   1.766   5.340  2.3007  0.6797  1.3377
17823SOL    HW257258   6.101   1.632   5.411 -0.8424 -0.3018 -0.3383
17824SOL     OW57259   8.562   2.383   8.004  0.3525 -0.1624  0.1515
17824SOL    HW157260   8.557   2.478   8.006 -1.1160 -0.2047 -0.1065
17824SOL    HW257261   8.656   2.363   8.001  0.6787  1.3293 -2.0868
17825SOL     OW57262   6.561   5.104   2.818  0.1399 -0.2933  0.0132
17825SOL    HW157263   6.621   5.166   2.859 -1.5060  1.2381  0.2112
17825SOL    HW257264   6.537   5.145   2.735  0.1727 -1.3911 -0.5634
17826SOL     OW57265   7.882   7.386   8.033 -0.3854  0.2067  0.2315
17826SOL    HW157266   7.955   7.383   7.970 -0.7343  0.4485 -0.1870
17826SOL    HW257267   7.877   7.478   8.058  0.1523  0.0088  1.0916
17827SOL     OW57268   9.529   7.200   8.668  0.1022 -0.4962 -0.0354
17827SOL    HW157269   9.575   7.241   8.594 -0.0633 -1.8324 -0.9045
17827SOL    HW257270   9.594   7.199   8.739  0.0993  1.2695  0.0422
17828SOL     OW57271   4.408   2.200   6.067  0.2798  0.2583  0.2895
17828SOL    HW157272   4.472   2.240   6.009 -0.9310  1.1447 -0.4806
17828SOL    HW257273   4.382   2.119   6.023 -0.5170  0.8493 -0.3760
17829SOL     OW57274   3.485   4.583   4.070 -0.0596 -0.2683 -0.0122
17829SOL    HW157275   3.461   4.631   4.149 -3.0012  0.4054 -1.1803
17829SOL    HW257276   3.551   4.638   4.028 -2.7412  2.5321 -0.8989
17830SOL     OW57277   3.156   3.238   7.661 -0.5448  0.0467 -0.2059
17830SOL    HW157278   3.200   3.154   7.648 -1.5576 -0.5464  0.1348
17830SOL    HW257279   3.147   3.275   7.573  0.8360  0.3056 -0.2671
17831SOL     OW57280   9.099   9.973   9.408 -0.0109 -0.2527  0.4743
17831SOL    HW157281   9.179   9.921   9.400 -0.5914 -0.8940 -1.9212
17831SOL    HW257282   9.113  10.047   9.348 -0.4682  0.6725  1.4761
17832SOL     OW57283   5.345   2.885   5.413 -0.0324 -0.4407 -0.2067
17832SOL    HW157284   5.437   2.860   5.403  0.4731  1.7283 -1.9951
17832SOL    HW257285   5.349   2.977   5.440 -1.6710 -0.3988 -0.0551
17833SOL     OW57286   2.709   6.980  10.131  0.4422  0.3023 -0.0975
17833SOL    HW157287   2.698   6.956  10.039 -0.7013  1.3879 -0.2813
17833SOL    HW257288   2.719   6.897  10.177 -0.5818 -0.3496 -1.0066
17834SOL     OW57289   4.442   4.991   1.450  0.7137  0.1665 -0.1500
17834SOL    HW157290   4.386   5.026   1.519  0.0537 -1.1968  0.0207
17834SOL    HW257291   4.387   4.929   1.403  2.4135 -2.2578  0.8703
17835SOL     OW57292   1.124   9.968   5.749  0.1972  0.3611 -0.6341
17835SOL    HW157293   1.037   9.960   5.787 -0.2724  0.0696 -1.7335
17835SOL    HW257294   1.169  10.031   5.805 -0.1979 -0.6217  0.8630
17836SOL     OW57295   5.296   6.248   7.907  0.2559  0.3442 -0.0859
17836SOL    HW157296   5.325   6.157   7.899 -0.8998  0.0147 -0.8745
17836SOL    HW257297   5.286   6.263   8.001 -0.6555 -0.7367  0.0081
17837SOL     OW57298   5.391   2.780   3.550 -0.5038  0.3085  0.0384
17837SOL    HW157299   5.481   2.803   3.575 -0.8160  1.9968 -0.2490
17837SOL    HW257300   5.344   2.773   3.633 -0.8467  2.8543  0.1325
17838SOL     OW57301   1.981   3.590   3.475 -0.2640 -0.5265  0.1221
17838SOL    HW157302   2.006   3.504   3.442 -2.5643 -0.4660 -1.9851
17838SOL    HW257303   2.064   3.637   3.485  0.8589 -2.2203 -0.8751
17839SOL     OW57304   6.772   9.990   1.793  0.3431 -0.1445 -0.4499
17839SOL    HW157305   6.747   9.951   1.710 -1.1297 -1.9422  0.7388
17839SOL    HW257306   6.691   9.993   1.844  1.3620 -0.0923  1.2828
17840SOL     OW57307   8.668   8.549   2.719  0.2123  0.2016 -0.0318
17840SOL    HW157308   8.587   8.525   2.675 -1.5864 -0.9540  3.5792
17840SOL    HW257309   8.643   8.618   2.780  2.3812  1.1556 -0.1274
17841SOL     OW57310   3.409   2.934   3.274  0.5602  0.9808 -0.4061
17841SOL    HW157311   3.388   2.975   3.190  0.5633  0.6037 -0.5937
17841SOL    HW257312   3.480   2.987   3.310 -0.3275  1.9404 -0.0194
17842SOL     OW57313   7.061   9.218   9.399 -0.0631  0.7523  0.6680
17842SOL    HW157314   7.092   9.149   9.459 -1.1686  0.2760  0.7152
17842SOL    HW257315   6.969   9.195   9.382 -0.4972  2.3164  0.8132
17843SOL     OW57316   0.953   4.446   2.026  0.0955  0.2394  0.1806
17843SOL    HW157317   0.988   4.524   2.070  1.8034 -0.0843 -0.5169
17843SOL    HW257318   0.861   4.443   2.053 -0.1202  2.6571 -0.0109
17844SOL     OW57319   9.774   7.816   6.390  0.6927 -0.5116 -0.0525
17844SOL    HW157320   9.770   7.859   6.475  3.5244 -1.0125  0.4477
17844SOL    HW257321   9.797   7.885   6.328 -0.0450 -0.3974 -0.2158
17845SOL     OW57322   0.597   7.344   8.916 -0.7489  0.5948  0.3356
17845SOL    HW157323   0.531   7.277   8.933 -0.1449 -0.2358 -0.4795
17845SOL    HW257324   0.581   7.371   8.825  0.0540  0.3366  0.1055
17846SOL     OW57325   0.709   1.497   3.848  0.0786 -0.0352  0.1650
17846SOL    HW157326   0.616   1.512   3.863  0.1489  0.0563  0.5218
17846SOL    HW257327   0.728   1.415   3.893  0.4780  0.6845  1.3813
17847SOL     OW57328   6.689   7.675   9.595  0.2526  0.0180  0.3252
17847SOL    HW157329   6.645   7.760   9.602  0.4446  0.0238  1.5161
17847SOL    HW257330   6.713   7.652   9.684  1.3055 -0.7203 -0.1263
17848SOL     OW57331   7.739   4.432   5.887 -0.1760  0.3042 -0.2323
17848SOL    HW157332   7.644   4.435   5.874 -0.1821  0.1990 -0.2081
17848SOL    HW257333   7.751   4.375   5.963 -0.1415  0.9308  0.2419
17849SOL     OW57334   8.464   6.874   9.441 -0.5735  0.0700 -0.4964
17849SOL    HW157335   8.543   6.926   9.455 -1.6890  1.1849  2.3212
17849SOL    HW257336   8.405   6.932   9.392 -0.8824  0.5818  0.4497
17850SOL     OW57337   3.798   2.902  10.293 -0.2863  0.1780 -0.0065
17850SOL    HW157338   3.881   2.888  10.249  0.5345 -1.0366  1.8363
17850SOL    HW257339   3.761   2.815  10.305 -0.8553  0.5316  0.9914
17851SOL     OW57340   4.604   9.135   0.402 -0.7247  0.4914  0.0078
17851SOL    HW157341   4.629   9.180   0.483 -1.2369  1.2196 -0.2205
17851SOL    HW257342   4.675   9.074   0.385 -1.0422 -0.3302  1.4965
17852SOL     OW57343   3.531   1.529   7.912 -0.1411  0.7296  0.1389
17852SOL    HW157344   3.552   1.495   7.999  0.9924  0.8571 -0.0685
17852SOL    HW257345   3.437   1.546   7.915  0.0168  1.5839  1.6391
17853SOL     OW57346   6.761   0.882   5.857  0.2276 -0.3439 -0.0912
17853SOL    HW157347   6.680   0.915   5.817  0.5393  0.6659  0.0951
17853SOL    HW257348   6.830   0.934   5.818  0.5992  0.2613  1.3041
17854SOL     OW57349   6.090   0.241   0.058  0.5287 -0.3671  0.0823
17854SOL    HW157350   6.021   0.187   0.097 -0.3528  0.6996  0.0683
17854SOL    HW257351   6.063   0.253  -0.033  1.4096 -0.9820 -0.2714
17855SOL     OW57352   4.655   6.411   9.780 -0.5618 -0.2406 -0.4390
17855SOL    HW157353   4.559   6.415   9.774 -0.8498 -1.3420  2.1316
17855SOL    HW257354   4.673   6.421   9.873  1.6911 -2.2788 -0.5758
17856SOL     OW57355   4.217   3.484   1.342  0.0157 -0.2702  0.7593
17856SOL    HW157356   4.282   3.529   1.396  1.1625 -2.8034  1.6339
17856SOL    HW257357   4.149   3.458   1.404 -1.1033  1.0172  0.1081
17857SOL     OW57358   8.262   6.219   7.934 -0.1480 -0.7782  0.0034
17857SOL    HW157359   8.285   6.287   7.870  1.7280  0.0083  1.4219
17857SOL    HW257360   8.255   6.139   7.882  0.4174 -0.0015 -1.3289
17858SOL     OW57361   9.838   3.427   3.159  0.3044  0.0575 -0.2419
17858SOL    HW157362   9.795   3.358   3.209  0.1306  0.8207  0.6845
17858SOL    HW257363   9.846   3.500   3.220 -0.6758  1.3274 -1.5534
17859SOL     OW57364   5.584   9.294   9.727  0.3714 -0.7137 -0.3850
17859SOL    HW157365   5.614   9.360   9.664  2.0784 -1.0915 -0.0192
17859SOL    HW257366   5.664   9.245   9.750 -0.4547 -1.4310  1.0735
17860SOL     OW57367   3.021   7.966   2.088  0.1674  0.0681 -0.4088
17860SOL    HW157368   3.087   7.937   2.025 -0.3111  1.0109 -1.3707
17860SOL    HW257369   2.945   7.911   2.071  0.4195 -0.4782  0.1657
17861SOL     OW57370   0.147   6.502   8.321  0.0475  0.0007  0.4529
17861SOL    HW157371   0.079   6.545   8.374  1.2174  2.3888  0.1510
17861SOL    HW257372   0.229   6.534   8.358  0.9274  1.4222 -2.4724
17862SOL     OW57373   8.115   8.401   4.100 -0.3389  0.1511  0.3755
17862SOL    HW157374   8.054   8.400   4.026 -0.5022 -0.3755  0.5114
17862SOL    HW257375   8.098   8.484   4.143 -0.1086  0.5526 -0.2864
17863SOL     OW57376   6.005   3.734   8.364 -0.0305 -0.0754 -0.2111
17863SOL    HW157377   6.057   3.772   8.293 -0.6357  1.8286  0.3339
17863SOL    HW257378   6.058   3.660   8.394  0.9874  0.0528 -1.5713
17864SOL     OW57379   9.302   3.742   2.782 -0.2517  0.2009 -0.5822
17864SOL    HW157380   9.340   3.661   2.747 -1.7858 -1.0741  0.5504
17864SOL    HW257381   9.211   3.740   2.753 -0.3859  1.3903 -0.2880
17865SOL     OW57382   1.744   8.657   9.062 -0.2926  0.1101 -1.0873
17865SOL    HW157383   1.716   8.602   8.989 -0.8027  1.5966 -2.0423
17865SOL    HW257384   1.753   8.744   9.025 -1.0142  1.0034  0.7282
17866SOL     OW57385   4.897   0.249   4.841 -0.2571  0.2481  0.0081
17866SOL    HW157386   4.956   0.211   4.776 -0.1604  1.0486 -0.3887
17866SOL    HW257387   4.892   0.184   4.911  0.0080 -0.4209 -0.5878
17867SOL     OW57388   2.024   0.919   1.260 -0.0996 -0.4115 -0.6462
17867SOL    HW157389   1.939   0.953   1.233 -0.3361 -1.0736 -0.7516
17867SOL    HW257390   2.008   0.827   1.280 -0.4437  0.3703  3.7403
17868SOL     OW57391   0.007   0.813   4.780 -0.2449  0.2819 -0.3980
17868SOL    HW157392   0.077   0.832   4.717 -0.6593  1.4832 -0.5237
17868SOL    HW257393  -0.071   0.851   4.740 -0.6556  0.3829  0.4864
17869SOL     OW57394   3.072  10.074  10.122 -0.6047 -0.2961  0.1704
17869SOL    HW157395   3.148  10.130  10.108 -0.9722  0.0533 -0.5112
17869SOL    HW257396   3.086  10.034  10.207 -0.2229  0.6755  0.5757
17870SOL     OW57397   7.231   4.956   3.039 -0.0326 -0.4352 -0.5025
17870SOL    HW157398   7.156   4.997   3.083 -1.6265 -1.8789 -1.7219
17870SOL    HW257399   7.256   4.884   3.097 -0.6943 -0.9705 -0.8637
17871SOL     OW57400   2.380   8.324   2.746 -0.2276 -0.3408 -0.2885
17871SOL    HW157401   2.466   8.338   2.787  0.1596 -2.3028 -0.3360
17871SOL    HW257402   2.327   8.398   2.776 -0.0784 -1.7221  4.0109
17872SOL     OW57403   6.589   3.310   4.451  0.1733  0.1847  0.0293
17872SOL    HW157404   6.580   3.292   4.544  2.9152  3.1558  1.0264
17872SOL    HW257405   6.643   3.238   4.418  2.2588  0.9455  1.5992
17873SOL     OW57406   3.549   9.337   2.918 -0.1939 -0.4083 -0.2372
17873SOL    HW157407   3.571   9.246   2.940  0.7377 -0.1635 -0.1248
17873SOL    HW257408   3.607   9.390   2.973 -0.2440  0.2473 -0.8056
17874SOL     OW57409   2.378   2.104   6.668  0.3419 -0.0881 -0.2921
17874SOL    HW157410   2.316   2.133   6.734 -0.7150 -0.6199 -1.0365
17874SOL    HW257411   2.425   2.031   6.709  1.4752  1.1805  0.7721
17875SOL     OW57412   0.707   1.702  10.193 -0.2082 -0.3421 -0.1082
17875SOL    HW157413   0.676   1.622  10.235 -1.3560  0.6881  1.0849
17875SOL    HW257414   0.673   1.697  10.103  0.1840 -1.4130 -0.2060
17876SOL     OW57415   5.012   0.227   0.076  0.1772 -0.6580 -0.0793
17876SOL    HW157416   5.050   0.303   0.120 -1.3467 -0.4102  0.8861
17876SOL    HW257417   5.083   0.193   0.021  1.0546  1.1317 -0.1253
17877SOL     OW57418   1.143   1.842   5.104 -0.1355 -0.4941 -0.3068
17877SOL    HW157419   1.072   1.905   5.089 -0.9504 -1.0858  0.8605
17877SOL    HW257420   1.116   1.795   5.183  1.0382 -1.4860 -0.4736
17878SOL     OW57421   0.589   1.554   2.225  0.3690  0.0261  0.1224
17878SOL    HW157422   0.681   1.534   2.241  0.3463 -0.2375 -0.0636
17878SOL    HW257423   0.589   1.592   2.137  0.0820 -1.6565 -0.6396
17879SOL     OW57424   7.258   2.750   7.403 -0.4711 -0.5945  0.6380
17879SOL    HW157425   7.217   2.754   7.317 -2.4752 -0.0356  1.5687
17879SOL    HW257426   7.219   2.822   7.452  2.3923  0.6423  1.3374
17880SOL     OW57427   5.694   8.511   3.395  0.1721  0.0737 -0.0314
17880SOL    HW157428   5.706   8.506   3.300 -1.2444  0.2685 -0.2422
17880SOL    HW257429   5.661   8.425   3.420  0.9180 -0.1091  0.3616
17881SOL     OW57430   3.250   4.714   5.187 -0.6389  0.0061  0.5818
17881SOL    HW157431   3.234   4.627   5.224 -2.1511  0.1727  0.3987
17881SOL    HW257432   3.166   4.759   5.196 -1.3700 -0.1310 -3.6165
17882SOL     OW57433   0.167   1.741   5.217 -0.7987  0.3411 -0.4238
17882SOL    HW157434   0.261   1.736   5.233 -0.6143  0.3256 -1.4405
17882SOL    HW257435   0.130   1.775   5.298  0.1042  0.4944 -0.0704
17883SOL     OW57436   0.958   1.763   3.218  0.3520 -1.0873 -0.2682
17883SOL    HW157437   0.918   1.706   3.153  1.1911 -1.1169 -0.7684
17883SOL    HW257438   1.040   1.793   3.178 -0.3376  0.9728 -0.2765
17884SOL     OW57439   0.945   2.406   3.203  0.0260 -0.3061 -0.8456
17884SOL    HW157440   1.023   2.352   3.194  0.2159  0.1283 -2.0437
17884SOL    HW257441   0.964   2.485   3.152 -0.5109  0.5956  0.3045
17885SOL     OW57442   6.000   6.465   3.485  0.3619 -0.3809  0.2171
17885SOL    HW157443   6.074   6.432   3.435  0.4729  1.2897 -0.8180
17885SOL    HW257444   5.925   6.457   3.426  0.1537 -0.0278  0.4235
17886SOL     OW57445   7.722   2.491   1.907 -0.0314 -0.2711 -0.3730
17886SOL    HW157446   7.781   2.417   1.918 -0.3773 -0.8008 -1.8151
17886SOL    HW257447   7.722   2.508   1.813 -1.7985  0.0015 -0.3673
17887SOL     OW57448   2.481   3.362   1.804 -0.2649 -0.1219 -0.5606
17887SOL    HW157449   2.452   3.378   1.714 -0.5691 -1.8484 -0.8033
17887SOL    HW257450   2.413   3.306   1.842 -0.5313  1.1896  1.0255
17888SOL     OW57451   0.163   0.589   0.921 -0.0845  0.4702 -0.1151
17888SOL    HW157452   0.245   0.636   0.934 -0.1611  0.9046 -1.1112
17888SOL    HW257453   0.178   0.537   0.842 -0.8642  0.8008 -0.4932
17889SOL     OW57454   3.662   8.620   3.368  0.0048 -0.0065 -0.1327
17889SOL    HW157455   3.750   8.609   3.333 -0.0224 -0.1169 -0.1666
17889SOL    HW257456   3.648   8.715   3.368 -0.3436 -0.0503 -1.2753
17890SOL     OW57457   2.223   4.858   3.364 -0.5022 -0.0549  0.3642
17890SOL    HW157458   2.264   4.799   3.427  1.4471 -1.2269 -1.8442
17890SOL    HW257459   2.296   4.896   3.315 -1.8802  1.6086 -0.5308
17891SOL     OW57460   9.440   4.177   5.797  0.2957  0.2935 -0.2075
17891SOL    HW157461   9.380   4.188   5.872  0.9174  0.9465  0.2154
17891SOL    HW257462   9.416   4.248   5.737 -0.4937 -0.4928 -0.8478
17892SOL     OW57463   1.749   5.373   5.608  0.0358 -0.3427 -0.2496
17892SOL    HW157464   1.780   5.408   5.525  2.2017 -0.3561  0.4897
17892SOL    HW257465   1.729   5.281   5.589 -0.1586 -0.1708 -0.9009
17893SOL     OW57466   8.289   7.673   2.122 -0.0592 -0.3051  0.0104
17893SOL    HW157467   8.269   7.749   2.068 -0.4834  0.4685  1.2133
17893SOL    HW257468   8.219   7.671   2.187 -0.1890 -1.8815 -0.1468
17894SOL     OW57469   2.873   8.761   3.762  0.0377 -0.1309 -0.0006
17894SOL    HW157470   2.900   8.800   3.679 -2.2475 -1.1119 -1.2970
17894SOL    HW257471   2.945   8.780   3.822  1.0173  2.0738 -1.7346
17895SOL     OW57472   1.349   0.389   5.392  0.2549 -0.3678 -0.5436
17895SOL    HW157473   1.403   0.438   5.329  0.2798  0.6697  0.2662
17895SOL    HW257474   1.259   0.408   5.366  0.2604  0.4160 -0.0136
17896SOL     OW57475   2.504   3.914   7.904  0.6575  0.0182  0.2537
17896SOL    HW157476   2.594   3.887   7.884  0.7351  0.5344 -0.1465
17896SOL    HW257477   2.469   3.940   7.819 -0.1727 -1.0194  0.2587
17897SOL     OW57478   4.854   1.153  10.264 -0.2023 -0.2678  0.8639
17897SOL    HW157479   4.896   1.173  10.347  2.3916  1.4520 -0.7162
17897SOL    HW257480   4.844   1.238  10.221  1.1914 -1.2597 -1.6845
17898SOL     OW57481   7.345   7.255   6.670  0.7997  0.4850  0.1386
17898SOL    HW157482   7.345   7.301   6.754  0.9808 -0.2476  0.5533
17898SOL    HW257483   7.416   7.295   6.620  1.3932  0.2031  0.7476
17899SOL     OW57484   0.577   1.847   6.891 -0.0768 -0.0466  0.3042
17899SOL    HW157485   0.558   1.753   6.883  0.6652 -0.2440  0.7562
17899SOL    HW257486   0.666   1.857   6.856 -0.0261  0.4343  0.5571
17900SOL     OW57487   7.758   4.379   7.326  0.0449  0.0374 -0.6632
17900SOL    HW157488   7.735   4.310   7.388  0.3726  1.0655  0.6295
17900SOL    HW257489   7.686   4.379   7.263 -0.8877 -0.2530  0.3766
17901SOL     OW57490   8.338   5.573   7.069 -0.4774  0.4786  0.1323
17901SOL    HW157491   8.319   5.480   7.061  0.6220  0.3448 -1.4476
17901SOL    HW257492   8.359   5.586   7.161  2.3551 -1.5010 -0.1287
17902SOL     OW57493   6.274   3.737   0.599 -0.7612 -0.2988  0.2381
17902SOL    HW157494   6.342   3.692   0.649 -1.8304 -0.9647  1.1415
17902SOL    HW257495   6.238   3.670   0.541  0.0430  0.3139 -1.0318
17903SOL     OW57496   2.967   9.399   5.158 -0.1848 -0.6313 -0.1265
17903SOL    HW157497   2.897   9.406   5.223 -0.0326 -0.5410  0.0304
17903SOL    HW257498   2.957   9.476   5.103 -0.6069 -0.9529 -0.5035
17904SOL     OW57499   6.073   1.060   2.067 -0.2493 -0.3089 -0.3865
17904SOL    HW157500   6.069   0.990   2.132 -0.8440 -0.0915 -0.1769
17904SOL    HW257501   6.007   1.035   2.001 -1.4246  0.7044  0.3666
17905SOL     OW57502   1.585   9.016   9.124 -0.0385  0.7208 -0.2066
17905SOL    HW157503   1.568   9.090   9.182  2.1588  0.5840  0.7118
17905SOL    HW257504   1.662   8.973   9.162  1.0269  0.1601 -2.8109
17906SOL     OW57505   4.048   2.880   6.597 -0.2983 -0.2236  0.1451
17906SOL    HW157506   3.990   2.833   6.537 -0.2693  1.2081 -1.0612
17906SOL    HW257507   4.067   2.817   6.666 -0.7859 -1.7480 -1.0593
17907SOL     OW57508   8.068   6.126   7.486  0.5845  0.1421  0.0249
17907SOL    HW157509   7.988   6.100   7.532  0.5400 -0.7916 -0.5461
17907SOL    HW257510   8.041   6.134   7.394  0.4969  2.7185  0.1951
17908SOL     OW57511   6.879   2.105   5.319  0.7740  0.1881 -0.0693
17908SOL    HW157512   6.791   2.080   5.350  0.4820  1.4972  0.2158
17908SOL    HW257513   6.936   2.035   5.352  0.2338  0.7025  2.1021
17909SOL     OW57514   6.210   9.179   9.217  0.1083  0.1657  0.0771
17909SOL    HW157515   6.172   9.117   9.280  1.1769 -0.4164  0.1619
17909SOL    HW257516   6.268   9.235   9.269 -0.2898  0.7771 -0.1217
17910SOL     OW57517   2.554   8.703   2.519  0.2107  0.0182  0.4453
17910SOL    HW157518   2.471   8.724   2.562  0.3474 -1.0263  1.2490
17910SOL    HW257519   2.544   8.611   2.492  0.1540  0.6037 -1.7287
17911SOL     OW57520   0.665  10.303   8.204 -0.0789 -0.3014  0.4020
17911SOL    HW157521   0.633  10.239   8.139  0.5501 -2.0906  1.7540
17911SOL    HW257522   0.627  10.273   8.287  1.1568  0.4101  1.2510
17912SOL     OW57523   9.276   3.922   7.191  0.0478  0.6142 -0.4579
17912SOL    HW157524   9.372   3.924   7.187  0.0881 -0.5706 -0.5022
17912SOL    HW257525   9.250   3.877   7.111 -0.4613 -0.4377  0.2782
17913SOL     OW57526   8.451   1.319   9.770 -0.0093 -0.1940  0.2557
17913SOL    HW157527   8.390   1.275   9.711  0.0422 -1.7649  1.3024
17913SOL    HW257528   8.536   1.281   9.748  0.2021  0.1383  0.4961
17914SOL     OW57529   8.070   9.604   6.610 -0.1881  0.2786 -0.5271
17914SOL    HW157530   8.044   9.654   6.532 -3.1055 -2.0758 -1.2391
17914SOL    HW257531   8.064   9.667   6.682 -0.7162  1.7024 -1.7515
17915SOL     OW57532   9.038   2.882   0.634  0.5093 -0.1149 -0.2769
17915SOL    HW157533   9.013   2.809   0.578  2.9828 -0.3721 -1.1920
17915SOL    HW257534   9.133   2.890   0.623  0.7918  1.2510  2.2255
17916SOL     OW57535   3.476   6.604   9.577  0.2676 -0.3501  0.7808
17916SOL    HW157536   3.518   6.556   9.648  0.0255  0.7363  1.6975
17916SOL    HW257537   3.383   6.603   9.600  0.0599 -0.8143 -0.0444
17917SOL     OW57538   4.609   0.369   7.154  0.4296 -0.6035  0.0589
17917SOL    HW157539   4.624   0.457   7.191 -1.0486  0.5103 -1.8182
17917SOL    HW257540   4.695   0.326   7.159  0.8472  0.3344  2.4571
17918SOL     OW57541   4.894   9.951   9.100  0.6600  0.2966  0.2030
17918SOL    HW157542   4.883   9.999   9.018 -0.0190 -3.2054 -1.9954
17918SOL    HW257543   4.907  10.019   9.166  0.9831  3.3528 -2.7086
17919SOL     OW57544   3.576   8.281   5.295  0.1318  0.8027 -0.0896
17919SOL    HW157545   3.664   8.302   5.328  0.0608 -0.5184  1.0203
17919SOL    HW257546   3.580   8.301   5.202  1.4808  1.1677  0.0294
17920SOL     OW57547   7.453   4.200   1.696  0.0591 -0.4754 -0.5285
17920SOL    HW157548   7.512   4.202   1.771  1.0004 -0.6546 -1.2572
17920SOL    HW257549   7.510   4.195   1.620 -0.8937 -0.6140 -1.2537
17921SOL     OW57550   8.608   2.859   9.508 -0.3225 -0.3096  0.2308
17921SOL    HW157551   8.571   2.781   9.549  0.2617  0.6301  2.7416
17921SOL    HW257552   8.697   2.835   9.484  0.1855 -0.1829  1.8921
17922SOL     OW57553   0.222   0.215   8.415  0.3986 -0.0793  0.9654
17922SOL    HW157554   0.178   0.300   8.419 -1.7901 -1.1066  0.2794
17922SOL    HW257555   0.166   0.161   8.359  2.4269 -1.5982  0.2748
17923SOL     OW57556   7.110   3.834   6.100  0.2787  0.0186  0.6955
17923SOL    HW157557   7.060   3.851   6.020 -0.9233  2.1063  1.8067
17923SOL    HW257558   7.165   3.758   6.078  0.6591  1.0371 -2.3682
17924SOL     OW57559   2.019   9.928   1.731 -0.4875 -0.1570  0.8098
17924SOL    HW157560   2.023   9.985   1.654 -0.9176 -1.4480 -0.2167
17924SOL    HW257561   2.109   9.894   1.740 -0.6841 -0.9146  0.1182
17925SOL     OW57562   8.896   9.017   4.759  0.2970 -0.1954 -0.3333
17925SOL    HW157563   8.915   8.923   4.752 -0.7818 -0.5860  1.4137
17925SOL    HW257564   8.801   9.021   4.769  0.4076  1.0362  0.3518
17926SOL     OW57565  10.056   4.833   2.442 -0.4209 -0.1653  0.3157
17926SOL    HW157566   9.968   4.839   2.478 -0.9589 -0.7052 -0.8548
17926SOL    HW257567  10.043   4.832   2.347  0.8392 -0.3719  0.1282
17927SOL     OW57568   2.325   5.629   6.119  0.1338 -0.2007  0.0910
17927SOL    HW157569   2.250   5.577   6.091 -1.1895  1.6589 -0.0705
17927SOL    HW257570   2.362   5.662   6.037 -0.1689  0.5435  0.2425
17928SOL     OW57571   4.815   0.077   5.687 -0.7452 -0.5709 -0.4592
17928SOL    HW157572   4.904   0.084   5.653  0.0783 -0.6060  1.5132
17928SOL    HW257573   4.823   0.016   5.761 -1.6948  1.8668  1.8218
17929SOL     OW57574   6.700   4.419   6.255  0.1315  0.1220 -0.5050
17929SOL    HW157575   6.720   4.340   6.204 -1.8988 -1.9913  1.7174
17929SOL    HW257576   6.778   4.474   6.245  1.0283 -1.4552 -3.3607
17930SOL     OW57577   8.729   9.660   7.494 -0.0109  0.4546 -0.4719
17930SOL    HW157578   8.660   9.633   7.433 -0.1823  0.6725 -0.3761
17930SOL    HW257579   8.785   9.583   7.503  0.8563  0.8681 -2.0484
17931SOL     OW57580   8.983   8.630   9.367 -0.3006  0.0522  0.1254
17931SOL    HW157581   9.020   8.542   9.369 -2.0295 -0.7656 -1.2137
17931SOL    HW257582   8.979   8.657   9.459  1.6527 -0.6214  0.4369
17932SOL     OW57583   4.012   3.253   5.507  0.4603  0.2694 -0.3632
17932SOL    HW157584   3.997   3.232   5.415  1.7696  0.1075 -0.5602
17932SOL    HW257585   3.998   3.347   5.514 -0.2302  0.1877 -0.5942
17933SOL     OW57586   9.328   1.150   1.521 -0.0569  0.2589 -0.1278
17933SOL    HW157587   9.350   1.138   1.613  0.3912  0.8056 -0.1579
17933SOL    HW257588   9.409   1.129   1.474 -0.5260 -0.8782 -0.4637
17934SOL     OW57589   4.091   6.457   8.715  0.3633 -0.4040  0.5793
17934SOL    HW157590   4.015   6.398   8.720  0.0903 -0.2021 -0.6948
17934SOL    HW257591   4.129   6.439   8.629  1.2966  0.0689  0.8837
17935SOL     OW57592   9.976   5.741   9.122 -0.0992  0.2919 -0.1902
17935SOL    HW157593   9.911   5.809   9.105 -0.2517 -0.4991 -3.3221
17935SOL    HW257594   9.924   5.663   9.141  0.0726  0.6197  1.9317
17936SOL     OW57595   5.848   9.270   6.623 -0.4368 -0.5222 -0.4228
17936SOL    HW157596   5.852   9.299   6.532 -0.3345 -1.6874 -0.7976
17936SOL    HW257597   5.916   9.323   6.667  1.0500 -1.4729 -1.4740
17937SOL     OW57598   5.792  10.064   3.668  0.0374 -0.6013 -0.7612
17937SOL    HW157599   5.776  10.154   3.639  2.4398  0.3954  0.6834
17937SOL    HW257600   5.831  10.021   3.593 -0.4099 -0.2123 -1.2258
17938SOL     OW57601   9.861   6.482   3.158  0.1198  0.3013  0.1894
17938SOL    HW157602   9.824   6.558   3.202  0.1590  0.1495  0.4892
17938SOL    HW257603   9.789   6.420   3.151  0.5886 -0.4724  1.8539
17939SOL     OW57604   0.438   7.980   8.210  0.2061 -0.4232  0.2538
17939SOL    HW157605   0.346   7.970   8.237  0.0886  1.6178  0.7956
17939SOL    HW257606   0.488   7.959   8.289  0.0693  0.7520  0.6780
17940SOL     OW57607   0.309   0.447   5.781 -0.2050  0.6966  0.2381
17940SOL    HW157608   0.299   0.542   5.792 -1.6898  0.5344  0.4571
17940SOL    HW257609   0.305   0.434   5.686  2.1211  1.0298  0.0343
17941SOL     OW57610  10.334   3.067   2.451  0.4091  0.0779  0.4746
17941SOL    HW157611  10.299   3.105   2.532  2.3453  0.2205  1.3220
17941SOL    HW257612  10.355   3.143   2.397  0.7953  0.0760  0.6142
17942SOL     OW57613   2.893   9.092   1.736  0.1376 -0.1373 -0.5955
17942SOL    HW157614   2.887   9.077   1.642  0.5345 -0.4066 -0.5803
17942SOL    HW257615   2.813   9.054   1.772  1.5570 -3.2576 -0.4365
17943SOL     OW57616   5.613   0.836   1.467  0.0384 -0.2830  0.7605
17943SOL    HW157617   5.579   0.816   1.554 -0.6887 -0.6622  0.4091
17943SOL    HW257618   5.576   0.767   1.411  0.8714 -0.3198  0.2339
17944SOL     OW57619   0.696   7.465   1.536  0.0692  0.2015 -0.7284
17944SOL    HW157620   0.609   7.497   1.560 -0.5324  0.0695 -2.5219
17944SOL    HW257621   0.752   7.543   1.541 -0.2250  0.3728  0.0548
17945SOL     OW57622   7.983   1.505   7.381  0.2176  0.1119  0.7093
17945SOL    HW157623   7.983   1.592   7.421  0.1279  0.0189  0.9110
17945SOL    HW257624   7.914   1.458   7.426 -0.1707  0.1390  0.1558
17946SOL     OW57625   8.278   7.114   2.108 -0.7141 -0.2504  0.5538
17946SOL    HW157626   8.210   7.109   2.174  0.5647 -0.6399  1.8891
17946SOL    HW257627   8.320   7.199   2.122 -0.5273 -0.2741  0.1610
17947SOL     OW57628   4.991   1.031   0.859 -0.1873 -0.1050 -0.0947
17947SOL    HW157629   5.051   1.102   0.835 -0.3497 -0.2486 -0.9591
17947SOL    HW257630   4.911   1.076   0.887  0.9660  0.1771  3.1412
17948SOL     OW57631   7.498   2.941   3.464 -0.4561 -0.1345  0.3293
17948SOL    HW157632   7.418   2.977   3.502  1.2869  1.3500  2.9949
17948SOL    HW257633   7.540   3.016   3.422  0.3528 -0.4690  0.5272
17949SOL     OW57634   0.829   9.500   0.183  0.7102 -0.7758  0.0966
17949SOL    HW157635   0.846   9.452   0.264  0.0189 -0.3037  0.5327
17949SOL    HW257636   0.807   9.589   0.212  0.1789 -0.6747 -0.5855
17950SOL     OW57637   0.019   3.432   0.977 -0.5436 -0.0515  0.0028
17950SOL    HW157638   0.079   3.362   1.002  2.2686  1.7618 -1.1684
17950SOL    HW257639  -0.019   3.462   1.060 -1.5473 -2.6177  0.5606
17951SOL     OW57640   3.338   3.400   2.996  0.4932  0.5685 -0.8341
17951SOL    HW157641   3.429   3.390   2.966  0.4490  1.9805 -1.4928
17951SOL    HW257642   3.345   3.439   3.083  0.5297 -0.2193 -0.4765
17952SOL     OW57643   2.750   3.183   0.944  0.0978  0.4142  0.0980
17952SOL    HW157644   2.768   3.096   0.980 -1.1715  0.7356  1.6400
17952SOL    HW257645   2.834   3.228   0.948  0.4072 -0.2048  0.8539
17953SOL     OW57646   8.896   3.965   8.396  0.1762  0.2959  0.0154
17953SOL    HW157647   8.816   3.989   8.349  0.5902  1.5251 -0.0873
17953SOL    HW257648   8.899   4.025   8.470 -0.2195 -1.3164  1.3922
17954SOL     OW57649   6.537   3.575   0.298 -0.9092  0.2824 -0.6406
17954SOL    HW157650   6.534   3.527   0.381 -1.0369  2.5597  0.7553
17954SOL    HW257651   6.482   3.523   0.239 -1.0913 -1.2394  0.7722
17955SOL     OW57652   1.939   8.491   5.752 -0.1964  0.4140  0.6504
17955SOL    HW157653   1.844   8.493   5.756 -0.2163  0.3725  0.2576
17955SOL    HW257654   1.962   8.559   5.689  0.1035  1.2959  1.6903
17956SOL     OW57655   1.073   0.707   3.163 -0.0383  0.3323 -0.3231
17956SOL    HW157656   1.068   0.735   3.254 -2.2135 -2.2112  0.4716
17956SOL    HW257657   1.011   0.763   3.117 -0.5927  0.1631  0.2140
17957SOL     OW57658   4.917   9.597   0.179  0.2894 -0.6946  0.0642
17957SOL    HW157659   4.910   9.578   0.086  0.8529  1.5481 -0.4861
17957SOL    HW257660   4.956   9.518   0.217 -0.9274 -2.0504 -1.3943
17958SOL     OW57661   4.361   6.191   8.075  0.1621 -0.4384  0.0732
17958SOL    HW157662   4.352   6.224   7.986  0.2897  0.5025  0.3982
17958SOL    HW257663   4.292   6.125   8.084 -0.4250  0.0974 -0.4349
17959SOL     OW57664  10.208   1.376   3.027  0.0781  0.1086  0.1725
17959SOL    HW157665  10.276   1.429   2.986 -1.1726  1.6951  0.0619
17959SOL    HW257666  10.126   1.415   2.998 -0.8825 -0.8904  1.4050
17960SOL     OW57667   8.780   5.620   4.045  0.4231 -0.2257 -0.1189
17960SOL    HW157668   8.753   5.531   4.022 -2.2468  0.0030  1.6571
17960SOL    HW257669   8.805   5.615   4.137  1.0147  0.7200 -0.2142
17961SOL     OW57670   3.567   6.918   2.156  0.0780  1.1637  0.0600
17961SOL    HW157671   3.537   6.915   2.065 -0.1790  0.8022  0.1552
17961SOL    HW257672   3.648   6.866   2.156 -1.6440 -1.7890  0.6695
17962SOL     OW57673   1.595   2.702   8.602  0.0419  0.0599 -0.0983
17962SOL    HW157674   1.625   2.756   8.676  0.4503 -0.7713  0.3642
17962SOL    HW257675   1.566   2.621   8.643  1.4266 -0.9064 -0.9341
17963SOL     OW57676   4.646   0.459   4.030  0.6718 -0.7307 -0.3311
17963SOL    HW157677   4.628   0.543   4.072  2.4805  0.6418 -2.0532
17963SOL    HW257678   4.710   0.416   4.087 -0.2139 -0.9441  0.5248
17964SOL     OW57679   9.709   4.910   1.048  0.2145  0.3727  0.1266
17964SOL    HW157680   9.793   4.864   1.052  0.1726  0.3127  0.3694
17964SOL    HW257681   9.679   4.912   1.139 -0.1457  0.2141  0.0130
17965SOL     OW57682   2.919   0.688   9.501 -0.3584 -0.0203 -0.0393
17965SOL    HW157683   2.883   0.602   9.523 -0.0749  0.2593  1.6039
17965SOL    HW257684   3.006   0.689   9.541  1.2432 -0.3193 -3.1417
17966SOL     OW57685   7.265   4.128   4.577 -0.4301  0.2170 -0.3065
17966SOL    HW157686   7.304   4.041   4.577 -3.5438 -1.3499  1.6946
17966SOL    HW257687   7.190   4.121   4.635 -0.3530  4.5036  0.6847
17967SOL     OW57688   5.475   7.044   4.798 -1.1345 -0.0359 -0.1541
17967SOL    HW157689   5.487   7.067   4.890  1.3705  1.4028 -0.7616
17967SOL    HW257690   5.459   6.949   4.799 -1.1729 -0.0466  1.7382
17968SOL     OW57691   5.968   0.809   2.487 -0.1834 -0.0925  0.3205
17968SOL    HW157692   5.971   0.853   2.572 -0.7247  2.8337 -1.0363
17968SOL    HW257693   5.875   0.806   2.465 -0.1650 -2.1357  0.4099
17969SOL     OW57694   1.195   2.195   2.232  0.8741 -0.4633 -0.1770
17969SOL    HW157695   1.264   2.188   2.299  0.6181  0.2058  0.1712
17969SOL    HW257696   1.122   2.145   2.268  0.9421 -0.6038 -0.2334
17970SOL     OW57697   9.055   0.445   5.416 -0.4742 -0.2044 -0.1586
17970SOL    HW157698   9.148   0.442   5.440 -0.2136 -0.0932 -1.1163
17970SOL    HW257699   9.046   0.526   5.366 -1.5447  0.8912  1.7145
17971SOL     OW57700   9.897   3.267   3.770 -0.6183 -0.1583 -0.0035
17971SOL    HW157701   9.948   3.198   3.810 -1.2313 -1.3959 -1.2637
17971SOL    HW257702   9.817   3.271   3.821 -0.2236  0.2251  0.5938
17972SOL     OW57703   2.850   8.482   2.147 -0.0950 -0.1060  0.1353
17972SOL    HW157704   2.776   8.538   2.169 -0.6012  0.7607 -3.2285
17972SOL    HW257705   2.813   8.411   2.094  1.3389  0.0032 -1.0988
17973SOL     OW57706   7.524   9.103   2.415 -0.5649  0.0893 -0.3542
17973SOL    HW157707   7.504   9.011   2.398  0.9245  0.0404 -2.0986
17973SOL    HW257708   7.468   9.151   2.354 -0.3595  0.2659 -0.4038
17974SOL     OW57709   1.059   8.890   9.427  0.0094 -0.2689  0.3604
17974SOL    HW157710   0.964   8.894   9.423  0.0691  0.2682 -0.7412
17974SOL    HW257711   1.078   8.864   9.517 -1.1318  1.1536  1.0538
17975SOL     OW57712   8.122   6.310   4.850  0.0408  0.1684  0.1424
17975SOL    HW157713   8.069   6.348   4.919  1.2721  0.0143  1.2149
17975SOL    HW257714   8.207   6.354   4.857 -0.0385  0.7311 -1.8109
17976SOL     OW57715   0.442   5.713   0.983 -0.1743  0.1858 -0.3698
17976SOL    HW157716   0.370   5.680   0.929 -0.5837  0.1490  0.1900
17976SOL    HW257717   0.402   5.780   1.039  0.1039 -0.2201  0.3298
17977SOL     OW57718  10.226   8.985   0.818 -0.1483 -0.3748  0.0645
17977SOL    HW157719  10.201   8.962   0.907 -0.2336 -0.8202 -0.0725
17977SOL    HW257720  10.213   9.080   0.813  2.1858  0.0814  1.2805
17978SOL     OW57721  10.241   3.658   0.050 -0.2343  0.9502  0.3447
17978SOL    HW157722  10.272   3.670  -0.040 -1.6954  0.7038 -0.2228
17978SOL    HW257723  10.306   3.701   0.104  1.5214 -0.2563 -0.7129
17979SOL     OW57724   6.942   4.929   5.625  0.0454 -0.9370 -0.0864
17979SOL    HW157725   6.996   4.878   5.686 -0.6148 -0.7072  0.7062
17979SOL    HW257726   6.947   5.018   5.657 -0.8411 -0.9197  0.0198
17980SOL     OW57727   7.419   2.387   7.107  0.3140  0.3705  0.1878
17980SOL    HW157728   7.451   2.348   7.026  2.5478 -0.1666  1.2783
17980SOL    HW257729   7.406   2.479   7.085  0.1438  0.0918 -0.9685
17981SOL     OW57730   0.482   7.869   7.667 -0.1091 -0.0198 -0.1243
17981SOL    HW157731   0.444   7.875   7.755  0.6920 -0.6429  0.2865
17981SOL    HW257732   0.488   7.775   7.650  0.0262  0.0932 -0.7201
17982SOL     OW57733   5.144   3.068   1.792 -0.0799 -0.5935 -0.0831
17982SOL    HW157734   5.162   3.032   1.705  1.3522  0.5336 -0.2911
17982SOL    HW257735   5.115   3.158   1.775  0.7437 -0.1788  0.6189
17983SOL     OW57736   0.554   7.705   6.892  0.0705 -0.1995 -0.3885
17983SOL    HW157737   0.624   7.685   6.954  0.8052  0.9822 -0.7985
17983SOL    HW257738   0.563   7.799   6.876 -0.7871 -0.2863 -1.4518
17984SOL     OW57739   6.229   9.994   9.440  0.5556 -0.2294  0.1041
17984SOL    HW157740   6.310  10.033   9.473  0.3514 -0.8724  1.4242
17984SOL    HW257741   6.210  10.043   9.360  2.5153 -0.3876 -0.5347
17985SOL     OW57742   9.883   2.809   6.599 -0.0116  0.1779  0.3091
17985SOL    HW157743   9.961   2.754   6.611  0.7164  0.8923 -0.9353
17985SOL    HW257744   9.915   2.886   6.553 -1.3435  0.8239  0.4254
17986SOL     OW57745   8.572   2.623   3.947 -0.0534  0.3879  0.1342
17986SOL    HW157746   8.510   2.558   3.916 -0.7661  2.2312 -2.7246
17986SOL    HW257747   8.647   2.615   3.887  1.5622 -0.3039  2.1378
17987SOL     OW57748   0.460   4.823   5.788  0.4278  0.1600  0.0910
17987SOL    HW157749   0.387   4.884   5.781  1.2881  1.1499 -0.5058
17987SOL    HW257750   0.537   4.874   5.766  1.4225 -0.6607  1.4511
17988SOL     OW57751   3.742   1.975   0.918 -0.4781  0.3298  0.1611
17988SOL    HW157752   3.682   2.037   0.877 -1.1171  0.0934  0.7210
17988SOL    HW257753   3.700   1.952   1.001  0.1975 -0.1440  0.3822
17989SOL     OW57754   0.472   0.166  10.087  0.1403  0.2338 -0.3956
17989SOL    HW157755   0.414   0.115  10.031  0.0295  0.9192 -0.9083
17989SOL    HW257756   0.524   0.219  10.027  0.2968  0.6850  0.1277
17990SOL     OW57757   1.038   8.622   9.315 -0.1997 -0.1278  0.2597
17990SOL    HW157758   1.032   8.711   9.348  0.8979  0.1336 -0.1950
17990SOL    HW257759   0.948   8.590   9.314 -0.4525  0.5053  1.6784
17991SOL     OW57760   6.684   8.506   1.545 -0.5853 -0.2289 -0.6054
17991SOL    HW157761   6.705   8.433   1.602 -1.1953  0.4723  0.5537
17991SOL    HW257762   6.590   8.522   1.558 -0.5135  0.6085 -1.0103
17992SOL     OW57763   3.655   2.007   5.777  0.3339 -0.7378  0.2286
17992SOL    HW157764   3.604   2.070   5.829 -0.3563 -0.0423 -1.2397
17992SOL    HW257765   3.599   1.929   5.772 -1.3448  0.5335 -2.6089
17993SOL     OW57766   5.241   3.132   4.226 -0.0863 -0.1460  0.5293
17993SOL    HW157767   5.257   3.037   4.229  1.8243  0.1564  0.8139
17993SOL    HW257768   5.146   3.140   4.238 -0.2868 -2.0163  0.5433
17994SOL     OW57769   9.643   4.693   6.963  0.6936 -0.5307 -0.0592
17994SOL    HW157770   9.569   4.748   6.938  1.4764  1.1204  1.0549
17994SOL    HW257771   9.608   4.633   7.028  0.4513  0.8084  1.1119
17995SOL     OW57772   4.267   5.122   3.548  0.0415 -0.3910  0.4657
17995SOL    HW157773   4.333   5.069   3.503  1.2539  0.7962  0.7791
17995SOL    HW257774   4.207   5.058   3.586  1.5678 -1.5496  1.0053
17996SOL     OW57775   8.920   2.968   1.365 -0.1474  0.7818 -0.2975
17996SOL    HW157776   8.960   2.914   1.297 -1.1543 -0.4762  0.0597
17996SOL    HW257777   8.838   2.998   1.326 -1.4536 -1.1582  0.8008
17997SOL     OW57778   2.976   0.022   5.095  0.1969  0.1247  0.0540
17997SOL    HW157779   3.063   0.059   5.111  0.7641  0.2365 -2.7342
17997SOL    HW257780   2.994  -0.068   5.068 -0.8405 -0.8221  2.2823
17998SOL     OW57781   3.097   9.742   1.136 -0.6190  0.1903 -0.1046
17998SOL    HW157782   3.039   9.809   1.099  0.0923 -0.1630 -2.0164
17998SOL    HW257783   3.040   9.692   1.195 -3.1026 -1.6256 -3.6282
17999SOL     OW57784   4.813   9.076   2.369 -0.5761  0.4197  0.1851
17999SOL    HW157785   4.861   9.095   2.449 -1.3403  1.2034  0.4791
17999SOL    HW257786   4.874   9.095   2.298  0.0584 -0.1404  0.5804
18000SOL     OW57787   3.324   8.629   1.700  0.3535  0.0958  0.2167
18000SOL    HW157788   3.361   8.548   1.664  1.4038 -0.9820  3.4262
18000SOL    HW257789   3.253   8.600   1.757  0.2802  1.4794  0.8542
18001SOL     OW57790   5.027   6.259   8.565  0.2254  0.4881  0.2664
18001SOL    HW157791   5.019   6.208   8.645 -1.0766  0.9404  0.4452
18001SOL    HW257792   4.941   6.297   8.552 -0.1675 -1.0367 -2.3511
18002SOL     OW57793   1.513   6.244   7.203 -0.1812  0.1876 -0.5311
18002SOL    HW157794   1.456   6.206   7.270  0.0796 -1.3573 -1.1438
18002SOL    HW257795   1.600   6.245   7.243  0.0075 -0.9035 -0.8914
18003SOL     OW57796   9.357   2.536   5.525 -0.5242 -0.9672  0.6292
18003SOL    HW157797   9.435   2.485   5.548  0.6885 -0.0867 -1.2283
18003SOL    HW257798   9.297   2.472   5.486  0.6064 -1.1859 -0.8475
18004SOL     OW57799   6.545   6.647   0.069  0.1188 -0.6045 -0.2311
18004SOL    HW157800   6.472   6.709   0.074  0.3953 -0.1813 -1.2365
18004SOL    HW257801   6.612   6.685   0.127 -0.3085 -0.8044  0.4063
18005SOL     OW57802   9.092   6.670   3.849  1.0598 -0.2565  0.5372
18005SOL    HW157803   9.169   6.727   3.857  0.3773  0.4541  2.6810
18005SOL    HW257804   9.018   6.728   3.866  0.0799 -1.1079 -0.6885
18006SOL     OW57805   3.644   0.595   1.767  0.5256 -0.4919  0.1006
18006SOL    HW157806   3.652   0.689   1.749 -0.1168 -0.4796 -0.1517
18006SOL    HW257807   3.710   0.578   1.833  1.6227 -0.1465 -0.8718
18007SOL     OW57808   1.586   9.992   3.819 -0.2169 -0.3624  0.3225
18007SOL    HW157809   1.591   9.897   3.812  0.9662 -0.5271  2.3488
18007SOL    HW257810   1.581  10.023   3.729  1.2807 -2.2711 -0.5032
18008SOL     OW57811   7.918   1.439   5.629  0.6723  0.2760 -0.4912
18008SOL    HW157812   7.911   1.356   5.581  1.3342 -0.8645  1.3111
18008SOL    HW257813   7.863   1.499   5.579  0.4819 -1.1297 -2.0699
18009SOL     OW57814   2.989   9.079   2.919 -0.0580 -0.5923  0.3610
18009SOL    HW157815   2.900   9.061   2.947  0.1673 -2.3867  0.0314
18009SOL    HW257816   2.995   9.039   2.832  0.7020  0.6132 -0.1662
18010SOL     OW57817   7.476   4.365   3.300 -0.3325  0.1818  0.3713
18010SOL    HW157818   7.519   4.364   3.386 -1.5480  1.9143  1.0584
18010SOL    HW257819   7.392   4.322   3.315 -2.0303  3.3692  1.0207
18011SOL     OW57820  10.071   2.620   6.673 -0.6258  0.2192  0.1788
18011SOL    HW157821  10.113   2.551   6.622 -0.2608  0.4435  0.1706
18011SOL    HW257822  10.118   2.620   6.756  1.1598  2.1586 -0.7161
18012SOL     OW57823   8.341  10.293   2.985  0.0603  0.5654  0.1128
18012SOL    HW157824   8.392  10.336   3.053  1.3435  0.5642 -0.8077
18012SOL    HW257825   8.388  10.313   2.904 -1.5915  0.8402 -0.8340
18013SOL     OW57826   4.689   3.838   6.148 -0.8464  0.1359  0.1301
18013SOL    HW157827   4.630   3.904   6.113 -0.1809  0.2826 -0.7523
18013SOL    HW257828   4.654   3.754   6.117 -0.4935  0.2371 -0.5729
18014SOL     OW57829   4.291   8.314   2.843 -0.2753  0.2374 -0.0532
18014SOL    HW157830   4.269   8.243   2.902  1.5820  0.9766  1.6673
18014SOL    HW257831   4.386   8.305   2.829 -0.4160  0.9540 -1.7580
18015SOL     OW57832   7.358   6.415   9.419 -0.1071  0.7495 -0.4025
18015SOL    HW157833   7.278   6.368   9.443  0.9997 -0.2941  1.5338
18015SOL    HW257834   7.418   6.347   9.389  1.0635  1.0430  1.1384
18016SOL     OW57835   9.657   5.715   5.020  0.2988  0.0479  0.1106
18016SOL    HW157836   9.606   5.704   4.940  1.0004  0.5678 -0.4287
18016SOL    HW257837   9.745   5.685   4.996  0.4174 -0.2119  0.8267
18017SOL     OW57838   3.403   3.440   8.803  0.1388 -0.4325 -0.0475
18017SOL    HW157839   3.453   3.382   8.861  1.8676  1.1864  0.1721
18017SOL    HW257840   3.428   3.412   8.714  1.3747  0.2465  0.0574
18018SOL     OW57841   1.581   0.309   9.192 -0.1629  0.5030  0.6776
18018SOL    HW157842   1.674   0.330   9.184 -0.5843  1.9308 -0.9931
18018SOL    HW257843   1.572   0.274   9.281  1.9431  0.4162  0.8965
18019SOL     OW57844   6.114   3.591   3.698 -0.1739  0.0920  0.2621
18019SOL    HW157845   6.109   3.595   3.794 -2.1846  0.8581  0.1697
18019SOL    HW257846   6.047   3.526   3.674 -1.0784  1.3243 -0.6812
18020SOL     OW57847   9.150   2.126   9.613 -0.1853  0.3715  0.3077
18020SOL    HW157848   9.151   2.153   9.704 -0.6972 -0.7450  0.6694
18020SOL    HW257849   9.065   2.083   9.602  0.8279 -1.6709 -0.0028
18021SOL     OW57850   1.621   7.445   7.609 -0.0352 -0.2251  0.3020
18021SOL    HW157851   1.626   7.539   7.589  0.5135 -0.3364 -0.1171
18021SOL    HW257852   1.541   7.436   7.660 -1.3347  0.1368 -1.5645
18022SOL     OW57853   1.202   8.821   9.689 -0.1003 -0.6925  0.0884
18022SOL    HW157854   1.172   8.872   9.765 -1.1786  0.8930 -1.3162
18022SOL    HW257855   1.295   8.806   9.706 -0.5034 -1.2547  2.1571
18023SOL     OW57856   1.738   1.392   7.398 -0.4838  0.4229 -0.2032
18023SOL    HW157857   1.727   1.469   7.343  0.6742  1.1051  0.4999
18023SOL    HW257858   1.807   1.341   7.356 -0.8372  0.0490 -0.3439
18024SOL     OW57859   1.275   3.974   1.668 -0.1254  0.1715 -0.3381
18024SOL    HW157860   1.226   4.053   1.690  1.3773  0.3947  2.7211
18024SOL    HW257861   1.365   3.995   1.691  0.3053 -2.4458  0.6708
18025SOL     OW57862   3.411   8.682   8.541 -0.0924  0.3026 -0.2181
18025SOL    HW157863   3.392   8.648   8.453  0.4414 -2.1878  0.5571
18025SOL    HW257864   3.430   8.604   8.593  1.9781  1.8795  1.5519
18026SOL     OW57865   7.144   2.577   5.188 -0.6793  0.2572  0.4856
18026SOL    HW157866   7.214   2.637   5.212 -0.6974 -0.4161  2.3188
18026SOL    HW257867   7.164   2.496   5.234 -0.6060 -1.2520 -1.9800
18027SOL     OW57868   2.386   0.966   2.207  0.1339  0.5491 -0.3791
18027SOL    HW157869   2.369   1.059   2.223 -1.6373  0.0396  0.9809
18027SOL    HW257870   2.366   0.923   2.290 -0.0699 -1.1788 -1.2804
18028SOL     OW57871   0.644   7.427   3.458  0.3861  1.0166  0.9204
18028SOL    HW157872   0.682   7.420   3.370 -0.5059 -0.1745  0.5982
18028SOL    HW257873   0.659   7.517   3.484 -2.6502  2.5844 -2.0203
18029SOL     OW57874   7.595   9.007   7.714 -0.3825  0.2094  0.4176
18029SOL    HW157875   7.594   8.925   7.762 -0.7364 -0.6677 -1.0319
18029SOL    HW257876   7.650   9.065   7.766 -0.5700 -0.7664  1.7437
18030SOL     OW57877   6.694   6.936   7.604 -0.0624  0.0874 -0.6782
18030SOL    HW157878   6.621   6.938   7.666 -0.0784  1.0105 -0.7129
18030SOL    HW257879   6.741   7.018   7.620  0.4139 -0.0561 -1.3120
18031SOL     OW57880   9.735   2.437   5.722 -0.9726  0.2462 -0.6713
18031SOL    HW157881   9.827   2.458   5.706 -1.0058  1.2006  0.2259
18031SOL    HW257882   9.706   2.391   5.643  1.4459 -4.2712  0.6875
18032SOL     OW57883   4.029   5.655   5.847  0.2480 -0.2028  0.1624
18032SOL    HW157884   4.122   5.633   5.853  0.0112 -1.4783 -0.5557
18032SOL    HW257885   4.026   5.750   5.855  1.4643 -0.2624  1.8556
18033SOL     OW57886   0.401   8.809   8.065 -0.0622 -0.2245  0.1416
18033SOL    HW157887   0.389   8.737   8.003  2.5223 -1.1689  0.5884
18033SOL    HW257888   0.496   8.815   8.076 -0.3583 -0.2210  4.1232
18034SOL     OW57889  10.223   6.061   2.755  0.1312 -0.6727 -0.3506
18034SOL    HW157890  10.155   6.038   2.819 -1.0658 -0.2980 -1.4423
18034SOL    HW257891  10.174   6.085   2.676  1.5456 -0.2796 -1.1358
18035SOL     OW57892   6.258  10.311   2.900  0.1549  0.1582  0.4342
18035SOL    HW157893   6.206  10.232   2.887  1.4797 -1.5061  3.9709
18035SOL    HW257894   6.348  10.283   2.891  0.6706  1.1602  2.0369
18036SOL     OW57895   5.883   0.968   3.257 -0.8005 -0.2015  0.0966
18036SOL    HW157896   5.802   0.916   3.253 -1.5620  0.8184  1.5108
18036SOL    HW257897   5.920   0.948   3.343  0.3814 -0.5097 -0.4624
18037SOL     OW57898   0.452   8.797   3.175 -0.7128 -0.3612  0.0315
18037SOL    HW157899   0.382   8.774   3.114 -2.5192  0.7492  1.5864
18037SOL    HW257900   0.408   8.811   3.259  1.4460 -0.0970  1.2061
18038SOL     OW57901   4.454   3.603   8.331 -0.0594 -0.2398 -0.4712
18038SOL    HW157902   4.467   3.566   8.243 -1.6589  0.3218 -0.9822
18038SOL    HW257903   4.360   3.593   8.347 -0.3213  2.2653 -0.0478
18039SOL     OW57904   9.656   0.244   7.508 -0.1581 -0.2908  0.3726
18039SOL    HW157905   9.747   0.222   7.492  0.4199  1.6983  0.7065
18039SOL    HW257906   9.632   0.193   7.585  0.7959 -0.4894  0.5491
18040SOL     OW57907   2.744   1.585   1.147  0.0926 -0.0333  0.5035
18040SOL    HW157908   2.731   1.654   1.212 -0.5080 -0.6992  1.1203
18040SOL    HW257909   2.688   1.513   1.178 -0.0469 -0.4375 -0.6478
18041SOL     OW57910   5.245   4.522   9.756 -0.4941 -0.0963  0.1163
18041SOL    HW157911   5.339   4.514   9.775 -1.1908 -1.2823  3.9035
18041SOL    HW257912   5.225   4.445   9.703  0.3527 -0.9433  0.9928
18042SOL     OW57913   4.510   3.951   7.279  0.0504  0.4438  0.1114
18042SOL    HW157914   4.432   3.905   7.247  0.7469  0.0671 -1.1292
18042SOL    HW257915   4.579   3.928   7.216  1.4747 -0.1988  1.8074
18043SOL     OW57916   3.585   4.220   4.169 -0.0487  0.5653 -0.2524
18043SOL    HW157917   3.640   4.292   4.198 -0.7678  0.6610  0.9233
18043SOL    HW257918   3.575   4.164   4.247 -0.4825 -0.1648 -0.8151
18044SOL     OW57919   7.084  10.111   0.261  0.5789  0.1244 -0.2827
18044SOL    HW157920   7.113  10.142   0.175  0.4024  1.0580 -0.0166
18044SOL    HW257921   6.989  10.099   0.251  0.5708  0.1585 -0.2465
18045SOL     OW57922   0.615   4.819   6.069 -0.1071  0.1535  0.5769
18045SOL    HW157923   0.595   4.790   6.158  0.3920 -1.7637  0.0946
18045SOL    HW257924   0.606   4.741   6.015 -0.4212  1.2793 -1.0858
18046SOL     OW57925   2.071   0.802   4.404  0.0411  0.1435  0.0665
18046SOL    HW157926   2.135   0.853   4.354  1.2518  0.3259  1.7107
18046SOL    HW257927   2.030   0.866   4.462 -1.1509 -0.1105 -0.4600
18047SOL     OW57928   0.453   0.477   7.743  0.3979  0.7938  0.2134
18047SOL    HW157929   0.503   0.398   7.719  1.6050  1.5080  0.3008
18047SOL    HW257930   0.364   0.458   7.714  0.9403 -0.0802 -1.0107
18048SOL     OW57931   7.241   1.287   3.122  0.0094  0.1039 -0.0467
18048SOL    HW157932   7.147   1.276   3.109  0.0375 -2.5606  1.2217
18048SOL    HW257933   7.279   1.285   3.034 -0.8887 -2.6430 -0.4704
18049SOL     OW57934   9.459   4.973   0.866  0.3691 -0.2020 -0.0704
18049SOL    HW157935   9.409   5.018   0.934 -1.0469 -1.8607  0.0702
18049SOL    HW257936   9.546   5.013   0.870 -0.0407  0.6475  1.8160
18050SOL     OW57937   6.982   7.099   4.497  0.2383  0.1137 -0.2616
18050SOL    HW157938   6.935   7.021   4.527  2.1094 -1.8909 -2.1425
18050SOL    HW257939   6.919   7.170   4.505 -1.7311 -1.6602  1.0558
18051SOL     OW57940   8.331   5.070   2.283 -0.0722 -0.3224  0.5355
18051SOL    HW157941   8.246   5.030   2.267 -0.8769  1.5291  0.0018
18051SOL    HW257942   8.393   5.016   2.233 -1.2695 -0.2589 -1.0874
18052SOL     OW57943   0.935   8.553   7.412  0.4061  0.7185  0.5338
18052SOL    HW157944   0.931   8.640   7.452  0.7155  0.8416  0.2970
18052SOL    HW257945   0.876   8.500   7.466  0.2086  1.0757  0.6746
18053SOL     OW57946   9.244   4.791   0.007 -0.2261 -0.1813 -0.1312
18053SOL    HW157947   9.305   4.718   0.006  1.3293  0.9964  1.6851
18053SOL    HW257948   9.170   4.760   0.060  1.1090 -0.0284  1.9562
18054SOL     OW57949   9.366  10.091  10.340 -0.2121  0.4591 -0.5022
18054SOL    HW157950   9.296  10.051  10.289  0.9528 -0.2752 -1.5664
18054SOL    HW257951   9.367  10.042  10.422 -1.7630  1.3240  0.0934
18055SOL     OW57952   3.615   1.691   7.282  0.1325  0.0227  0.1868
18055SOL    HW157953   3.622   1.772   7.334  0.9580 -1.2399  2.1741
18055SOL    HW257954   3.656   1.712   7.199  0.8920  1.4773  0.8904
18056SOL     OW57955   8.835   2.294   7.997  0.9647 -0.1033 -0.0872
18056SOL    HW157956   8.828   2.227   8.065  0.6075 -0.9077 -0.8887
18056SOL    HW257957   8.928   2.302   7.981  1.1343  0.8563  1.2130
18057SOL     OW57958   0.682   1.949   5.352 -0.1243 -0.2377 -0.3816
18057SOL    HW157959   0.737   2.006   5.298 -0.8479  0.6445 -0.2161
18057SOL    HW257960   0.740   1.921   5.423  0.3633 -0.0512 -0.6956
18058SOL     OW57961   4.194   7.251   2.246  0.3100  0.2583 -0.1127
18058SOL    HW157962   4.198   7.228   2.153  0.8239 -0.5398  0.0848
18058SOL    HW257963   4.204   7.167   2.291 -2.5920  0.2462  0.6819
18059SOL     OW57964   7.132   0.736   1.786 -0.1867 -0.2248 -0.2718
18059SOL    HW157965   7.151   0.647   1.758 -2.4465 -0.8091 -0.1471
18059SOL    HW257966   7.130   0.730   1.882 -2.2085 -0.5361 -0.2894
18060SOL     OW57967   3.833   2.511   9.847 -0.2698 -0.1781 -0.3072
18060SOL    HW157968   3.792   2.532   9.930  0.9608  0.8793  0.0700
18060SOL    HW257969   3.785   2.563   9.782 -1.5176 -1.3397 -0.3632
18061SOL     OW57970   3.569  10.197   0.151 -0.0048 -0.1054 -0.0582
18061SOL    HW157971   3.516  10.120   0.129 -0.3555  0.4372 -1.2306
18061SOL    HW257972   3.507  10.269   0.154  0.4543  0.2890  0.0652
18062SOL     OW57973   4.290   2.529   3.640  0.3565  0.3227  0.2178
18062SOL    HW157974   4.232   2.453   3.644 -0.7924  1.1392 -0.6325
18062SOL    HW257975   4.354   2.507   3.572 -0.5403  0.4917 -0.6921
18063SOL     OW57976   2.837   2.060   6.199 -0.3109 -0.2211  0.6904
18063SOL    HW157977   2.895   2.066   6.123  0.1713 -0.0564  1.0714
18063SOL    HW257978   2.749   2.078   6.164 -0.5213 -2.7501 -0.3691
18064SOL     OW57979   7.551   3.777   4.016  0.4171  0.3097  0.4097
18064SOL    HW157980   7.587   3.753   3.931  0.7240  0.8624  0.3762
18064SOL    HW257981   7.501   3.857   4.000 -1.3937 -0.7980  0.3429
18065SOL     OW57982   1.029   0.986   8.099  0.2925  0.0156  0.0644
18065SOL    HW157983   1.027   0.950   8.010 -0.7461  0.6776 -0.1944
18065SOL    HW257984   1.101   1.049   8.098  0.8907 -0.6582 -0.0259
18066SOL     OW57985   9.684   4.120   5.504 -0.0907 -0.2039  0.4368
18066SOL    HW157986   9.759   4.090   5.453 -1.8641  0.3497 -2.7819
18066SOL    HW257987   9.694   4.215   5.507 -0.6053 -0.1340  0.0441
18067SOL     OW57988   5.758   5.740   6.770  0.0644  0.1345 -0.2296
18067SOL    HW157989   5.697   5.681   6.814  1.5016 -1.1953  0.0621
18067SOL    HW257990   5.741   5.825   6.811 -0.9595 -0.3799  0.4836
18068SOL     OW57991   7.923   6.929   3.527  0.0342  0.4454 -0.4384
18068SOL    HW157992   7.942   6.869   3.455  0.8993  2.0411 -1.5979
18068SOL    HW257993   7.827   6.934   3.528 -0.0595 -0.9038 -0.3244
18069SOL     OW57994   5.103   3.040   8.975  0.6594  0.0565  0.1672
18069SOL    HW157995   5.021   3.091   8.982  0.8000  0.2658  0.3040
18069SOL    HW257996   5.074   2.953   8.950  0.3588  0.0301  0.5885
18070SOL     OW57997   7.759   6.881   8.326 -0.0257  0.0174  0.1587
18070SOL    HW157998   7.793   6.845   8.245  0.0438 -0.0838  0.2325
18070SOL    HW257999   7.714   6.961   8.300  0.9136  0.5575  0.1497
18071SOL     OW58000   0.312   6.426   6.666  0.0316 -0.1381 -0.1743
18071SOL    HW158001   0.223   6.448   6.638 -0.5163  0.2432  1.7329
18071SOL    HW258002   0.368   6.488   6.619 -0.7958  0.2109 -0.7221
18072SOL     OW58003   9.070   5.871   0.544  0.1472  0.0474 -0.2722
18072SOL    HW158004   9.075   5.827   0.459 -1.8677  2.1435 -1.6159
18072SOL    HW258005   8.976   5.870   0.565  0.4830  0.5924  1.3632
18073SOL     OW58006   9.083   6.255   8.270 -0.0797  0.7181  0.0943
18073SOL    HW158007   9.156   6.311   8.297  0.9518 -1.6794  2.7181
18073SOL    HW258008   9.122   6.191   8.210  0.1825 -0.8432  1.8490
18074SOL     OW58009   3.350   0.919   9.814  0.1295 -0.2918  0.4394
18074SOL    HW158010   3.406   0.996   9.801 -1.9563  1.6290  2.0711
18074SOL    HW258011   3.357   0.898   9.907  0.2312 -1.7805  0.1294
18075SOL     OW58012   3.087   8.069   9.214 -0.2164  0.2073  0.9580
18075SOL    HW158013   2.994   8.058   9.194  0.2531 -0.9342 -0.8074
18075SOL    HW258014   3.119   7.980   9.227  1.0638  0.3868 -0.7023
18076SOL     OW58015   6.397   2.687   3.654 -0.0191  0.6696  0.3457
18076SOL    HW158016   6.316   2.716   3.612  0.1002  1.0890  0.3996
18076SOL    HW258017   6.370   2.616   3.712 -0.5257  1.5183  1.1715
18077SOL     OW58018   6.154   3.684   3.991  0.2880  0.1934 -0.0294
18077SOL    HW158019   6.204   3.736   4.054 -0.2708  1.6830 -0.7488
18077SOL    HW258020   6.072   3.664   4.036  0.5109 -0.0651  0.2600
18078SOL     OW58021   7.050   1.449   2.937 -0.0064  0.4686  0.0037
18078SOL    HW158022   7.042   1.392   2.860 -0.5663  1.6494 -0.8452
18078SOL    HW258023   7.021   1.395   3.010  1.1037 -0.8767 -0.4992
18079SOL     OW58024   8.728   0.991   0.754 -0.7295 -0.0670  0.6376
18079SOL    HW158025   8.764   1.070   0.713 -2.3378  0.2319 -0.2914
18079SOL    HW258026   8.802   0.931   0.759  0.0057  0.6569 -0.8296
18080SOL     OW58027   2.661   3.021   3.262 -0.1815 -0.1314  0.2800
18080SOL    HW158028   2.587   2.980   3.217  0.2672 -0.4766 -0.1451
18080SOL    HW258029   2.650   2.996   3.354 -1.3393  0.9305  0.4665
18081SOL     OW58030   7.836   6.816   3.045  0.2754  0.1359 -0.2978
18081SOL    HW158031   7.756   6.792   2.998  1.7210  0.7299 -3.2492
18081SOL    HW258032   7.899   6.748   3.021  0.9399  0.1151  1.3673
18082SOL     OW58033   4.043   3.111   1.068 -0.5058 -0.3157 -0.6361
18082SOL    HW158034   4.082   3.111   0.981 -2.6111 -1.9543 -1.6721
18082SOL    HW258035   4.108   3.067   1.123  1.4236  1.8763 -0.9981
18083SOL     OW58036   3.063   7.788   8.283  0.0570  0.1471  0.3454
18083SOL    HW158037   2.990   7.839   8.246  0.3167  1.1210  1.1204
18083SOL    HW258038   3.072   7.821   8.373  1.5659  0.1677  0.2150
18084SOL     OW58039   1.910   5.857   2.666 -0.2241 -0.4332 -0.2127
18084SOL    HW158040   1.881   5.767   2.675 -2.0684  0.1693  0.1922
18084SOL    HW258041   1.836   5.910   2.694  0.1603  1.2556 -2.1399
18085SOL     OW58042   8.454   5.942   4.694  0.5229  0.1558 -0.3501
18085SOL    HW158043   8.390   5.999   4.737  1.1503 -0.0016  0.8532
18085SOL    HW258044   8.454   5.862   4.747  1.6100  0.1080 -0.3941
18086SOL     OW58045   3.994   1.895   1.018  0.5166  0.7644  0.2675
18086SOL    HW158046   4.062   1.940   0.967  1.6013  0.8862  1.7456
18086SOL    HW258047   3.919   1.954   1.015  0.5599  0.7864 -1.1212
18087SOL     OW58048   2.158   0.675   8.286  0.0485  0.4661  0.6432
18087SOL    HW158049   2.121   0.733   8.352 -1.8103 -1.6906  1.6316
18087SOL    HW258050   2.121   0.705   8.203 -0.5658  0.9058  1.0767
18088SOL     OW58051   2.451   4.783   9.241  0.7473 -0.3613  0.2610
18088SOL    HW158052   2.540   4.794   9.208  1.0696 -1.3676  0.7353
18088SOL    HW258053   2.407   4.865   9.221  1.4177 -0.3110 -1.1157
18089SOL     OW58054   3.361   0.399  10.346  0.2066 -0.3791 -0.1522
18089SOL    HW158055   3.343   0.310  10.378 -2.3475  0.2900  0.4674
18089SOL    HW258056   3.292   0.453  10.384  0.9208  1.6633 -1.5813
18090SOL     OW58057   0.563   3.201   3.016  0.4500  0.3375  0.0979
18090SOL    HW158058   0.621   3.231   3.086  1.6437  0.9360 -1.1148
18090SOL    HW258059   0.476   3.230   3.043  1.1954  2.6380  0.2361
18091SOL     OW58060   7.304   0.558   9.765 -0.4314  0.1522  0.7417
18091SOL    HW158061   7.338   0.647   9.752  0.5726 -0.0228  1.9737
18091SOL    HW258062   7.291   0.524   9.677 -2.7214  2.1862  0.1841
18092SOL     OW58063  10.247   1.045   3.781  0.2729 -0.1184 -0.1212
18092SOL    HW158064  10.203   1.106   3.840  1.7481  0.0532  0.8559
18092SOL    HW258065  10.291   1.101   3.717  0.4597 -0.2097 -0.0736
18093SOL     OW58066  10.035   5.194   0.081  0.0991  0.1365  0.5172
18093SOL    HW158067  10.028   5.123   0.145 -0.2312 -0.7164 -0.4359
18093SOL    HW258068  10.042   5.149  -0.004  0.6325  1.2334 -0.0431
18094SOL     OW58069   9.180   9.251   3.147 -0.2152  0.8105 -0.6718
18094SOL    HW158070   9.086   9.239   3.135 -0.0327 -2.5270  0.1633
18094SOL    HW258071   9.190   9.345   3.163 -3.9570  0.9153  3.1432
18095SOL     OW58072   8.103   6.780   9.814 -0.1170 -0.2749  0.7929
18095SOL    HW158073   8.052   6.810   9.738  0.8425  0.3367  0.3765
18095SOL    HW258074   8.194   6.798   9.791  0.1894 -0.0365  2.1179
18096SOL     OW58075   3.206   9.766   4.326 -0.1539 -0.9974  0.4421
18096SOL    HW158076   3.121   9.765   4.371 -0.9090  2.0284 -0.6636
18096SOL    HW258077   3.254   9.836   4.369  0.3315 -0.1910 -1.3439
18097SOL     OW58078   5.779   6.421   0.744 -0.1978  0.4172 -0.5581
18097SOL    HW158079   5.848   6.403   0.807 -0.2074 -0.9148 -0.8964
18097SOL    HW258080   5.718   6.348   0.753 -1.5585  1.5520 -0.2950
18098SOL     OW58081   0.389   3.263   1.358 -0.5686  0.2028 -0.6142
18098SOL    HW158082   0.482   3.256   1.336 -0.1348  1.8371  0.4995
18098SOL    HW258083   0.351   3.180   1.330  1.9168 -2.1182  2.1686
18099SOL     OW58084   5.456   6.215   2.954 -0.1724 -0.3526 -0.4355
18099SOL    HW158085   5.436   6.171   3.037  1.5061 -1.0799 -0.3863
18099SOL    HW258086   5.441   6.148   2.887 -1.5211  0.2323 -0.7642
18100SOL     OW58087   4.171   5.425   5.440  0.5667  0.3953  0.4767
18100SOL    HW158088   4.085   5.458   5.414 -0.0837 -0.0604  1.9054
18100SOL    HW258089   4.212   5.397   5.358 -1.1887 -0.6008 -0.1230
18101SOL     OW58090   8.492   4.981   8.782  0.0553  0.2738  0.3418
18101SOL    HW158091   8.583   4.955   8.794  0.1876  0.8016  0.5423
18101SOL    HW258092   8.494   5.077   8.789 -0.3569  0.3716 -0.6896
18102SOL     OW58093  10.276   2.280   2.074  0.5959 -0.3693 -0.5182
18102SOL    HW158094  10.267   2.247   2.163  1.0170  2.7486  0.7860
18102SOL    HW258095  10.187   2.292   2.043  0.4181  0.5949  0.3355
18103SOL     OW58096   9.779   0.321   5.426  0.2432  0.0912  0.4814
18103SOL    HW158097   9.816   0.357   5.346 -1.1030 -0.0346 -0.2200
18103SOL    HW258098   9.715   0.387   5.455  0.9230  0.2787  1.6335
18104SOL     OW58099   8.819   9.304   1.123 -0.0117  0.2688 -0.2799
18104SOL    HW158100   8.856   9.280   1.208  0.3674 -1.1816 -0.8287
18104SOL    HW258101   8.838   9.398   1.115 -0.4394  0.5327  1.4028
18105SOL     OW58102   9.429   7.573   1.869 -0.6816  0.0215 -0.5903
18105SOL    HW158103   9.457   7.515   1.939 -1.4554  0.7361  0.3373
18105SOL    HW258104   9.334   7.560   1.864 -1.1521  2.3929  0.7980
18106SOL     OW58105   2.491   8.819   4.061 -0.2584 -0.1212  0.0554
18106SOL    HW158106   2.491   8.867   3.979  0.4834  0.2072  0.2361
18106SOL    HW258107   2.565   8.758   4.053 -0.4074 -0.3418  0.3305
18107SOL     OW58108   6.026   0.258   0.699  0.0187 -0.2639 -0.1664
18107SOL    HW158109   5.963   0.299   0.640 -1.3404  0.9576  1.9766
18107SOL    HW258110   5.979   0.183   0.735  0.9139 -1.1387 -0.7902
18108SOL     OW58111   6.060   3.499   2.008 -0.3730 -0.6415  0.0130
18108SOL    HW158112   6.015   3.553   2.073 -3.4643 -2.7826 -0.1704
18108SOL    HW258113   6.122   3.447   2.060 -1.1802 -0.7118  0.9357
18109SOL     OW58114   5.467   2.513   7.471 -0.9430  0.2192 -0.4895
18109SOL    HW158115   5.550   2.520   7.518 -0.1773 -2.8095 -1.1698
18109SOL    HW258116   5.481   2.563   7.391 -0.3391  1.0242  0.1071
18110SOL     OW58117   2.215   6.362   3.832  0.2424 -0.1084 -0.7551
18110SOL    HW158118   2.187   6.313   3.910  1.6308  1.1311  0.5995
18110SOL    HW258119   2.153   6.337   3.764 -0.6801 -1.6899  0.5881
18111SOL     OW58120   7.465   5.539   0.462  0.2915  0.2922 -1.2249
18111SOL    HW158121   7.455   5.474   0.532 -0.3619 -0.2396 -1.8079
18111SOL    HW258122   7.560   5.545   0.449  0.4009  0.1057 -0.5710
18112SOL     OW58123   5.701   3.911   9.437  0.1931 -0.5234  0.2177
18112SOL    HW158124   5.611   3.887   9.460  1.0710 -2.2531  2.1801
18112SOL    HW258125   5.706   3.900   9.342 -1.4275 -1.2077  0.1813
18113SOL     OW58126   7.821   1.356   7.007  0.3933  1.0055  0.1610
18113SOL    HW158127   7.783   1.407   6.935  0.8019 -0.2078 -0.9444
18113SOL    HW258128   7.761   1.370   7.080 -1.8555 -0.3028 -1.3343
18114SOL     OW58129   1.520   7.533   0.475  0.2700  0.3056 -0.2928
18114SOL    HW158130   1.573   7.577   0.541 -0.1758  1.3668 -0.6160
18114SOL    HW258131   1.560   7.447   0.464  1.8797  1.0543 -0.4940
18115SOL     OW58132   3.675   7.620  10.132  0.1507  0.8602 -0.1562
18115SOL    HW158133   3.724   7.554  10.083 -0.7928 -0.1672  0.2512
18115SOL    HW258134   3.689   7.701  10.083 -0.3271 -0.0291 -1.8509
18116SOL     OW58135   1.585   6.527   7.515  0.3444 -0.1975  0.3092
18116SOL    HW158136   1.635   6.549   7.437  1.0237 -2.0519  0.1588
18116SOL    HW258137   1.494   6.544   7.492  0.7285  1.7810  0.0620
18117SOL     OW58138   1.826   6.259   7.055  0.3784  0.5512 -0.4202
18117SOL    HW158139   1.756   6.260   6.990  0.8696 -0.8452 -0.9993
18117SOL    HW258140   1.801   6.327   7.118 -1.2597  0.3790 -0.8467
18118SOL     OW58141   9.877   7.516   1.018 -0.1559  0.0720  0.0969
18118SOL    HW158142   9.956   7.491   0.970 -0.3495  0.2333 -0.3164
18118SOL    HW258143   9.896   7.604   1.051 -0.6926  0.7258 -1.2442
18119SOL     OW58144   3.006   3.613  10.340 -0.3648 -0.2030 -0.2021
18119SOL    HW158145   2.911   3.617  10.352 -0.7075 -1.9083 -1.8421
18119SOL    HW258146   3.032   3.534  10.387 -0.1771 -1.1253 -1.7908
18120SOL     OW58147   4.570   3.720   0.839 -0.1815 -0.2046 -0.1721
18120SOL    HW158148   4.599   3.710   0.749 -1.5717  0.0215 -0.6715
18120SOL    HW258149   4.477   3.740   0.832  0.2951  3.1509  1.1470
18121SOL     OW58150   2.876   8.610   5.789 -0.2803  0.4259  0.3929
18121SOL    HW158151   2.865   8.516   5.802  1.4187 -0.1664 -1.7711
18121SOL    HW258152   2.795   8.638   5.746 -0.3384 -0.2927  0.0214
18122SOL     OW58153   6.915   0.618   4.127 -0.1850 -0.0822 -0.6984
18122SOL    HW158154   6.943   0.532   4.158 -1.5044 -0.3061 -0.0562
18122SOL    HW258155   6.870   0.657   4.203  0.7313  1.3426 -0.8425
18123SOL     OW58156   4.423  10.281   2.483 -0.0226 -0.2644 -0.1773
18123SOL    HW158157   4.502  10.334   2.471 -0.4431  0.5465  0.4856
18123SOL    HW258158   4.450  10.213   2.545 -0.1351  0.7571  1.0554
18124SOL     OW58159   3.166   4.861   9.044  0.7711 -0.0303 -0.1373
18124SOL    HW158160   3.074   4.836   9.047  0.7917 -0.0636  0.2614
18124SOL    HW258161   3.214   4.780   9.058  0.8496  0.0917  0.3158
18125SOL     OW58162   3.292   6.432   7.788 -0.1175  0.2811  0.1987
18125SOL    HW158163   3.378   6.393   7.800  0.1575  0.7995 -0.0732
18125SOL    HW258164   3.271   6.418   7.696 -0.0270  0.7502  0.1047
18126SOL     OW58165   1.631   1.491   5.221 -0.2640  0.3686 -0.2978
18126SOL    HW158166   1.632   1.424   5.290  0.0434 -0.2354 -0.8837
18126SOL    HW258167   1.616   1.573   5.268  1.0150  0.1033  0.6306
18127SOL     OW58168   0.111   8.502   7.818  0.0557 -0.0002  0.1896
18127SOL    HW158169   0.063   8.581   7.793 -1.0852 -0.1873  1.6554
18127SOL    HW258170   0.126   8.456   7.735 -0.1836  1.2317 -0.5668
18128SOL     OW58171   7.279   5.074   9.843  0.3812 -0.2856  0.0538
18128SOL    HW158172   7.244   5.143   9.898 -1.0807  1.1648 -2.4801
18128SOL    HW258173   7.202   5.038   9.798  0.8206 -4.6931  2.2639
18129SOL     OW58174   7.180   4.220   9.580 -0.0265  0.4948  0.5906
18129SOL    HW158175   7.216   4.245   9.495  1.1246  2.1609  1.5216
18129SOL    HW258176   7.131   4.297   9.609 -3.3298 -1.1932  0.0064
18130SOL     OW58177   3.409   7.538  10.117 -0.3359  0.3748  0.3953
18130SOL    HW158178   3.497   7.570  10.139 -0.7330  2.5233 -0.8953
18130SOL    HW258179   3.425   7.452  10.078  0.8384 -0.8915  3.3230
18131SOL     OW58180   7.750   6.563   0.178  0.6696  0.0500 -0.2032
18131SOL    HW158181   7.671   6.550   0.125  0.1961  2.5491 -0.2261
18131SOL    HW258182   7.817   6.512   0.133 -0.4812 -0.5599 -1.3044
18132SOL     OW58183   4.621   5.807   9.101  0.1095 -0.9031  0.4599
18132SOL    HW158184   4.678   5.732   9.115  0.0520 -1.2301 -0.8895
18132SOL    HW258185   4.593   5.799   9.009  0.9635  1.3208 -0.0654
18133SOL     OW58186   0.993   3.461   1.618 -0.2880  0.1902  0.0740
18133SOL    HW158187   0.899   3.449   1.628 -0.1163  0.4835  3.3679
18133SOL    HW258188   1.030   3.418   1.695  2.1031  1.8812 -0.0336
18134SOL     OW58189   0.295   2.879   1.631  0.0172  0.3762 -0.2193
18134SOL    HW158190   0.348   2.801   1.644  0.2210  0.6119  0.4122
18134SOL    HW258191   0.287   2.887   1.536  0.5781 -0.0173 -0.3066
18135SOL     OW58192   2.505   6.503   5.305  0.4798 -0.3270 -0.6785
18135SOL    HW158193   2.505   6.429   5.365 -0.3093 -0.7703 -1.2177
18135SOL    HW258194   2.572   6.562   5.341 -0.5109 -0.2022  1.0901
18136SOL     OW58195   9.600   0.025   6.576 -0.0926 -0.9809 -0.0577
18136SOL    HW158196   9.691   0.041   6.602 -0.5513  1.6308  0.2223
18136SOL    HW258197   9.559  -0.012   6.654  0.3916 -0.7470  0.3166
18137SOL     OW58198   9.111   3.934   2.002  0.6063  0.0434 -1.1338
18137SOL    HW158199   9.187   3.971   1.956  0.8581  0.7978 -0.1534
18137SOL    HW258200   9.081   3.863   1.945  1.3536  0.4633 -2.0886
18138SOL     OW58201   9.252   7.074   9.077 -0.4370 -0.4781 -0.6381
18138SOL    HW158202   9.223   7.056   8.988 -0.2387 -0.3511 -0.7281
18138SOL    HW258203   9.313   7.002   9.097 -0.0954 -0.2343 -0.7869
18139SOL     OW58204   6.520   8.319   7.224  0.3796  0.7029 -0.3439
18139SOL    HW158205   6.468   8.239   7.235  1.4586 -0.2845 -1.9756
18139SOL    HW258206   6.538   8.348   7.313 -2.7473  1.0123  0.3051
18140SOL     OW58207   1.230   4.745   8.462 -0.0678  0.5941  0.2918
18140SOL    HW158208   1.309   4.758   8.514 -0.1383  1.9978  0.1016
18140SOL    HW258209   1.235   4.812   8.393 -0.5573 -0.4537 -0.8005
18141SOL     OW58210   4.015   1.376   6.417 -0.0468 -0.0232  0.9248
18141SOL    HW158211   3.992   1.396   6.508  0.1809  2.7577  0.4670
18141SOL    HW258212   3.941   1.409   6.366  0.7176  0.2984 -0.0016
18142SOL     OW58213   9.859   0.926   4.243  0.3228  0.7300 -0.5153
18142SOL    HW158214   9.953   0.920   4.223  0.2342 -0.2229 -0.6932
18142SOL    HW258215   9.840   0.847   4.294 -0.0890  1.6401  0.8081
18143SOL     OW58216   1.652   3.104   3.838  0.2041  0.9614  0.2333
18143SOL    HW158217   1.730   3.121   3.890  0.6119  0.0570 -0.0604
18143SOL    HW258218   1.618   3.022   3.872  0.6075  0.2336 -1.0534
18144SOL     OW58219   4.355   6.096   2.044 -0.2543 -0.3405  0.4704
18144SOL    HW158220   4.326   6.008   2.021 -2.6334  0.4415  0.1149
18144SOL    HW258221   4.274   6.144   2.061  0.8444  2.1564 -0.7434
18145SOL     OW58222   4.392   5.240   0.308 -0.2009  0.3594 -0.3663
18145SOL    HW158223   4.415   5.308   0.245  1.2391  1.4073  1.2191
18145SOL    HW258224   4.461   5.175   0.301 -0.4750  0.0717 -0.4349
18146SOL     OW58225   7.212   0.624   9.045  0.2038 -0.3210 -0.1246
18146SOL    HW158226   7.140   0.664   9.093 -0.4488 -1.0962 -0.4317
18146SOL    HW258227   7.178   0.612   8.956  0.7588 -0.5625 -0.3113
18147SOL     OW58228  10.327   1.370   7.421  0.4683 -0.2363 -0.3492
18147SOL    HW158229  10.292   1.448   7.463  0.5453 -0.3679 -0.0357
18147SOL    HW258230  10.417   1.364   7.453  0.9648  0.3985 -1.5566
18148SOL     OW58231   8.779   1.812   8.499  0.0262 -0.5533  0.2376
18148SOL    HW158232   8.824   1.811   8.583 -1.2700 -2.1610  0.9675
18148SOL    HW258233   8.808   1.733   8.454 -0.9897 -0.8803  0.1306
18149SOL     OW58234   0.171   2.699   0.250  0.3287  0.0213  0.2449
18149SOL    HW158235   0.264   2.693   0.229  0.2815 -1.1655  0.2877
18149SOL    HW258236   0.147   2.789   0.230  1.8142  0.7760  1.6219
18150SOL     OW58237   7.366   9.383   7.460 -0.3542  0.0051 -0.6838
18150SOL    HW158238   7.419   9.431   7.397  0.6411  0.7829  0.6714
18150SOL    HW258239   7.423   9.373   7.536 -1.3051 -1.4264 -0.1230
18151SOL     OW58240   0.636  10.000  10.291  0.5698 -0.9925  0.0126
18151SOL    HW158241   0.638  10.048  10.373 -0.1917  0.9866 -1.0378
18151SOL    HW258242   0.709   9.939  10.296  2.2275  0.9675  1.0673
18152SOL     OW58243   3.454   6.393   3.023 -0.0694 -0.2291  0.4866
18152SOL    HW158244   3.441   6.299   3.035 -1.5418 -0.3751 -1.5908
18152SOL    HW258245   3.538   6.401   2.977  0.4698 -0.4514  1.4248
18153SOL     OW58246   3.283   6.781  10.326  0.4498 -0.0137 -0.2477
18153SOL    HW158247   3.366   6.809  10.365 -0.2306  0.4880  0.9097
18153SOL    HW258248   3.284   6.686  10.332  1.1435 -0.0340 -0.6748
18154SOL     OW58249   0.064   1.917   9.233 -0.1091  0.0325 -0.3591
18154SOL    HW158250   0.010   1.983   9.275 -0.7042  0.4281 -1.6834
18154SOL    HW258251   0.088   1.856   9.303  0.2949  1.5257  0.8440
18155SOL     OW58252  10.300   2.800   2.333 -0.3897  0.2136 -0.2029
18155SOL    HW158253  10.269   2.752   2.410 -1.1902  1.1018  0.0334
18155SOL    HW258254  10.308   2.890   2.362  0.4312  0.3653 -0.8489
18156SOL     OW58255   1.381   4.190   6.637 -0.4435  0.3991  0.6753
18156SOL    HW158256   1.453   4.154   6.688 -0.0183  1.8511  1.1513
18156SOL    HW258257   1.366   4.277   6.674 -1.5574  0.6477 -0.2848
18157SOL     OW58258   3.118   5.500   0.339  0.1281  0.5738 -0.6404
18157SOL    HW158259   3.155   5.413   0.324 -0.9730  0.1546 -1.0148
18157SOL    HW258260   3.194   5.557   0.349  0.9171 -0.0128 -2.7223
18158SOL     OW58261   1.089   2.722   5.748  0.0645  0.3489  0.2971
18158SOL    HW158262   1.018   2.783   5.770  0.0191  0.6353 -0.5866
18158SOL    HW258263   1.137   2.766   5.678  1.2626  0.2507  1.0381
18159SOL     OW58264   1.761   8.785   8.818 -0.2673  0.2244  0.1151
18159SOL    HW158265   1.805   8.735   8.750 -0.2040 -0.6483  0.7795
18159SOL    HW258266   1.742   8.870   8.778 -0.4419 -0.3519 -1.0544
18160SOL     OW58267   6.104   0.573   1.391  0.2555 -0.0884  0.1568
18160SOL    HW158268   6.030   0.513   1.386  1.9763 -2.6470  2.6855
18160SOL    HW258269   6.156   0.553   1.313 -0.1275 -0.4744 -0.0027
18161SOL     OW58270   6.621   9.494  10.337  0.1656  0.4901 -0.3295
18161SOL    HW158271   6.591   9.445  10.260 -0.0398 -2.8197  1.6685
18161SOL    HW258272   6.712   9.467  10.349 -0.2399 -0.2788  1.3880
18162SOL     OW58273   1.375   2.010   3.940 -0.1061 -0.0582  0.3216
18162SOL    HW158274   1.286   2.042   3.930 -0.5623 -1.4976 -0.5633
18162SOL    HW258275   1.369   1.944   4.010 -0.2473 -1.7775 -1.2228
18163SOL     OW58276   2.147   1.617   5.915  0.6270  0.2349 -0.1404
18163SOL    HW158277   2.169   1.626   6.008 -0.3351 -1.0737  0.2362
18163SOL    HW258278   2.119   1.705   5.888  0.7585  0.5878  0.8397
18164SOL     OW58279   9.062   9.686   1.346  0.1337  0.3599  0.5518
18164SOL    HW158280   9.156   9.703   1.347  0.0922  0.6038  0.4354
18164SOL    HW258281   9.038   9.689   1.254 -0.2270  1.6903  0.6600
18165SOL     OW58282   6.396   0.749   1.613 -0.2438 -0.2337  0.7021
18165SOL    HW158283   6.349   0.831   1.628 -1.0050 -0.4721 -0.2338
18165SOL    HW258284   6.475   0.756   1.666  0.8256  2.0708 -1.0136
18166SOL     OW58285   4.436   9.841   3.269  0.3313  0.2069  0.8392
18166SOL    HW158286   4.416   9.753   3.300 -0.4342  0.5790  1.4254
18166SOL    HW258287   4.384   9.898   3.325  1.9397  1.1307  1.4644
18167SOL     OW58288   7.761   2.604   0.214 -0.2540 -0.7504 -0.0097
18167SOL    HW158289   7.738   2.512   0.225  1.8820 -1.2528  0.5887
18167SOL    HW258290   7.734   2.646   0.295  1.6271 -1.5015  1.0524
18168SOL     OW58291   1.195   9.720   8.891 -0.0378  0.0683  0.3784
18168SOL    HW158292   1.147   9.670   8.957 -0.1248 -1.4753 -0.7959
18168SOL    HW258293   1.128   9.751   8.830  0.3588 -3.4134 -2.1521
18169SOL     OW58294   4.110   6.088   8.066  0.0283  0.3818  0.5445
18169SOL    HW158295   4.043   6.123   8.124  0.0880 -0.4422  1.1264
18169SOL    HW258296   4.064   6.070   7.984 -0.1893  0.9607  0.5368
18170SOL     OW58297   8.368   6.820   4.840  0.1057  0.5023 -0.0489
18170SOL    HW158298   8.390   6.858   4.755  0.8332 -0.7617 -0.4492
18170SOL    HW258299   8.452   6.814   4.886  0.3018 -1.9558 -0.5876
18171SOL     OW58300   2.966   2.163   7.875 -0.1344  0.6546  0.2299
18171SOL    HW158301   2.929   2.104   7.940  0.4247  0.8750  0.7598
18171SOL    HW258302   2.904   2.236   7.871  0.4251  1.2215  1.4139
18172SOL     OW58303   5.871   7.574   9.025  0.3884  0.9367  0.6820
18172SOL    HW158304   5.779   7.595   9.045 -0.0999 -0.6939  0.2905
18172SOL    HW258305   5.913   7.568   9.110 -0.3967 -0.4757  0.9985
18173SOL     OW58306   5.672   3.454   9.848  0.0853  0.2967  0.0032
18173SOL    HW158307   5.581   3.441   9.823  0.6425 -0.2439 -1.9339
18173SOL    HW258308   5.702   3.367   9.874  0.3502  0.2120 -0.5538
18174SOL     OW58309   1.315   8.288   3.961  0.1608 -0.5538 -0.4280
18174SOL    HW158310   1.265   8.349   4.016 -0.3935  0.8770 -2.4131
18174SOL    HW258311   1.404   8.323   3.962  0.2499 -0.7827 -0.1145
18175SOL     OW58312   8.002   1.365   8.040 -0.3206 -0.0567 -0.3396
18175SOL    HW158313   8.038   1.380   7.953 -0.4263 -0.9573 -0.5397
18175SOL    HW258314   8.048   1.428   8.096 -0.5856  0.8436 -1.1137
18176SOL     OW58315   2.160   8.200   3.191 -0.0125  0.3007 -0.2507
18176SOL    HW158316   2.200   8.152   3.264 -1.5963  1.8379  1.7637
18176SOL    HW258317   2.230   8.256   3.158  0.8349 -0.6849 -0.1839
18177SOL     OW58318   6.914   5.939   3.899 -0.2381  0.2572  0.1928
18177SOL    HW158319   6.889   5.898   3.981  1.0321 -0.2520  0.3487
18177SOL    HW258320   6.940   5.866   3.842  1.3417  0.7639  0.2248
18178SOL     OW58321   6.764   4.170   2.845  0.6759  0.1148  0.4104
18178SOL    HW158322   6.748   4.216   2.927  0.5558  1.5043 -0.3583
18178SOL    HW258323   6.857   4.149   2.846  0.7438  0.4289  0.7563
18179SOL     OW58324   0.301   0.336   4.861  0.3789  0.2039  0.2889
18179SOL    HW158325   0.262   0.323   4.774 -0.0509  0.0961  0.4964
18179SOL    HW258326   0.286   0.428   4.881 -1.3285 -0.2138  1.1095
18180SOL     OW58327   3.872   8.492   1.093 -0.9357 -0.1149  0.2778
18180SOL    HW158328   3.782   8.463   1.108 -1.1726  0.7405  0.5665
18180SOL    HW258329   3.872   8.526   1.003 -1.6944  2.6376  1.2136
18181SOL     OW58330  10.023   9.066   2.154 -0.2695 -0.2914  0.2858
18181SOL    HW158331   9.998   9.017   2.076 -0.3035  1.2919 -0.7475
18181SOL    HW258332  10.019   9.157   2.127  1.4000  0.2328  1.6594
18182SOL     OW58333   3.772   7.081   1.971 -0.2792  1.1001  0.3010
18182SOL    HW158334   3.749   7.090   2.064  0.3528 -0.1734  0.5945
18182SOL    HW258335   3.698   7.033   1.933 -0.3802  1.3256  0.2095
18183SOL     OW58336   1.496   0.945   5.162 -0.9222 -0.3751  0.0670
18183SOL    HW158337   1.542   0.892   5.097 -0.5730 -0.4933  0.4113
18183SOL    HW258338   1.495   0.891   5.241 -2.3046 -0.7024 -0.1350
18184SOL     OW58339   2.974   6.189   8.847  0.3665 -0.1761  0.5448
18184SOL    HW158340   2.943   6.189   8.938 -0.3062 -1.9917  0.3519
18184SOL    HW258341   2.894   6.187   8.794  0.7537 -1.2040 -0.0323
18185SOL     OW58342   1.417   3.791   0.377 -0.0935 -0.8227  0.3026
18185SOL    HW158343   1.394   3.882   0.359  2.2144 -0.2765 -0.2573
18185SOL    HW258344   1.441   3.790   0.470  0.1164 -0.8098  0.2482
18186SOL     OW58345   4.307   1.426   0.183 -0.2057  0.3161 -0.0546
18186SOL    HW158346   4.243   1.416   0.253  0.9938 -1.0268  0.9002
18186SOL    HW258347   4.344   1.513   0.197 -0.0806  0.1217  0.9252
18187SOL     OW58348   7.860   5.538   4.676  0.5170 -0.1058  0.3180
18187SOL    HW158349   7.948   5.542   4.638 -0.3992  0.1909 -1.9383
18187SOL    HW258350   7.850   5.446   4.702  1.5305 -0.1062  0.7618
18188SOL     OW58351   2.893   8.693   8.417  0.4155  0.2817 -0.2644
18188SOL    HW158352   2.803   8.696   8.450 -0.2842  0.8060 -2.0828
18188SOL    HW258353   2.946   8.673   8.494 -1.5226 -3.3332  0.3581
18189SOL     OW58354   4.482   7.070   9.484  0.1350 -0.0978  0.0951
18189SOL    HW158355   4.489   6.981   9.519  1.2314  0.5604  1.6644
18189SOL    HW258356   4.552   7.118   9.527 -1.2558  1.8636  0.2863
18190SOL     OW58357   4.091   0.697  10.021 -0.4230 -0.4737  0.1394
18190SOL    HW158358   4.111   0.737  10.106 -2.0906  1.5495 -0.3454
18190SOL    HW258359   4.024   0.632  10.040 -1.5192  0.6697  0.2696
18191SOL     OW58360   9.874   7.138   4.044 -0.0251  0.5144  0.0101
18191SOL    HW158361   9.882   7.217   4.098 -0.9933  0.8495 -0.3012
18191SOL    HW258362   9.784   7.108   4.059 -0.2197  0.4598 -1.1897
18192SOL     OW58363   4.219   0.102   4.520  0.2248  0.2462 -0.0923
18192SOL    HW158364   4.128   0.080   4.500 -0.0939  0.0136  1.4643
18192SOL    HW258365   4.263   0.017   4.526  0.4490  0.3394 -0.4282
18193SOL     OW58366   7.593   5.628   4.791 -0.2821  0.2020  0.3914
18193SOL    HW158367   7.552   5.639   4.705  0.8864 -0.1007 -0.2356
18193SOL    HW258368   7.687   5.623   4.772 -0.0510 -0.6474  1.6103
18194SOL     OW58369   2.698   4.747   2.821  0.5043 -0.6090 -0.6401
18194SOL    HW158370   2.757   4.822   2.816  0.3211 -0.5266 -1.8231
18194SOL    HW258371   2.640   4.757   2.746 -1.1851 -0.5696  0.6268
18195SOL     OW58372   9.070   9.746   5.709 -0.2995  0.6021  0.5194
18195SOL    HW158373   8.996   9.762   5.649  0.6704 -1.1329 -1.2809
18195SOL    HW258374   9.071   9.651   5.720  0.8506  0.7240  1.6121
18196SOL     OW58375   8.384   8.876   0.490 -0.4993  0.0318 -0.1894
18196SOL    HW158376   8.430   8.874   0.573 -1.7554  1.6229  0.6028
18196SOL    HW258377   8.291   8.882   0.514 -1.0335 -1.2881 -1.7247
18197SOL     OW58378   4.094   0.534  10.257 -0.3465 -0.1117  0.4659
18197SOL    HW158379   4.156   0.501  10.322 -1.4596 -1.6209  0.8206
18197SOL    HW258380   4.025   0.575  10.309 -0.5340 -0.0504  0.1694
18198SOL     OW58381   9.148   9.474   4.899  0.1906 -0.5673 -0.1612
18198SOL    HW158382   9.210   9.479   4.826 -0.9815  1.6931 -1.1030
18198SOL    HW258383   9.070   9.433   4.861  0.1366 -0.8625  0.2624
18199SOL     OW58384   8.092   1.346   6.624 -0.3539  0.1872  0.0810
18199SOL    HW158385   8.104   1.273   6.684  0.9928 -1.3943 -1.9495
18199SOL    HW258386   8.019   1.321   6.568 -0.2744  0.6573 -0.2498
18200SOL     OW58387   7.988   1.181   2.507  0.8679 -0.3761 -0.3589
18200SOL    HW158388   7.924   1.117   2.537  1.0918 -0.5259 -0.1952
18200SOL    HW258389   7.943   1.231   2.439  0.4215 -0.1632  0.0879
18201SOL     OW58390   0.827   9.822   3.839 -0.3178 -0.1029  0.3503
18201SOL    HW158391   0.882   9.895   3.869 -0.0255  0.0041 -0.4339
18201SOL    HW258392   0.789   9.786   3.920  0.6210  0.0491  0.8698
18202SOL     OW58393   6.999   8.761  10.029 -0.2928  0.2998  0.2186
18202SOL    HW158394   7.007   8.671   9.996  1.2726 -0.0144  1.3195
18202SOL    HW258395   7.027   8.755  10.120  1.6968  2.1914 -0.1843
18203SOL     OW58396   5.595   2.293   3.768  0.5867 -0.0621  0.2027
18203SOL    HW158397   5.642   2.218   3.801 -1.2387 -0.2968  2.5034
18203SOL    HW258398   5.639   2.369   3.806  1.3787 -0.0280 -0.7410
18204SOL     OW58399   3.057   0.613   8.104 -0.6898 -0.1459 -0.2992
18204SOL    HW158400   3.088   0.523   8.100 -0.5545 -0.0982 -0.3195
18204SOL    HW258401   3.081   0.651   8.020 -2.2382 -0.5710 -0.9764
18205SOL     OW58402   9.573   9.439   6.058 -0.3913 -0.0815 -0.1053
18205SOL    HW158403   9.626   9.467   5.983  0.5215  0.2950  0.6503
18205SOL    HW258404   9.631   9.381   6.107 -1.0229 -0.4234  0.2371
18206SOL     OW58405   1.036   5.565   9.398  0.4541  0.1856 -0.3059
18206SOL    HW158406   1.029   5.549   9.492  1.5491 -3.3509 -0.6679
18206SOL    HW258407   1.128   5.549   9.377  0.3460  1.4430 -1.9242
18207SOL     OW58408   3.451   1.583   5.828 -0.3151  0.1419 -0.0426
18207SOL    HW158409   3.382   1.534   5.872 -0.1658  0.4787  0.5690
18207SOL    HW258410   3.472   1.530   5.751  0.2760 -1.0926  0.9290
18208SOL     OW58411   5.061   5.461   0.065  0.4092 -0.1693 -0.0203
18208SOL    HW158412   5.069   5.524   0.137  0.6362 -0.5869  0.3204
18208SOL    HW258413   5.149   5.427   0.053  0.8765  1.4684 -1.9429
18209SOL     OW58414   7.139   6.360   4.708 -0.7295  0.0567 -0.0338
18209SOL    HW158415   7.220   6.324   4.673 -1.5120 -0.0964 -1.7435
18209SOL    HW258416   7.127   6.442   4.661 -0.3123  1.3608  1.9984
18210SOL     OW58417   5.669   4.129   5.246 -0.4383 -0.2241 -0.0151
18210SOL    HW158418   5.680   4.182   5.167  2.5893  0.5489  0.7799
18210SOL    HW258419   5.647   4.042   5.214 -1.2213  0.5091 -1.5732
18211SOL     OW58420   1.327   1.611   0.193  0.3883 -0.0077 -0.4511
18211SOL    HW158421   1.315   1.568   0.277  1.5025 -0.4476 -0.5002
18211SOL    HW258422   1.305   1.544   0.128 -4.3317  1.3666 -0.6574
18212SOL     OW58423   4.246   5.377   8.192 -0.1312  0.6038  0.1146
18212SOL    HW158424   4.327   5.327   8.192 -0.5944 -0.1796 -0.7694
18212SOL    HW258425   4.185   5.326   8.246  0.3292  1.8680  1.9211
18213SOL     OW58426   8.992   3.921   3.774 -0.1178  0.2850 -0.3336
18213SOL    HW158427   8.945   3.891   3.852  0.6195  0.3816  0.1556
18213SOL    HW258428   8.950   3.874   3.702 -0.3911 -0.2940  0.1908
18214SOL     OW58429   4.708  10.172   5.799  0.4935  0.2990  0.0202
18214SOL    HW158430   4.732  10.082   5.778  1.5246  0.4733  0.4325
18214SOL    HW258431   4.613  10.168   5.813  0.3104 -0.4700 -1.2244
18215SOL     OW58432   9.081   4.930   4.962 -0.0598 -1.0073  0.4186
18215SOL    HW158433   9.133   4.854   4.937 -0.4907 -1.4280  0.7938
18215SOL    HW258434   9.146   4.998   4.981  0.3016 -0.9400 -0.9646
18216SOL     OW58435   9.544   3.711  10.264 -0.3670 -0.6243  0.5807
18216SOL    HW158436   9.480   3.688  10.331 -0.4475 -0.8464  0.4322
18216SOL    HW258437   9.500   3.778  10.211 -0.9723 -1.6481 -0.2653
18217SOL     OW58438   7.185   8.388   3.302 -0.5138  0.4194  0.7295
18217SOL    HW158439   7.180   8.351   3.390  0.7835 -0.9272  0.2716
18217SOL    HW258440   7.097   8.376   3.266 -0.2964 -1.7449  0.8097
18218SOL     OW58441   7.338   4.613   3.634 -0.1111 -0.4579 -0.1782
18218SOL    HW158442   7.255   4.597   3.590 -0.2426 -0.4481  0.0621
18218SOL    HW258443   7.316   4.615   3.727  0.4360 -2.2107  0.0197
18219SOL     OW58444   9.775   1.952   8.091  0.1438  0.0149  0.3408
18219SOL    HW158445   9.778   1.871   8.041  0.0797  1.0360 -1.4057
18219SOL    HW258446   9.867   1.975   8.106  0.1739 -1.0327  2.0402
18220SOL     OW58447  10.167   4.564   1.927  0.2002 -0.3491 -0.3184
18220SOL    HW158448  10.112   4.641   1.937  1.1635  0.6294 -2.0338
18220SOL    HW258449  10.250   4.588   1.967 -0.1482 -1.3398  1.0845
18221SOL     OW58450   9.393   0.169   9.378  0.3846 -0.4380  0.3129
18221SOL    HW158451   9.341   0.096   9.345  1.1835 -0.8781 -0.0107
18221SOL    HW258452   9.335   0.245   9.373 -1.3906 -1.4384  3.0818
18222SOL     OW58453   4.040   8.510   3.287 -0.1291  0.1266  0.0504
18222SOL    HW158454   4.118   8.466   3.254  0.6436  0.6249  1.1394
18222SOL    HW258455   3.970   8.485   3.227  0.8063 -0.5806 -0.7625
18223SOL     OW58456   4.429   1.806   2.264 -0.5678  0.0798  0.4237
18223SOL    HW158457   4.369   1.834   2.195  0.1865  0.2099 -0.1882
18223SOL    HW258458   4.371   1.771   2.333 -1.4131  1.2973  0.3603
18224SOL     OW58459   8.677   1.581   0.982 -0.5275 -0.1000 -0.0392
18224SOL    HW158460   8.594   1.608   1.023 -0.8500 -0.0705 -0.6973
18224SOL    HW258461   8.722   1.664   0.965 -1.1856  0.0085 -1.3679
18225SOL     OW58462   5.970   5.954   6.102  0.3122  0.3931 -0.3413
18225SOL    HW158463   5.879   5.961   6.073  0.3309  1.6120 -0.1838
18225SOL    HW258464   5.967   5.896   6.177 -0.6919  2.0639  0.9794
18226SOL     OW58465   2.919   1.491   1.870  0.0249  0.0586 -0.5239
18226SOL    HW158466   2.992   1.516   1.928 -0.0069 -1.0184  0.0047
18226SOL    HW258467   2.940   1.403   1.842 -0.9276 -0.1525 -0.6094
18227SOL     OW58468   1.996   8.148   3.957  0.1713  0.5140 -0.1005
18227SOL    HW158469   2.072   8.095   3.983 -0.1566  0.1568  0.1346
18227SOL    HW258470   1.950   8.092   3.894  0.9520  1.3566 -1.4803
18228SOL     OW58471   3.191   1.625   9.534  0.4901 -0.1550 -0.3974
18228SOL    HW158472   3.124   1.677   9.578  0.0602 -0.9782 -0.0431
18228SOL    HW258473   3.221   1.680   9.462 -0.3757  0.3445 -0.3966
18229SOL     OW58474   5.410   6.183   1.078 -0.1873 -0.8239  0.5876
18229SOL    HW158475   5.477   6.208   1.014 -0.1956 -0.3244  0.7661
18229SOL    HW258476   5.450   6.203   1.163  0.2601 -2.5163  0.8198
18230SOL     OW58477   9.518   6.624   2.578 -0.3884  0.0360 -0.3727
18230SOL    HW158478   9.583   6.694   2.578 -0.1846 -0.1546 -0.3804
18230SOL    HW258479   9.469   6.637   2.496  0.1922 -0.3326 -0.7875
18231SOL     OW58480   7.852   3.536   1.767  0.2220  0.0872  0.5555
18231SOL    HW158481   7.885   3.515   1.679 -0.1355 -0.1026  0.4666
18231SOL    HW258482   7.765   3.498   1.770 -0.1973  1.0342  0.6090
18232SOL     OW58483   2.178   3.513   2.823 -0.4613  0.8102 -0.0766
18232SOL    HW158484   2.207   3.522   2.732 -0.2178  1.4873  0.0625
18232SOL    HW258485   2.244   3.459   2.865 -2.4085 -2.7223 -1.1515
18233SOL     OW58486   3.487   7.141   2.755 -0.1043 -0.1982  0.0593
18233SOL    HW158487   3.484   7.125   2.850  0.8727  0.7736  0.2694
18233SOL    HW258488   3.396   7.131   2.726 -0.6386  0.7717  1.3167
18234SOL     OW58489   2.158   0.394   2.085 -0.0660 -0.3503  0.2479
18234SOL    HW158490   2.247   0.382   2.053  0.1924 -0.0548  0.8427
18234SOL    HW258491   2.111   0.433   2.012  0.7400  1.1658  0.5065
18235SOL     OW58492   2.875   6.050   2.934 -0.2701 -0.5857 -0.0165
18235SOL    HW158493   2.863   6.132   2.886 -1.4616 -1.9872 -2.2541
18235SOL    HW258494   2.814   6.057   3.007 -0.7850  0.2805 -0.5111
18236SOL     OW58495   6.477   4.867   3.241 -0.2415  0.0925  0.2265
18236SOL    HW158496   6.485   4.851   3.335  0.6587 -0.0850  0.1193
18236SOL    HW258497   6.481   4.781   3.201  2.3470  0.3449 -0.1802
18237SOL     OW58498   3.259   0.295   2.143 -0.1385  0.0593 -0.3309
18237SOL    HW158499   3.294   0.378   2.111 -0.1883 -0.1212 -0.8606
18237SOL    HW258500   3.196   0.268   2.076 -1.9821  0.8153  1.0088
18238SOL     OW58501   7.748   1.025   5.369  0.0550  0.3416 -0.2275
18238SOL    HW158502   7.716   0.966   5.301 -0.9179  0.2978  0.2574
18238SOL    HW258503   7.782   0.966   5.437  1.9552  0.3876 -1.0696
18239SOL     OW58504   2.885   0.111   4.171  0.2595  0.5722 -0.3158
18239SOL    HW158505   2.978   0.122   4.153  0.5774 -0.7478  0.4670
18239SOL    HW258506   2.881   0.064   4.254 -1.0780 -0.9269 -1.1794
18240SOL     OW58507   0.243   9.254   3.413 -0.1608  0.2297 -0.2512
18240SOL    HW158508   0.234   9.258   3.509  2.1654  0.4448  0.0088
18240SOL    HW258509   0.209   9.167   3.390 -1.0073  0.2797  0.7233
18241SOL     OW58510   3.570   1.430   9.246 -0.1270  0.2691 -0.4226
18241SOL    HW158511   3.614   1.368   9.188 -0.7396  0.0364 -0.6469
18241SOL    HW258512   3.528   1.376   9.312 -0.9086  0.4213 -0.7858
18242SOL     OW58513   7.318   4.370   2.275  0.5059  0.1107  0.0136
18242SOL    HW158514   7.313   4.347   2.182 -2.0987 -1.8013  0.5085
18242SOL    HW258515   7.340   4.463   2.275  0.1516  0.2811 -2.5266
18243SOL     OW58516   2.327   4.793   0.224 -0.1883  0.2444  0.0865
18243SOL    HW158517   2.311   4.717   0.168 -2.8872  0.7018  0.1460
18243SOL    HW258518   2.393   4.844   0.176  0.9132 -1.5703 -0.4442
18244SOL     OW58519   9.725   8.493   1.923 -0.3452  0.5076  0.1926
18244SOL    HW158520   9.761   8.473   2.010 -0.3830 -0.4637 -0.0033
18244SOL    HW258521   9.635   8.462   1.927 -0.7175  1.5732  0.1960
18245SOL     OW58522   6.901   3.209   2.636 -0.7212 -0.1433  0.2830
18245SOL    HW158523   6.966   3.203   2.705  1.3270  2.5603 -1.2123
18245SOL    HW258524   6.942   3.166   2.560 -0.6006  1.5884 -0.6790
18246SOL     OW58525   9.685  10.205   1.491 -0.2463  0.4335  0.5086
18246SOL    HW158526   9.623  10.203   1.418 -0.1503  0.0895  0.4374
18246SOL    HW258527   9.679  10.295   1.524  0.6341  0.9844 -0.7150
18247SOL     OW58528   7.863   7.685   9.692  0.0102  0.0377 -0.3313
18247SOL    HW158529   7.904   7.703   9.777  0.6851  0.2869 -0.6989
18247SOL    HW258530   7.934   7.697   9.629 -0.0056 -1.9231 -0.7859
18248SOL     OW58531   6.785   1.864   6.536 -0.3194 -0.1108  0.2529
18248SOL    HW158532   6.877   1.877   6.516 -0.1962 -1.3509 -0.0870
18248SOL    HW258533   6.753   1.950   6.563  0.4204  0.8129 -1.6603
18249SOL     OW58534   8.830   8.223   0.726  0.4140 -0.4776  0.0808
18249SOL    HW158535   8.778   8.178   0.793  1.6130 -1.6759  0.2574
18249SOL    HW258536   8.828   8.164   0.651 -1.6276  1.2291 -1.3496
18250SOL     OW58537   9.979   7.538   5.380  0.3218 -0.4822 -0.1011
18250SOL    HW158538   9.973   7.630   5.404  2.1412 -0.0296 -1.1619
18250SOL    HW258539   9.998   7.492   5.462  0.6621  0.2471  0.2339
18251SOL     OW58540   8.774   8.072   1.237  0.3028  0.2117 -0.5223
18251SOL    HW158541   8.758   8.135   1.307  2.2271 -0.7625  0.8893
18251SOL    HW258542   8.817   8.122   1.168  0.6667  0.7064  0.0582
18252SOL     OW58543   2.356   5.861   2.498 -0.2155 -0.0622  0.8951
18252SOL    HW158544   2.415   5.910   2.441 -1.0745 -2.0625 -1.8800
18252SOL    HW258545   2.407   5.784   2.524 -1.6540 -2.2330 -2.1867
18253SOL     OW58546   7.986   2.751   7.190 -0.4179  0.1679 -0.2191
18253SOL    HW158547   8.026   2.667   7.212 -0.7649  0.3871  1.3152
18253SOL    HW258548   7.912   2.728   7.134 -1.5848 -0.7295  1.6134
18254SOL     OW58549   8.985   7.983   0.562 -0.4257 -0.5358 -0.0592
18254SOL    HW158550   9.041   7.979   0.485 -0.4588  0.1916 -0.1248
18254SOL    HW258551   9.046   7.986   0.636 -0.3960 -1.5898 -0.0333
18255SOL     OW58552   5.082   0.126   9.035  0.0847 -0.0377  0.8673
18255SOL    HW158553   5.153   0.190   9.042  0.1158  0.1700 -0.9414
18255SOL    HW258554   5.118   0.047   9.074  1.1103  0.2346  0.5093
18256SOL     OW58555   9.125   2.358   0.431  0.2881  0.0033 -0.6870
18256SOL    HW158556   9.102   2.312   0.511 -0.9095  1.1511 -0.3455
18256SOL    HW258557   9.046   2.356   0.377  0.3563  1.1873 -0.8725
18257SOL     OW58558   4.545   3.319   5.645 -0.0379  0.4784  0.3434
18257SOL    HW158559   4.451   3.315   5.627 -0.0843 -0.4058  0.7294
18257SOL    HW258560   4.552   3.312   5.740  0.4025  0.9947  0.3552
18258SOL     OW58561   1.500   4.770   5.696  0.3189  0.4398 -0.3488
18258SOL    HW158562   1.490   4.714   5.619  0.4267  2.3968 -1.8727
18258SOL    HW258563   1.495   4.710   5.770 -1.5780 -1.3329 -1.7853
18259SOL     OW58564   7.533   7.854   6.753  0.0617 -0.1111  0.0168
18259SOL    HW158565   7.495   7.769   6.777 -0.6986  0.3922  0.6264
18259SOL    HW258566   7.512   7.863   6.660 -2.2158  0.5665  0.5195
18260SOL     OW58567   1.393   5.007   5.628  0.4387 -0.2961  0.1212
18260SOL    HW158568   1.424   4.920   5.653 -1.4438 -0.5723  1.8119
18260SOL    HW258569   1.314   5.020   5.681  1.3447  2.9888  0.8939
18261SOL     OW58570   9.783   1.980   2.155 -0.7078 -0.3839  0.5380
18261SOL    HW158571   9.847   2.016   2.216  0.1144 -0.7117 -0.1215
18261SOL    HW258572   9.729   1.922   2.209  0.3988 -1.1467  0.8584
18262SOL     OW58573   4.224   1.784   3.188  0.2018  0.1584 -0.6598
18262SOL    HW158574   4.208   1.833   3.108 -1.7904  0.1016 -0.3558
18262SOL    HW258575   4.216   1.850   3.258 -1.3158 -0.3198 -0.3331
18263SOL     OW58576   5.824   8.634   2.040  0.7531 -0.1363  0.3995
18263SOL    HW158577   5.786   8.722   2.036  1.0157 -0.0608 -1.3674
18263SOL    HW258578   5.919   8.650   2.044  1.0499 -0.2415 -3.2418
18264SOL     OW58579   3.708   6.633   6.597  0.1899 -0.6762 -0.1393
18264SOL    HW158580   3.630   6.674   6.558  0.3448  0.5627  0.7762
18264SOL    HW258581   3.692   6.539   6.588 -1.4101 -0.4584  0.0042
18265SOL     OW58582   5.495   3.161   4.148 -0.1045 -0.4801 -0.0014
18265SOL    HW158583   5.542   3.080   4.168 -0.1426 -0.5377 -0.1488
18265SOL    HW258584   5.404   3.142   4.171 -0.4812 -1.1374 -1.8665
18266SOL     OW58585   7.716   1.571   9.605 -0.3908  0.0756  0.1659
18266SOL    HW158586   7.649   1.523   9.558 -1.2091  0.3329  1.0414
18266SOL    HW258587   7.714   1.659   9.568 -1.8284  0.6050  1.4194
18267SOL     OW58588   6.044   5.727   4.594  0.1398 -0.3676  0.4246
18267SOL    HW158589   6.064   5.692   4.682  2.0449 -0.0678  0.1536
18267SOL    HW258590   6.128   5.723   4.548  0.2869  3.5981  0.0264
18268SOL     OW58591   2.406   6.816   1.488  0.7590  0.2074 -0.4013
18268SOL    HW158592   2.478   6.860   1.442  1.0691 -0.9693 -1.0867
18268SOL    HW258593   2.402   6.729   1.448  1.0512 -0.8780  1.8091
18269SOL     OW58594   5.015   5.350   0.939  0.3659  0.0637 -0.2524
18269SOL    HW158595   5.006   5.382   1.028 -1.1081  0.8820 -0.6606
18269SOL    HW258596   5.003   5.428   0.884 -0.8880 -0.7614 -1.2042
18270SOL     OW58597   7.764   6.099   0.422 -0.2612 -0.1160 -0.5373
18270SOL    HW158598   7.839   6.091   0.480 -0.4967 -0.6498 -0.3039
18270SOL    HW258599   7.691   6.123   0.479 -0.7405 -1.7311 -0.4162
18271SOL     OW58600   3.393   4.897   0.455  0.0901  0.4013  0.2835
18271SOL    HW158601   3.384   4.816   0.506  0.5433  0.0833 -0.1424
18271SOL    HW258602   3.479   4.890   0.414 -0.7900  0.0211 -1.6226
18272SOL     OW58603   8.447   0.586   4.663 -0.3393 -0.4399  0.0867
18272SOL    HW158604   8.444   0.512   4.602 -2.5692 -0.3250 -0.0006
18272SOL    HW258605   8.400   0.556   4.740  0.3030  0.2946  0.7863
18273SOL     OW58606   5.678   1.858   2.838 -0.1372 -0.2052 -0.4340
18273SOL    HW158607   5.765   1.855   2.798 -0.6491 -1.2323 -1.5461
18273SOL    HW258608   5.685   1.801   2.914 -0.0142 -0.8490 -0.9193
18274SOL     OW58609   2.663   7.304   2.672 -0.4128 -0.2727  0.3922
18274SOL    HW158610   2.623   7.268   2.751 -1.1569 -0.7198 -0.1751
18274SOL    HW258611   2.710   7.230   2.633 -0.8150 -0.2926 -0.0633
18275SOL     OW58612   5.709   4.085   5.791 -0.3361  0.3111  0.2288
18275SOL    HW158613   5.615   4.097   5.774  0.0436  1.1226 -1.6092
18275SOL    HW258614   5.741   4.039   5.713  0.9166  0.7456  0.4742
18276SOL     OW58615   5.095   1.087   9.840  0.0562 -0.3662  0.5556
18276SOL    HW158616   5.112   1.178   9.863  0.7433 -0.1772 -0.6281
18276SOL    HW258617   5.051   1.051   9.917 -1.1987  1.2383  0.6429
18277SOL     OW58618   8.422   6.971   1.231 -0.3622  0.6492  0.2765
18277SOL    HW158619   8.444   6.964   1.324 -0.3987  0.7956  0.2953
18277SOL    HW258620   8.504   6.952   1.186  0.0430  2.1087  0.3536
18278SOL     OW58621   3.925   1.579   7.289  0.4816 -0.4343  0.0641
18278SOL    HW158622   3.839   1.611   7.315  1.4089  1.4770  0.9911
18278SOL    HW258623   3.935   1.608   7.199  0.2872 -0.3449  0.0710
18279SOL     OW58624   0.152   5.406   2.031 -0.2675 -0.6748  0.9424
18279SOL    HW158625   0.114   5.476   1.978  0.0409 -3.3082 -3.2407
18279SOL    HW258626   0.077   5.362   2.070 -0.8512 -0.5056  0.0561
18280SOL     OW58627   5.397   2.268   1.147 -0.5534 -0.6750  0.6280
18280SOL    HW158628   5.454   2.220   1.086 -0.4015 -0.4932  0.6277
18280SOL    HW258629   5.354   2.199   1.198 -0.0343 -0.8008  0.8970
18281SOL     OW58630   6.559   8.788   4.370 -0.3264  0.5062  0.3851
18281SOL    HW158631   6.626   8.853   4.390  0.3521  0.0537 -0.3703
18281SOL    HW258632   6.498   8.832   4.311  0.9260  0.0495 -1.3113
18282SOL     OW58633   2.898   6.752   1.770 -0.3804 -0.2403 -0.0452
18282SOL    HW158634   2.964   6.774   1.704 -0.8887 -2.0376 -1.2198
18282SOL    HW258635   2.839   6.827   1.771  0.1576  0.2117 -0.9605
18283SOL     OW58636   5.038   3.617   9.910 -0.2227  0.6320  0.3986
18283SOL    HW158637   4.994   3.535   9.934 -1.6885  1.3064  0.1790
18283SOL    HW258638   5.085   3.597   9.829  0.4147 -0.2937  0.9949
18284SOL     OW58639   2.729   5.834   3.528  0.2129 -0.1797  0.8153
18284SOL    HW158640   2.691   5.835   3.616  0.8817 -1.1418  1.1340
18284SOL    HW258641   2.790   5.760   3.530  1.0567  0.4762 -0.1157
18285SOL     OW58642   5.435   9.270   4.282  0.1684  0.7996  0.2323
18285SOL    HW158643   5.400   9.258   4.194  0.7161  0.7508  0.0218
18285SOL    HW258644   5.358   9.267   4.339  0.1154 -4.5594  0.3768
18286SOL     OW58645   1.924   6.512   4.778 -0.6609 -0.0852 -0.3981
18286SOL    HW158646   1.851   6.572   4.761 -0.6150 -0.0979 -0.6444
18286SOL    HW258647   1.930   6.509   4.873 -0.7872  0.1532 -0.3804
18287SOL     OW58648   1.076   0.681   4.298 -0.6612 -0.2109 -0.0515
18287SOL    HW158649   0.986   0.713   4.303 -1.1642 -1.5367 -0.1810
18287SOL    HW258650   1.067   0.589   4.273  0.6812 -0.6663  1.0433
18288SOL     OW58651   5.893   3.798   7.875 -0.0679  0.3626  0.0641
18288SOL    HW158652   5.902   3.893   7.881  0.1856  0.2539  1.8595
18288SOL    HW258653   5.983   3.766   7.871 -0.1537  0.2384 -2.3692
18289SOL     OW58654   5.538   0.980   8.662  0.6450  0.0868  0.2842
18289SOL    HW158655   5.619   0.939   8.691  0.0320 -0.5839  1.0740
18289SOL    HW258656   5.508   0.926   8.589  2.0205  1.5910 -1.4879
18290SOL     OW58657   9.507   3.978   3.452 -0.3634 -0.0458 -0.3406
18290SOL    HW158658   9.451   3.901   3.440 -1.1943  0.6052 -0.7468
18290SOL    HW258659   9.516   4.014   3.364 -0.9293  0.9679  0.0087
18291SOL     OW58660   8.364   8.360   4.187  0.0115 -0.0177  0.4127
18291SOL    HW158661   8.269   8.373   4.178 -0.1321 -0.4509  1.1962
18291SOL    HW258662   8.381   8.375   4.280  0.7785  0.4249  0.2061
18292SOL     OW58663   2.708   0.258   7.773  0.1473  0.2874  0.0063
18292SOL    HW158664   2.724   0.308   7.854  0.4622  0.5038 -0.1851
18292SOL    HW258665   2.642   0.193   7.797  0.4695  0.1469  0.5194
18293SOL     OW58666   5.430   0.766   6.598  0.0850 -0.0342  0.2371
18293SOL    HW158667   5.524   0.748   6.594  0.2090  0.5180  0.5118
18293SOL    HW258668   5.410   0.770   6.692 -0.4087 -1.0980  0.1896
18294SOL     OW58669   0.910   5.367   1.364  0.0359  0.1900  0.7964
18294SOL    HW158670   0.869   5.453   1.356  0.6655  0.3769 -0.5555
18294SOL    HW258671   0.879   5.335   1.449 -0.5719  1.5438  1.1236
18295SOL     OW58672   0.147   7.471   5.321  0.5461  0.4283  0.0461
18295SOL    HW158673   0.198   7.538   5.368  1.4259 -0.7971  0.8983
18295SOL    HW258674   0.083   7.521   5.271  1.7953  1.9666 -0.0996
18296SOL     OW58675   8.538   1.741   1.533 -0.2223 -0.2062  1.1003
18296SOL    HW158676   8.601   1.793   1.584  0.1511 -1.9253  2.5068
18296SOL    HW258677   8.590   1.667   1.499 -0.8152  0.0821 -0.5191
18297SOL     OW58678   9.626   7.800   0.778  0.0252  0.5245  0.8952
18297SOL    HW158679   9.688   7.823   0.709 -0.2069 -0.3238  0.3855
18297SOL    HW258680   9.675   7.742   0.836  0.3884  1.6702  1.7679
18298SOL     OW58681   1.073   6.718   4.326  0.1139 -0.2271  0.3473
18298SOL    HW158682   1.080   6.694   4.418  1.2213 -2.5176 -0.2488
18298SOL    HW258683   1.153   6.767   4.308  1.4115 -2.3570 -0.0174
18299SOL     OW58684   0.954  10.052   0.763 -0.3349  0.1681 -0.3466
18299SOL    HW158685   0.969   9.990   0.834 -1.3580  1.4548  1.0501
18299SOL    HW258686   0.873  10.022   0.722  0.6277 -0.9925 -1.4932
18300SOL     OW58687   3.777   3.190   8.225 -0.5175  0.4932  0.3462
18300SOL    HW158688   3.747   3.235   8.146 -0.4291  1.3727  0.8033
18300SOL    HW258689   3.868   3.218   8.235  0.1207 -1.2291 -0.3724
18301SOL     OW58690   9.769   8.420   5.362 -0.1547  0.4099 -0.0355
18301SOL    HW158691   9.687   8.375   5.343  0.2093 -0.1455 -0.3029
18301SOL    HW258692   9.742   8.506   5.394 -0.8620 -0.0624  0.6835
18302SOL     OW58693   0.075   9.007   1.467 -0.3303 -0.0540 -0.0430
18302SOL    HW158694   0.146   9.049   1.418  0.7742  1.0711  2.3382
18302SOL    HW258695  -0.003   9.057   1.444 -0.3036 -0.9150 -2.2238
18303SOL     OW58696   8.948   5.214   8.881 -0.0503  0.1859  0.2261
18303SOL    HW158697   8.854   5.197   8.873  0.0687  0.1024 -1.2571
18303SOL    HW258698   8.967   5.278   8.813  1.3209 -1.3502 -0.9230
18304SOL     OW58699   7.230   3.552   1.857  0.3170 -0.6750 -0.3093
18304SOL    HW158700   7.313   3.587   1.827  0.9443  0.3758  2.3513
18304SOL    HW258701   7.254   3.475   1.909 -0.3644 -0.4508  0.3581
18305SOL     OW58702   2.492   1.467   0.633  0.3630  0.0883  0.2150
18305SOL    HW158703   2.587   1.473   0.642  0.5195 -0.5238 -0.7667
18305SOL    HW258704   2.457   1.488   0.719  1.4327 -0.5778  0.8307
18306SOL     OW58705  10.073   3.726   8.088 -0.3614 -0.4257 -0.1020
18306SOL    HW158706  10.081   3.638   8.050  0.4578 -0.4991  0.2173
18306SOL    HW258707  10.102   3.785   8.019 -0.3964 -0.4412 -0.1306
18307SOL     OW58708   1.192   9.943   2.598  0.1950 -0.2609 -0.5405
18307SOL    HW158709   1.178   9.949   2.504 -0.8125  1.6775 -0.3188
18307SOL    HW258710   1.273   9.892   2.608 -0.2155 -1.3194 -2.3922
18308SOL     OW58711   3.457   1.279   1.829  0.3179 -0.1994 -0.2629
18308SOL    HW158712   3.413   1.359   1.801 -0.0137 -0.6615 -1.1002
18308SOL    HW258713   3.431   1.268   1.921  3.1581  2.5084  1.0577
18309SOL     OW58714   3.207   9.878   0.317  0.6322  0.9063 -0.4253
18309SOL    HW158715   3.264   9.886   0.394  1.6817 -0.3941 -1.0314
18309SOL    HW258716   3.241   9.802   0.270 -1.8058 -0.1312 -0.6593
18310SOL     OW58717   4.668   8.088   3.822 -0.5176 -0.3175 -0.0283
18310SOL    HW158718   4.702   8.160   3.769 -1.5596 -0.7449 -1.3479
18310SOL    HW258719   4.738   8.023   3.822 -0.5583 -0.3826 -1.0755
18311SOL     OW58720   1.989   8.889   0.480  0.0114 -0.3612 -0.0659
18311SOL    HW158721   1.921   8.944   0.517 -0.0739  0.7326 -1.7587
18311SOL    HW258722   2.063   8.896   0.542 -1.5554 -2.1862  2.2159
18312SOL     OW58723   5.115   7.271   2.577 -0.4261 -0.2031 -0.5379
18312SOL    HW158724   5.110   7.278   2.672 -2.1009 -1.4617 -0.4912
18312SOL    HW258725   5.201   7.307   2.555 -0.9390  2.3535  1.1969
18313SOL     OW58726   1.664   0.075   6.183 -0.5023  0.7289 -0.4178
18313SOL    HW158727   1.631   0.161   6.158 -2.6140  0.2432  0.4438
18313SOL    HW258728   1.677   0.029   6.101 -1.4250  1.1783 -0.8289
18314SOL     OW58729   0.862   6.414   8.201 -0.3744 -0.3544 -0.1974
18314SOL    HW158730   0.793   6.380   8.145 -1.3912  0.2487  0.6436
18314SOL    HW258731   0.935   6.353   8.190 -1.7629 -2.2440  0.4902
18315SOL     OW58732   8.538   5.941   1.243  0.2371  0.1358  0.0551
18315SOL    HW158733   8.598   5.881   1.286 -0.7726  0.3254  1.8120
18315SOL    HW258734   8.588   5.977   1.170  2.8381  1.4976  2.3373
18316SOL     OW58735   6.708   9.697   6.678  0.2685 -0.0286 -0.5476
18316SOL    HW158736   6.738   9.787   6.672  0.5892 -0.2277 -2.3933
18316SOL    HW258737   6.787   9.644   6.667  0.1345 -0.5668  0.8151
18317SOL     OW58738   1.703   2.285   7.394  0.1506 -0.5314 -0.6186
18317SOL    HW158739   1.734   2.283   7.304 -2.5706  0.2416 -1.6805
18317SOL    HW258740   1.759   2.223   7.441  1.7732 -0.7895 -2.7519
18318SOL     OW58741   3.318   2.199  10.333  0.4980 -0.3045  0.0464
18318SOL    HW158742   3.289   2.198  10.424  0.3374  1.4345  0.0360
18318SOL    HW258743   3.255   2.256  10.288  1.8688  0.6916 -0.6839
18319SOL     OW58744   6.873   3.547   3.818  0.5195  0.2583  0.4556
18319SOL    HW158745   6.872   3.559   3.723 -0.5842  0.2123  0.4590
18319SOL    HW258746   6.954   3.498   3.835  1.4603  1.4827 -0.2983
18320SOL     OW58747   0.685   6.246   6.460  0.1321  0.4777 -0.3360
18320SOL    HW158748   0.661   6.304   6.388 -0.4858  0.1806 -0.3728
18320SOL    HW258749   0.685   6.302   6.537  0.4815  0.7287 -0.5159
18321SOL     OW58750   6.827   9.410   2.973  0.4764  0.1380 -0.1360
18321SOL    HW158751   6.756   9.358   3.009 -0.0516 -0.0852 -1.4547
18321SOL    HW258752   6.893   9.346   2.946  0.3607  0.2217 -0.6269
18322SOL     OW58753   6.305   6.894   5.361  0.3642 -0.4774  0.4515
18322SOL    HW158754   6.305   6.920   5.269  0.1765 -0.8240  0.3519
18322SOL    HW258755   6.393   6.913   5.392 -0.2220  1.9413  0.8542
18323SOL     OW58756   5.732   4.295   9.416  0.3401 -0.2785  0.2869
18323SOL    HW158757   5.760   4.243   9.492 -0.8476  1.3075  1.9071
18323SOL    HW258758   5.786   4.374   9.421 -0.6160  0.3860  0.2292
18324SOL     OW58759   6.278   0.031   2.479 -0.1024  0.1562  0.1340
18324SOL    HW158760   6.346  -0.016   2.526  0.2559  0.3075 -0.2285
18324SOL    HW258761   6.323   0.108   2.442 -0.1131 -0.5496 -1.4137
18325SOL     OW58762   1.281   4.947   6.575  0.3276 -0.3979  0.2770
18325SOL    HW158763   1.280   5.036   6.609 -0.0012 -0.5816  0.7563
18325SOL    HW258764   1.322   4.955   6.489  0.9448  0.1114  0.6039
18326SOL     OW58765   2.716   8.891   8.764 -0.0312  0.5342 -0.2881
18326SOL    HW158766   2.737   8.832   8.837  1.6153  0.1236 -1.0380
18326SOL    HW258767   2.670   8.837   8.701  0.3647  0.3627 -0.4318
18327SOL     OW58768   0.554   2.591   9.730 -0.1526  0.1543 -0.3491
18327SOL    HW158769   0.465   2.600   9.764  0.9263 -0.9159  3.1401
18327SOL    HW258770   0.575   2.677   9.694 -1.7561  1.1821  1.0276
18328SOL     OW58771   1.741   8.606   8.329 -0.6247  0.3609  0.6834
18328SOL    HW158772   1.776   8.600   8.240  1.2702  0.4552  1.3905
18328SOL    HW258773   1.720   8.699   8.340 -1.6671  0.2220  0.0814
18329SOL     OW58774   0.827   4.316   7.707  0.6038 -1.0966  0.0844
18329SOL    HW158775   0.902   4.258   7.692 -0.4430 -2.6142  0.5411
18329SOL    HW258776   0.811   4.310   7.801  0.1961 -0.4075  0.0636
18330SOL     OW58777   7.042   1.924   7.570 -0.5402  0.1389  0.1881
18330SOL    HW158778   7.027   2.018   7.559 -2.1616 -0.0908  0.1822
18330SOL    HW258779   7.093   1.899   7.493  0.0921  1.0366  0.2934
18331SOL     OW58780   9.923   2.646   6.350  0.3102  0.0273 -0.1471
18331SOL    HW158781   9.876   2.581   6.402  0.1405  0.3976  0.1720
18331SOL    HW258782   9.902   2.730   6.392  1.1619  0.2109 -0.0812
18332SOL     OW58783   9.125   0.856   4.697  0.7186 -0.1783 -0.2753
18332SOL    HW158784   9.075   0.903   4.629  1.8219  1.5131  0.0384
18332SOL    HW258785   9.181   0.923   4.737  1.6915 -1.5934  0.8321
18333SOL     OW58786   9.799   0.405   2.712 -0.3715  0.4130 -0.1381
18333SOL    HW158787   9.820   0.486   2.665 -1.7864  0.6988 -0.3079
18333SOL    HW258788   9.868   0.398   2.779  0.0247  1.5073 -0.4125
18334SOL     OW58789   6.788   1.417   8.750 -0.0288 -0.3172 -0.0990
18334SOL    HW158790   6.803   1.448   8.839  0.9383 -0.1179 -0.3106
18334SOL    HW258791   6.693   1.409   8.742 -0.2224  1.0928  0.4769
18335SOL     OW58792   8.449   1.356   5.724 -0.1078 -0.2699 -0.0294
18335SOL    HW158793   8.444   1.313   5.809 -0.4978 -1.0541 -0.4434
18335SOL    HW258794   8.359   1.354   5.690 -0.8502  3.5672  1.2229
18336SOL     OW58795   1.846   6.013   9.924 -0.3793 -0.0273 -0.0584
18336SOL    HW158796   1.937   6.014   9.895 -0.6952  1.4229 -1.1369
18336SOL    HW258797   1.795   6.008   9.844 -1.2761 -1.4565  0.5622
18337SOL     OW58798   5.063   1.530   5.597  0.0387  0.3460 -0.0569
18337SOL    HW158799   5.055   1.625   5.587  0.5104  0.3628 -0.3117
18337SOL    HW258800   5.157   1.514   5.599 -0.0066 -0.2291 -1.2467
18338SOL     OW58801   4.197   8.366   9.082  0.2064  0.1608  0.0335
18338SOL    HW158802   4.123   8.340   9.136  0.5627  1.3092  1.1168
18338SOL    HW258803   4.235   8.284   9.052 -0.7157 -0.4701  0.5380
18339SOL     OW58804   3.953   1.188   2.413  0.2444 -0.3293  0.0868
18339SOL    HW158805   4.000   1.239   2.479 -1.6732  0.2602  1.0561
18339SOL    HW258806   3.932   1.251   2.344 -0.1414 -0.3173  0.2136
18340SOL     OW58807   0.393   3.898   8.339 -0.1518 -0.3070 -0.0489
18340SOL    HW158808   0.371   3.892   8.431 -0.0376 -2.3645 -0.1044
18340SOL    HW258809   0.365   3.814   8.302  2.2053 -0.6058 -1.3321
18341SOL     OW58810   9.850   5.867   3.711  0.4297 -0.5344 -0.2447
18341SOL    HW158811   9.792   5.940   3.732  0.0331 -0.5053 -1.3502
18341SOL    HW258812   9.806   5.821   3.639  1.6815 -0.6091 -1.0057
18342SOL     OW58813   7.959   0.180   2.886  0.2066  0.2014 -0.1375
18342SOL    HW158814   7.994   0.268   2.897 -0.8736  0.4192  2.4862
18342SOL    HW258815   7.868   0.194   2.861  0.8581 -0.3101 -3.1860
18343SOL     OW58816   6.174   8.069   4.626 -0.3024 -0.5515 -0.1278
18343SOL    HW158817   6.206   7.999   4.683 -0.3158 -0.6882 -0.2903
18343SOL    HW258818   6.196   8.150   4.674 -1.6995 -0.6978  0.8168
18344SOL     OW58819   9.540   3.765   4.371  0.4008  1.0354  0.7234
18344SOL    HW158820   9.471   3.699   4.369  0.4896  0.9630 -0.2682
18344SOL    HW258821   9.622   3.714   4.368  0.4807  1.1715 -1.6931
18345SOL     OW58822   5.790   9.541   2.925 -0.1004 -0.2653  0.0648
18345SOL    HW158823   5.784   9.608   2.994 -0.0477  2.6142 -2.5251
18345SOL    HW258824   5.882   9.544   2.897 -0.5391  0.0220 -1.3970
18346SOL     OW58825   7.350   6.802   8.691 -0.1417  0.5862 -0.1769
18346SOL    HW158826   7.348   6.873   8.756 -1.7359 -0.8651  1.4726
18346SOL    HW258827   7.399   6.838   8.617  0.3199  2.8940  1.1653
18347SOL     OW58828   0.993   0.588   9.891  0.0652 -0.5338  0.1192
18347SOL    HW158829   0.900   0.597   9.912  0.3421  1.8386  0.7317
18347SOL    HW258830   1.023   0.514   9.944 -1.4258 -1.2375  0.0238
18348SOL     OW58831   2.284   0.695   6.854 -0.1964  0.1888 -0.4262
18348SOL    HW158832   2.352   0.757   6.880 -0.4828  0.8006 -1.0781
18348SOL    HW258833   2.297   0.683   6.760  0.0440 -0.9995 -0.2579
18349SOL     OW58834   3.282   8.812   9.765 -0.1606 -0.0697  0.1031
18349SOL    HW158835   3.210   8.754   9.739  0.6603 -0.2771 -1.8758
18349SOL    HW258836   3.336   8.758   9.823 -0.3204 -0.7512 -0.3635
18350SOL     OW58837   6.129   9.806   0.928 -0.0203 -0.9942 -0.2682
18350SOL    HW158838   6.215   9.847   0.919 -0.7556  0.4000 -1.2669
18350SOL    HW258839   6.111   9.806   1.022 -0.0040  1.0384 -0.2408
18351SOL     OW58840   1.788   3.984   8.317 -0.1496 -0.1996  0.2580
18351SOL    HW158841   1.711   3.941   8.279 -0.0636  0.7420 -1.0589
18351SOL    HW258842   1.754   4.062   8.359  0.0506  0.1248 -0.1706
18352SOL     OW58843   7.213   7.579   7.331  0.7024 -0.0851 -0.3381
18352SOL    HW158844   7.190   7.578   7.238 -0.6059 -0.5291 -0.0256
18352SOL    HW258845   7.243   7.668   7.347 -1.4811  0.7760 -0.6432
18353SOL     OW58846   3.556   3.603   8.069  0.1376  0.0364 -0.4039
18353SOL    HW158847   3.610   3.533   8.032  3.1651  2.6636 -1.4297
18353SOL    HW258848   3.569   3.596   8.163  1.0650 -0.3418 -0.5507
18354SOL     OW58849   6.538  10.342   7.079  0.3895  0.0911 -0.2681
18354SOL    HW158850   6.587  10.265   7.050  1.6477  0.0284  1.8108
18354SOL    HW258851   6.508  10.319   7.167 -1.1462  1.1537 -0.4848
18355SOL     OW58852   4.034   6.220   2.981 -0.5572  1.1898  0.2706
18355SOL    HW158853   3.941   6.205   2.966 -0.6125 -1.0710  2.2484
18355SOL    HW258854   4.078   6.170   2.913 -0.7879  1.2844  0.0525
18356SOL     OW58855   7.759   9.275   3.013  0.2906 -0.1492  0.1615
18356SOL    HW158856   7.717   9.191   2.994  0.7156  0.2124 -2.8614
18356SOL    HW258857   7.688   9.339   3.006  0.1887 -0.0859  1.3993
18357SOL     OW58858   4.325   0.645   3.411 -0.0572  0.5917  0.2898
18357SOL    HW158859   4.361   0.562   3.442  0.1293  0.5944  0.0796
18357SOL    HW258860   4.267   0.674   3.482 -1.3503 -0.4838 -0.2945
18358SOL     OW58861   5.582   5.303   8.475 -0.0317  0.0186 -0.6214
18358SOL    HW158862   5.591   5.398   8.472 -1.6417  0.2480  0.5950
18358SOL    HW258863   5.492   5.288   8.503  0.0662 -1.8820 -1.1952
18359SOL     OW58864   4.041   3.125   9.246 -0.4280  0.1489 -0.0173
18359SOL    HW158865   3.968   3.066   9.225  0.1021 -0.1991 -0.9759
18359SOL    HW258866   4.083   3.085   9.322 -1.1820  0.3119  0.4943
18360SOL     OW58867   3.537   6.142   7.064 -0.1452  0.7464 -0.2111
18360SOL    HW158868   3.565   6.196   7.138 -0.7009 -0.6589  1.0776
18360SOL    HW258869   3.616   6.098   7.035 -0.1914  0.1585  0.5365
18361SOL     OW58870   7.997   7.427   4.727 -0.2806 -0.6726 -0.1237
18361SOL    HW158871   8.052   7.350   4.737  0.5820  0.0929  1.4336
18361SOL    HW258872   8.047   7.486   4.671  1.2126  0.5620  2.3319
18362SOL     OW58873   9.646   6.357   1.899 -0.1760  0.3784  0.5341
18362SOL    HW158874   9.625   6.316   1.983 -0.2500 -0.1955  0.2429
18362SOL    HW258875   9.721   6.308   1.866 -0.4789  0.2434  0.0230
18363SOL     OW58876   3.268   8.811   1.507  0.2558 -0.1468  0.0291
18363SOL    HW158877   3.298   8.767   1.427 -2.4224  0.5927 -1.5373
18363SOL    HW258878   3.294   8.752   1.578  2.3244 -1.0732 -1.4077
18364SOL     OW58879   4.300   4.985   8.014 -0.5146  0.0040 -0.5082
18364SOL    HW158880   4.225   4.930   8.034  0.3191 -1.3685 -1.0402
18364SOL    HW258881   4.344   4.998   8.098 -0.9071  0.1587 -0.3254
18365SOL     OW58882   4.163   5.573   8.008 -0.0209  0.1081  0.7290
18365SOL    HW158883   4.177   5.514   8.083  1.3326  0.6071  0.8979
18365SOL    HW258884   4.076   5.549   7.975 -0.7106 -0.0501  2.5251
18366SOL     OW58885   0.382   9.190   8.865  0.3364 -0.3313  0.4244
18366SOL    HW158886   0.443   9.119   8.845 -0.3213 -0.8088  0.0980
18366SOL    HW258887   0.320   9.190   8.792 -0.6854 -0.5436  1.2755
18367SOL     OW58888   4.856   0.263   0.461 -0.3440 -0.1450  0.3194
18367SOL    HW158889   4.898   0.177   0.467  1.3151  0.3788 -2.2718
18367SOL    HW258890   4.929   0.325   0.455 -1.4615  1.0994 -1.3024
18368SOL     OW58891   6.131   3.475   8.368 -0.3120 -0.5560 -0.3820
18368SOL    HW158892   6.057   3.414   8.369  0.5579 -1.6513  0.7428
18368SOL    HW258893   6.143   3.497   8.276 -1.3513 -1.2078 -0.6961
18369SOL     OW58894   7.577   7.792   3.779 -0.9449  0.1528  0.2719
18369SOL    HW158895   7.519   7.785   3.855 -1.8098  0.1275 -0.3757
18369SOL    HW258896   7.653   7.840   3.811 -0.7728 -0.8693  1.4484
18370SOL     OW58897   4.410   2.379   0.969  0.2433  0.4024  0.1754
18370SOL    HW158898   4.490   2.404   1.014  0.5926 -0.4771  0.0613
18370SOL    HW258899   4.409   2.283   0.972 -0.6821  0.3904 -0.0357
18371SOL     OW58900   5.864   2.303  10.072  0.5135 -0.4005  0.3849
18371SOL    HW158901   5.945   2.321  10.024  0.5335  1.3091  0.9597
18371SOL    HW258902   5.833   2.390  10.100 -0.7881 -1.1305  1.3560
18372SOL     OW58903   3.232   6.996   6.118 -0.2411  0.2554 -0.7163
18372SOL    HW158904   3.200   7.066   6.062  2.1673  1.3783 -0.8239
18372SOL    HW258905   3.207   7.021   6.207  0.7949  1.4307 -0.7275
18373SOL     OW58906   3.158   7.963   2.889 -0.1181 -0.3088 -0.2274
18373SOL    HW158907   3.101   8.003   2.823 -1.3952 -0.9037  0.4612
18373SOL    HW258908   3.179   7.877   2.853  2.2208  0.6837 -1.4806
18374SOL     OW58909   8.264   1.491   1.434 -0.4551  0.1575  0.3404
18374SOL    HW158910   8.213   1.411   1.448  0.1904 -0.3395 -0.0649
18374SOL    HW258911   8.314   1.501   1.516 -1.3720  0.7841  0.8354
18375SOL     OW58912   3.769   3.311   5.251 -0.0039 -0.1181  0.2931
18375SOL    HW158913   3.849   3.286   5.297 -0.0626  0.9071  0.9848
18375SOL    HW258914   3.797   3.331   5.162  0.2131 -1.4954  0.0266
18376SOL     OW58915   0.891   2.410   7.767  0.2704 -0.9294  0.2815
18376SOL    HW158916   0.904   2.317   7.749  0.4933 -0.8736  0.1548
18376SOL    HW258917   0.917   2.454   7.687 -1.8186 -0.8776 -0.4150
18377SOL     OW58918   2.191   4.634   6.902 -0.2897 -0.0790  0.0427
18377SOL    HW158919   2.220   4.725   6.913 -1.3475  0.2604  0.1732
18377SOL    HW258920   2.186   4.600   6.991  0.0864 -0.2683 -0.0053
18378SOL     OW58921   0.696   3.329   7.586  0.1438 -0.4127  0.1109
18378SOL    HW158922   0.766   3.390   7.608  0.1948 -0.3971 -0.0957
18378SOL    HW258923   0.724   3.246   7.624  0.4007 -0.4687 -0.2068
18379SOL     OW58924   8.196   9.957   9.504 -0.2733  0.1289  0.2542
18379SOL    HW158925   8.134   9.983   9.572 -0.3765 -1.2761  0.7376
18379SOL    HW258926   8.260  10.028   9.502 -0.1338  0.1084  2.0010
18380SOL     OW58927   7.157   7.879   7.908 -0.5623 -0.1821  0.7248
18380SOL    HW158928   7.118   7.960   7.874  1.2314  1.2731  1.9341
18380SOL    HW258929   7.194   7.836   7.831 -3.2358 -0.9530 -0.2475
18381SOL     OW58930   9.275   1.813   3.959  0.0141  0.6296 -0.6890
18381SOL    HW158931   9.366   1.802   3.933  0.7797  1.3641  1.4974
18381SOL    HW258932   9.268   1.905   3.984 -1.1767  0.4299 -0.2075
18382SOL     OW58933   9.640   0.406   6.368 -0.4714 -0.0422 -0.6516
18382SOL    HW158934   9.574   0.414   6.437 -0.9412 -0.9314 -0.9851
18382SOL    HW258935   9.605   0.459   6.296 -1.0755 -0.9020 -1.0050
18383SOL     OW58936   1.430   6.401   5.663 -0.0946 -0.8400 -0.0814
18383SOL    HW158937   1.425   6.494   5.639  0.0037 -1.1411 -1.3389
18383SOL    HW258938   1.440   6.401   5.758  2.2232  0.5115 -0.2531
18384SOL     OW58939   7.480   7.275   2.981  0.1300  0.0604  0.2954
18384SOL    HW158940   7.393   7.286   3.021  1.0467  0.4273  2.3274
18384SOL    HW258941   7.477   7.188   2.941 -1.1102 -0.0014  0.4788
18385SOL     OW58942   2.577   8.293   7.774 -0.3490 -0.0618 -0.7137
18385SOL    HW158943   2.568   8.319   7.682  0.2712  1.3064 -0.4160
18385SOL    HW258944   2.659   8.243   7.777 -0.0123  0.4799 -0.7936
18386SOL     OW58945   1.189  10.232   9.724  0.2230  0.0926  0.1462
18386SOL    HW158946   1.225  10.155   9.679  0.5697  0.9109 -1.0322
18386SOL    HW258947   1.191  10.209   9.816  1.6504 -0.7832 -0.0735
18387SOL     OW58948   3.492   2.599   8.265 -0.4664 -0.2543  0.1143
18387SOL    HW158949   3.398   2.586   8.279 -0.6770 -0.1003 -1.0994
18387SOL    HW258950   3.513   2.678   8.315 -1.0298 -0.1588  0.2057
18388SOL     OW58951   1.182   5.208   8.417  0.6099  0.3150  0.0259
18388SOL    HW158952   1.167   5.302   8.410  0.0637  0.2493  0.2458
18388SOL    HW258953   1.186   5.177   8.327  0.1232  0.4533 -0.0482
18389SOL     OW58954   3.489   2.626   4.894  0.3374 -0.4433 -0.7545
18389SOL    HW158955   3.575   2.614   4.935  0.0968 -1.1234 -0.4354
18389SOL    HW258956   3.462   2.538   4.868 -0.0986 -0.1861 -1.2022
18390SOL     OW58957   0.160   9.156   0.120 -0.0486 -0.5416  0.5478
18390SOL    HW158958   0.231   9.091   0.114 -0.4934 -0.9471 -1.0483
18390SOL    HW258959   0.092   9.113   0.172 -0.3587 -1.4349 -0.5363
18391SOL     OW58960   2.993   5.243   8.503 -0.6985 -0.4682 -0.2576
18391SOL    HW158961   2.967   5.151   8.503 -1.0780 -0.3690  0.9651
18391SOL    HW258962   3.012   5.263   8.595 -3.7949  1.5695  0.0640
18392SOL     OW58963   0.384   6.903   0.460 -0.2492  0.1465 -0.1728
18392SOL    HW158964   0.356   6.967   0.527  0.4464  1.0039 -0.6837
18392SOL    HW258965   0.397   6.822   0.509  0.6607  0.8700  0.8221
18393SOL     OW58966   1.794   1.546   4.457 -0.1188  0.2027  0.1353
18393SOL    HW158967   1.702   1.518   4.456 -0.5214  1.4641  0.3212
18393SOL    HW258968   1.792   1.633   4.496  1.2306  0.0340  0.6204
18394SOL     OW58969   4.446   4.862   4.181 -0.7154 -0.6893 -0.4784
18394SOL    HW158970   4.385   4.847   4.253 -0.2797 -0.9397 -0.1617
18394SOL    HW258971   4.401   4.925   4.125 -1.0776 -0.5316 -0.0158
18395SOL     OW58972   2.314   1.086   5.549 -0.4321 -0.1797  0.3936
18395SOL    HW158973   2.271   1.063   5.631  2.6410  0.1834  2.2801
18395SOL    HW258974   2.362   1.007   5.524  0.5863  0.4460  0.3131
18396SOL     OW58975   5.322   8.793   4.442 -0.0642 -0.5514  0.6252
18396SOL    HW158976   5.317   8.708   4.398  0.2855 -0.8038  1.0674
18396SOL    HW258977   5.350   8.854   4.374  0.7031 -0.9834  0.5503
18397SOL     OW58978   9.837   2.365   1.354 -0.2847  0.1745 -0.4398
18397SOL    HW158979   9.883   2.441   1.318  0.3000 -0.3084 -0.7299
18397SOL    HW258980   9.904   2.316   1.401 -0.8139  0.2210  0.3961
18398SOL     OW58981   8.543   6.924   2.222 -0.2042  0.5642  0.5170
18398SOL    HW158982   8.468   6.890   2.271  0.4318  0.0663  1.1506
18398SOL    HW258983   8.532   7.019   2.225 -1.0822  0.4882  0.1641
18399SOL     OW58984   3.022   7.319   8.235 -0.1563  0.1076 -0.1883
18399SOL    HW158985   2.986   7.407   8.244 -1.0135 -0.1812 -0.6517
18399SOL    HW258986   3.090   7.314   8.302 -0.2019  1.0673 -0.0561
18400SOL     OW58987   4.428   2.576   8.938  0.0830 -0.4719  0.0949
18400SOL    HW158988   4.516   2.614   8.940 -1.3031  3.3330  3.0084
18400SOL    HW258989   4.379   2.633   8.879 -1.9924  2.6660  4.3187
18401SOL     OW58990   2.267   2.308   9.400 -0.5515 -0.6146  0.5150
18401SOL    HW158991   2.204   2.306   9.329 -0.2977  0.9805  0.1932
18401SOL    HW258992   2.349   2.277   9.361 -0.8707 -1.6727  0.6598
18402SOL     OW58993   2.251   2.108   5.926 -0.0589  0.0352 -0.3701
18402SOL    HW158994   2.241   2.195   5.888 -4.3029 -0.4535 -0.8418
18402SOL    HW258995   2.257   2.123   6.020  0.2112  0.8196 -0.5039
18403SOL     OW58996   1.925   3.216   7.727  0.2123  0.1478  0.2716
18403SOL    HW158997   2.009   3.256   7.702  0.1938  0.3215  0.4847
18403SOL    HW258998   1.860   3.283   7.706  0.1996  0.3087  0.8172
18404SOL     OW58999   9.830   6.988   2.886 -0.2215 -0.2241  0.4839
18404SOL    HW159000   9.785   6.945   2.959 -0.2505 -0.7487  0.1578
18404SOL    HW259001   9.917   6.947   2.884  0.6031  1.3585  1.6417
18405SOL     OW59002   1.206   0.027   0.615 -0.5863 -0.0649 -0.4077
18405SOL    HW159003   1.299   0.039   0.630 -0.6597 -0.8318  0.8213
18405SOL    HW259004   1.184   0.091   0.547  0.6229  0.8187  0.0022
18406SOL     OW59005  10.204   1.644   8.829  0.0707 -0.3626 -0.0660
18406SOL    HW159006  10.296   1.627   8.812  0.5442  2.0347 -0.3466
18406SOL    HW259007  10.204   1.715   8.893 -1.6162 -1.1393  0.8722
18407SOL     OW59008   5.014   8.866   2.215 -0.3844  0.1141  0.0412
18407SOL    HW159009   5.026   8.961   2.218 -0.9074  0.1685  0.6343
18407SOL    HW259010   5.020   8.839   2.307 -1.0487 -0.3212 -0.0390
18408SOL     OW59011   4.094   0.108   0.705  0.2136 -0.0064 -0.5305
18408SOL    HW159012   4.159   0.176   0.724  1.1740 -0.7010 -1.1630
18408SOL    HW259013   4.147   0.031   0.683 -0.8269 -0.4494 -1.5872
18409SOL     OW59014   6.733   1.298   9.595 -0.5661 -0.1846 -0.5609
18409SOL    HW159015   6.753   1.337   9.681  0.6897 -0.6044 -0.6367
18409SOL    HW259016   6.700   1.371   9.543 -0.7031  0.2197  0.0791
18410SOL     OW59017   1.729  10.304   2.080  0.1761 -0.2460  0.1400
18410SOL    HW159018   1.696  10.347   2.001 -2.1027 -0.5042  0.8815
18410SOL    HW259019   1.680  10.344   2.151  3.6141  1.4940  1.7863
18411SOL     OW59020   4.056   2.193   3.887 -0.4183  0.6611  0.4191
18411SOL    HW159021   4.024   2.103   3.893  3.6434 -0.9021  2.2541
18411SOL    HW259022   4.070   2.218   3.978  1.4861  1.9315 -0.1890
18412SOL     OW59023   5.796   8.288   7.849 -0.5043 -0.6092 -0.0176
18412SOL    HW159024   5.833   8.259   7.932 -1.8684  0.0249  0.8296
18412SOL    HW259025   5.852   8.361   7.822  0.5325 -1.4281 -0.1823
18413SOL     OW59026   6.817   2.183   7.256  0.2857 -0.4518 -0.0353
18413SOL    HW159027   6.754   2.250   7.230 -0.8899 -1.7435 -0.6651
18413SOL    HW259028   6.767   2.101   7.253  0.7886 -1.0764  3.7340
18414SOL     OW59029   9.835   7.886   5.912  0.1879  0.2395 -0.2885
18414SOL    HW159030   9.877   7.957   5.959  1.8763 -0.8974 -0.0269
18414SOL    HW259031   9.742   7.911   5.910  0.0380  0.4628  3.4003
18415SOL     OW59032   3.567   4.830   1.323  0.2990 -0.0154  0.4157
18415SOL    HW159033   3.619   4.824   1.242 -0.4408  0.0675 -0.0736
18415SOL    HW259034   3.489   4.879   1.298 -0.5502 -1.0997  0.8612
18416SOL     OW59035  10.096   2.787   2.812  0.1091  0.5241 -0.8047
18416SOL    HW159036  10.166   2.724   2.799 -1.4000 -1.1218 -1.3294
18416SOL    HW259037  10.066   2.808   2.723 -0.1374  1.1269 -0.5853
18417SOL     OW59038   8.328   5.703   1.611  0.1698 -0.1798  0.0964
18417SOL    HW159039   8.386   5.669   1.543  1.0310 -0.4635  0.9479
18417SOL    HW259040   8.277   5.771   1.567  0.9563 -0.1141 -0.7458
18418SOL     OW59041   4.024   1.332   7.216 -0.7344 -0.6094 -0.5489
18418SOL    HW159042   3.963   1.402   7.238 -0.6803 -0.4442 -0.9268
18418SOL    HW259043   3.970   1.253   7.214 -1.0737 -0.3645 -1.5673
18419SOL     OW59044   6.266   8.204   0.954 -0.2953  0.6306 -0.3308
18419SOL    HW159045   6.331   8.169   0.894 -1.0031 -0.8026 -0.2975
18419SOL    HW259046   6.256   8.296   0.929 -0.2164  0.1869 -2.0702
18420SOL     OW59047   5.891   6.621   0.140  0.9386  0.3508  0.2837
18420SOL    HW159048   5.861   6.709   0.120  0.4219  0.0240 -0.4044
18420SOL    HW259049   5.969   6.609   0.086  1.6834  0.7875  1.2290
18421SOL     OW59050   0.931   0.770   9.669  0.4639 -0.3508 -0.0037
18421SOL    HW159051   0.836   0.758   9.676  0.4241 -0.3010 -0.4470
18421SOL    HW259052   0.967   0.709   9.732  0.1617 -0.9039 -0.3581
18422SOL     OW59053   4.691   9.523   4.621  0.5779 -0.3330 -0.6222
18422SOL    HW159054   4.681   9.578   4.544  3.5088  2.0202  0.4866
18422SOL    HW259055   4.750   9.452   4.593 -0.5680 -1.0813 -1.2003
18423SOL     OW59056   1.163   7.035   2.302 -0.5717 -0.1127  0.1791
18423SOL    HW159057   1.076   6.999   2.284  0.0858 -0.8144 -1.9936
18423SOL    HW259058   1.150   7.129   2.304 -1.3419 -0.1913 -0.4589
18424SOL     OW59059   9.597   2.763   8.690  0.3123  0.0010 -0.3306
18424SOL    HW159060   9.583   2.776   8.596  0.6892  0.2235 -0.3551
18424SOL    HW259061   9.657   2.833   8.716 -0.0647  0.1573  0.1462
18425SOL     OW59062   1.693   5.543   3.250 -0.3280 -0.2361 -0.3518
18425SOL    HW159063   1.784   5.544   3.220 -0.4973  3.7498 -1.3005
18425SOL    HW259064   1.687   5.617   3.311 -2.4837 -1.7606  1.4607
18426SOL     OW59065   4.927   0.914   6.499 -0.1468  0.0512  0.4542
18426SOL    HW159066   4.963   0.829   6.525  0.4729 -0.0696 -0.7100
18426SOL    HW259067   4.926   0.965   6.579  0.5458 -0.6889  0.9557
18427SOL     OW59068   8.952   3.530   5.444 -0.0890 -0.2411 -0.3773
18427SOL    HW159069   8.886   3.598   5.461 -1.1388 -1.2108 -0.4554
18427SOL    HW259070   9.012   3.571   5.381 -1.2385  0.3133 -1.1654
18428SOL     OW59071   1.847   9.808   3.819  0.4738 -0.1543 -0.6088
18428SOL    HW159072   1.766   9.774   3.781  0.4494 -0.3559 -0.3780
18428SOL    HW259073   1.836   9.903   3.818 -1.0326 -0.1934  2.0960
18429SOL     OW59074   9.816   2.214   4.480 -0.2805  0.3182 -0.6868
18429SOL    HW159075   9.828   2.204   4.386  0.6177  0.3413 -0.5799
18429SOL    HW259076   9.865   2.294   4.502 -1.8247  1.2475 -0.4519
18430SOL     OW59077   6.889   6.612   0.190  0.0209 -0.4140  0.2571
18430SOL    HW159078   6.847   6.539   0.146  0.4076 -0.7290  0.4112
18430SOL    HW259079   6.980   6.608   0.162 -0.4065  1.4690 -1.7023
18431SOL     OW59080   5.852   8.955   2.013  0.0506 -0.1491 -0.3156
18431SOL    HW159081   5.864   8.926   2.104  0.4847 -0.1028 -0.3580
18431SOL    HW259082   5.870   9.049   2.015 -1.7441  0.2384 -0.1025
18432SOL     OW59083   2.554   0.111   4.129  0.7239 -0.3394 -0.4820
18432SOL    HW159084   2.588   0.029   4.166  0.2179  0.1665  1.2197
18432SOL    HW259085   2.506   0.151   4.201 -1.2242  0.2429 -2.0293
18433SOL     OW59086   5.009   0.809   1.362 -0.0584  0.3165  0.3259
18433SOL    HW159087   4.985   0.725   1.323  0.4517  0.6812 -0.8180
18433SOL    HW259088   4.957   0.813   1.442  2.2155 -2.5097  2.1408
18434SOL     OW59089   7.996  10.070   5.113  0.2108 -0.4027 -0.2954
18434SOL    HW159090   7.998  10.077   5.018  1.7432  3.4120 -0.1320
18434SOL    HW259091   7.970   9.979   5.130 -0.8701 -0.9991 -4.2901
18435SOL     OW59092   9.156   8.974   1.504 -0.0496 -0.1372 -0.0203
18435SOL    HW159093   9.245   9.003   1.488  0.8690 -1.9686  1.4274
18435SOL    HW259094   9.135   9.008   1.592  0.8584 -3.1412  1.4878
18436SOL     OW59095   0.535   1.123   4.280  0.2570 -0.1026  0.5125
18436SOL    HW159096   0.607   1.076   4.236  1.0412 -0.0199  1.6809
18436SOL    HW259097   0.458   1.068   4.264  0.7747 -0.7340  0.1355
18437SOL     OW59098  10.301   4.365   6.411  0.4584 -0.3105  0.2797
18437SOL    HW159099  10.222   4.324   6.376  1.4339 -2.6427  0.5979
18437SOL    HW259100  10.291   4.359   6.506 -0.1734  1.9024  0.3902
18438SOL     OW59101   8.916   5.942   5.093  0.4081  0.4585  0.3166
18438SOL    HW159102   8.930   6.037   5.099 -0.3876  0.6045  0.0286
18438SOL    HW259103   8.877   5.930   5.006  1.3831 -0.2471 -0.0343
18439SOL     OW59104   4.042   3.267   9.885 -0.1045 -0.4311  0.2109
18439SOL    HW159105   4.053   3.259   9.980  0.0588 -1.2521  0.1299
18439SOL    HW259106   4.097   3.197   9.848 -0.9863 -0.8089 -0.4333
18440SOL     OW59107   6.810   2.022   9.943 -0.1949 -0.7975 -0.0107
18440SOL    HW159108   6.719   2.050   9.934 -0.2621 -0.7708  0.6822
18440SOL    HW259109   6.808   1.927   9.931 -0.2347 -0.7364 -0.5106
18441SOL     OW59110   1.899   0.313   3.653  0.1025 -0.0880 -0.1496
18441SOL    HW159111   1.837   0.347   3.717  0.0527  2.4968 -1.4566
18441SOL    HW259112   1.847   0.300   3.574  0.6500 -0.8127 -0.3982
18442SOL     OW59113   5.861   3.551  10.340 -0.3737  0.3571  0.3098
18442SOL    HW159114   5.879   3.457  10.335  0.0121  0.4569 -0.1990
18442SOL    HW259115   5.881   3.584  10.253 -2.6882  0.5428 -0.2029
18443SOL     OW59116   9.500   4.301   4.585 -0.3054  0.0687  0.0091
18443SOL    HW159117   9.589   4.338   4.582  0.2175 -1.1210  0.3197
18443SOL    HW259118   9.475   4.294   4.493  0.4821 -0.8501 -0.1555
18444SOL     OW59119   3.463   8.521   2.866  0.2148 -0.8435  0.0031
18444SOL    HW159120   3.468   8.581   2.940  0.6984 -2.2110  1.1471
18444SOL    HW259121   3.370   8.510   2.849  0.1401  0.7593 -0.6977
18445SOL     OW59122   6.400   0.216   0.006 -0.0014 -0.2363  0.1187
18445SOL    HW159123   6.374   0.244  -0.082  0.6512 -3.0599 -1.0868
18445SOL    HW259124   6.322   0.231   0.059 -0.4748  1.3630 -0.9555
18446SOL     OW59125   5.902   6.720   9.322 -0.2146 -0.3722 -0.4860
18446SOL    HW159126   5.981   6.749   9.368 -0.2324 -2.3315  0.8684
18446SOL    HW259127   5.931   6.647   9.268 -0.3388  1.4405 -3.2338
18447SOL     OW59128   8.042   5.538   9.420  0.3233  0.7356  0.4151
18447SOL    HW159129   7.955   5.510   9.392  1.1812  0.4700 -2.2765
18447SOL    HW259130   8.035   5.634   9.423  0.1214  0.7770 -0.6659
18448SOL     OW59131   1.588   9.685   4.749  0.3166 -0.0692 -0.3956
18448SOL    HW159132   1.561   9.619   4.812  1.6029 -0.3271 -0.0820
18448SOL    HW259133   1.517   9.687   4.684 -0.4051 -0.7259  0.3550
18449SOL     OW59134   5.146   8.756   3.787 -0.2371 -0.1881  0.1931
18449SOL    HW159135   5.152   8.852   3.794 -0.9779 -0.1040 -0.1267
18449SOL    HW259136   5.226   8.730   3.742 -0.6460  0.4363 -0.9388
18450SOL     OW59137   3.114   3.663   4.100 -0.3731 -0.0524  0.4909
18450SOL    HW159138   3.171   3.702   4.033 -2.6062 -0.9650 -2.1327
18450SOL    HW259139   3.052   3.731   4.122 -0.6289 -0.2619  0.4202
18451SOL     OW59140   6.978   8.738   2.541 -0.2222  0.3328  0.4397
18451SOL    HW159141   7.029   8.666   2.578 -0.2882  0.2117  0.2953
18451SOL    HW259142   6.999   8.813   2.597  1.7567  0.8222 -0.8405
18452SOL     OW59143   3.504   7.914   5.299 -0.6383 -0.1097  0.2711
18452SOL    HW159144   3.525   7.829   5.338 -2.0719 -0.5292  0.2043
18452SOL    HW259145   3.585   7.943   5.258 -0.1509 -1.4948  0.2031
18453SOL     OW59146   5.014   0.410   2.769 -0.1689 -0.1978 -0.7438
18453SOL    HW159147   5.065   0.405   2.688  0.5625  1.4555 -0.4206
18453SOL    HW259148   5.005   0.503   2.787 -1.8210 -0.4875  0.1729
18454SOL     OW59149   9.328   2.302   6.192 -0.2860  0.0627 -0.5816
18454SOL    HW159150   9.351   2.244   6.264 -1.6445 -0.5772 -0.6345
18454SOL    HW259151   9.412   2.329   6.155  0.3872 -1.4653 -0.2245
18455SOL     OW59152   5.565   4.985   2.037 -0.0785  0.1211 -0.7586
18455SOL    HW159153   5.503   4.920   2.072 -0.9250  1.0545 -0.4913
18455SOL    HW259154   5.609   4.939   1.966 -1.8626 -0.2358 -1.6919
18456SOL     OW59155   1.154   2.117   2.640 -0.1216 -0.1400  0.7676
18456SOL    HW159156   1.136   2.091   2.730 -1.6555 -2.2277 -0.0614
18456SOL    HW259157   1.085   2.180   2.619 -0.9452 -1.1000  0.4998
18457SOL     OW59158   9.580   5.048   4.476  0.3495 -0.0043 -0.4195
18457SOL    HW159159   9.562   5.119   4.413  1.7740  2.3143  1.5838
18457SOL    HW259160   9.520   5.065   4.548  1.4532 -0.1454  0.5630
18458SOL     OW59161   3.056   5.757   0.724  0.0056 -0.2560 -0.2377
18458SOL    HW159162   3.067   5.847   0.755  1.3540 -0.5865  0.3001
18458SOL    HW259163   3.048   5.766   0.629  2.2050  0.3158 -0.4278
18459SOL     OW59164   4.537   9.025   9.674  0.3994  0.2333 -0.1240
18459SOL    HW159165   4.469   9.014   9.609  0.5215 -1.0342 -0.0646
18459SOL    HW259166   4.599   8.955   9.656  0.7285  0.2168  0.9944
18460SOL     OW59167   9.264   5.009   8.511  0.4816 -0.4192  0.0110
18460SOL    HW159168   9.222   5.095   8.517  0.8809 -0.1839 -0.5318
18460SOL    HW259169   9.208   4.958   8.452  1.3907  0.1781 -1.4381
18461SOL     OW59170   2.001   4.112   6.809 -0.0232 -0.5481  0.5074
18461SOL    HW159171   2.076   4.139   6.862  0.0568  0.2402  0.0083
18461SOL    HW259172   1.936   4.182   6.823 -0.5161 -1.0228  0.6268
18462SOL     OW59173   6.521   7.508   6.982  0.1834 -0.1377  0.3969
18462SOL    HW159174   6.573   7.559   6.920  0.4215  1.2719  1.7046
18462SOL    HW259175   6.576   7.431   7.001  0.4595 -0.1688 -0.5043
18463SOL     OW59176   5.154   8.211   0.814  0.4031  0.5166  0.7257
18463SOL    HW159177   5.121   8.300   0.827  0.4797  0.3109  2.5566
18463SOL    HW259178   5.173   8.179   0.902  0.3146 -1.3519  0.1084
18464SOL     OW59179   5.257   5.199   7.783 -0.5462 -0.2605  0.0125
18464SOL    HW159180   5.198   5.202   7.708 -0.3046 -1.9259 -0.2826
18464SOL    HW259181   5.345   5.207   7.746 -0.4964  1.6095  0.3995
18465SOL     OW59182   1.134   6.291   2.709  0.0108 -0.1731  0.6764
18465SOL    HW159183   1.104   6.303   2.619 -0.6310  0.6665  0.9881
18465SOL    HW259184   1.218   6.246   2.700 -0.7143 -1.3825 -0.2649
18466SOL     OW59185   5.292   3.347   3.010  0.1870  0.1097 -0.1208
18466SOL    HW159186   5.252   3.282   3.068  2.1465 -2.1866 -1.1419
18466SOL    HW259187   5.335   3.409   3.069 -0.2921 -0.4750  0.8751
18467SOL     OW59188   5.697   6.821   1.238  0.0549 -0.2448  0.0680
18467SOL    HW159189   5.609   6.785   1.247  0.7946 -2.3618 -0.5096
18467SOL    HW259190   5.745   6.755   1.189  1.7440  1.2686 -0.4383
18468SOL     OW59191   5.708   7.100   9.056 -0.6621 -0.0282  0.1122
18468SOL    HW159192   5.707   7.192   9.030  1.6336  0.1653  0.4897
18468SOL    HW259193   5.778   7.061   9.003 -1.4952 -1.5441  0.0706
18469SOL     OW59194   7.713   8.291  10.348  0.5520  0.1966 -0.5123
18469SOL    HW159195   7.666   8.374  10.354 -0.8912 -0.3932 -2.6129
18469SOL    HW259196   7.700   8.262  10.258  2.1083 -1.6887 -0.1940
18470SOL     OW59197   1.903   7.308   2.916 -0.2566 -0.1284  0.1601
18470SOL    HW159198   1.847   7.380   2.945 -0.1165 -0.4508  1.2532
18470SOL    HW259199   1.848   7.230   2.923  0.4475 -0.5198  1.7005
18471SOL     OW59200   1.695   2.953   1.255  0.4173  0.1244  0.2109
18471SOL    HW159201   1.739   3.021   1.204 -0.7692  1.4080  0.8294
18471SOL    HW259202   1.602   2.970   1.241 -0.0251  1.2553  3.6229
18472SOL     OW59203   1.643   4.264   1.238 -0.2535 -0.7371 -0.1779
18472SOL    HW159204   1.699   4.213   1.296  1.8382  0.2569 -1.2071
18472SOL    HW259205   1.573   4.203   1.213 -0.1310 -1.7835  1.7642
18473SOL     OW59206   4.758   2.281   0.225 -0.2630  0.2269  0.1966
18473SOL    HW159207   4.779   2.313   0.312  2.0622  0.5884 -0.4372
18473SOL    HW259208   4.799   2.195   0.221 -1.8549 -0.5738  0.0077
18474SOL     OW59209   9.669   3.167   5.922  0.3062  0.6975  0.2271
18474SOL    HW159210   9.574   3.162   5.939  0.2512  0.5163 -0.1377
18474SOL    HW259211   9.705   3.091   5.968  0.3639  1.1556  0.9609
18475SOL     OW59212   8.835   4.770   2.423  0.1998 -0.4113 -0.2083
18475SOL    HW159213   8.827   4.684   2.463 -0.8527 -0.0555  0.3757
18475SOL    HW259214   8.855   4.829   2.496  0.4404 -0.0778 -0.5325
18476SOL     OW59215   8.669   1.612   8.943 -0.4735  0.2089  0.2931
18476SOL    HW159216   8.729   1.637   8.873 -0.0948 -0.3682  0.4070
18476SOL    HW259217   8.606   1.684   8.947 -0.7900  0.0314 -0.9749
18477SOL     OW59218   4.353   3.395   9.618 -0.5617  0.2468 -0.0392
18477SOL    HW159219   4.376   3.361   9.532 -2.4392 -1.8337  0.1753
18477SOL    HW259220   4.271   3.443   9.604 -1.2523 -0.6836  0.6386
18478SOL     OW59221   8.070   9.572   4.991 -0.0863 -0.3561 -0.1664
18478SOL    HW159222   8.137   9.555   5.057 -0.5987  0.5876  0.6192
18478SOL    HW259223   8.077   9.666   4.973 -0.6394 -0.4126 -0.7121
18479SOL     OW59224   2.627   4.127   9.340 -0.4229  0.1485  0.6799
18479SOL    HW159225   2.653   4.096   9.427  0.2510 -1.3811 -0.0189
18479SOL    HW259226   2.673   4.069   9.279 -0.9189  1.1496 -0.7066
18480SOL     OW59227   9.961   3.977   3.429  0.7214 -0.1472  0.1088
18480SOL    HW159228   9.886   3.924   3.454 -0.1132  0.0554 -1.7598
18480SOL    HW259229   9.926   4.065   3.417  1.4904  0.1998  0.3079
18481SOL     OW59230   9.346   9.078   9.395 -0.1440  0.1166 -0.1891
18481SOL    HW159231   9.338   8.984   9.412 -1.4222 -0.4031 -3.0097
18481SOL    HW259232   9.256   9.110   9.395  0.1036  0.8648 -1.4029
18482SOL     OW59233   9.107   6.782   2.437 -0.2604 -0.0098  0.6616
18482SOL    HW159234   9.066   6.755   2.518  1.1065  1.1133  1.7970
18482SOL    HW259235   9.046   6.844   2.398 -0.9190 -0.5416  0.8415
18483SOL     OW59236   5.511  10.257   8.764  0.4181  0.3599  0.1183
18483SOL    HW159237   5.517  10.321   8.692  0.3845 -0.3877 -0.5624
18483SOL    HW259238   5.449  10.191   8.732  1.2641 -0.5716  0.3624
18484SOL     OW59239   4.913   5.228   3.825 -0.2642  0.7445  0.1386
18484SOL    HW159240   4.944   5.315   3.851  1.4485  0.3847 -0.5787
18484SOL    HW259241   4.818   5.232   3.837  0.0695  1.3561  4.2149
18485SOL     OW59242   1.185   7.941   6.829 -0.6886 -0.4405 -0.4843
18485SOL    HW159243   1.247   7.919   6.899 -1.2323 -0.9624 -0.1542
18485SOL    HW259244   1.140   8.019   6.860  0.5200  0.5809 -1.1956
18486SOL     OW59245   2.755   2.329   9.632 -0.2897  0.4046  0.1064
18486SOL    HW159246   2.768   2.267   9.703 -0.3952  0.4312  0.1483
18486SOL    HW259247   2.663   2.354   9.637 -0.6574 -0.6307 -0.8745
18487SOL     OW59248  10.311   3.452   2.322  0.3368  0.0439  0.2816
18487SOL    HW159249  10.322   3.380   2.260 -0.0692  0.9112 -0.8298
18487SOL    HW259250  10.391   3.504   2.314  0.4353 -0.0235  0.7554
18488SOL     OW59251   8.482   0.066   7.557  0.1989  0.1010 -0.2113
18488SOL    HW159252   8.494   0.122   7.634  0.0300  2.6015 -1.8793
18488SOL    HW259253   8.409   0.009   7.580  0.6689  0.2361  1.7580
18489SOL     OW59254   6.492   6.015   4.024 -0.5367 -0.4615 -0.0482
18489SOL    HW159255   6.435   5.970   3.962 -0.7936  0.6210 -0.6230
18489SOL    HW259256   6.564   6.048   3.970 -0.8980  0.7239  0.1716
18490SOL     OW59257   9.944   5.565   2.531  0.5857  1.1188 -0.2829
18490SOL    HW159258  10.030   5.591   2.498  0.3956 -0.3087 -2.0113
18490SOL    HW259259   9.947   5.470   2.535 -0.6579  1.0862  0.4140
18491SOL     OW59260   9.399   5.678   2.665 -0.3448 -0.1191 -0.3872
18491SOL    HW159261   9.403   5.773   2.666 -0.3411  0.0365  3.6655
18491SOL    HW259262   9.486   5.650   2.637  0.4738  1.1794  0.7202
18492SOL     OW59263   3.688   0.913   6.459 -0.2265 -0.3794 -0.0271
18492SOL    HW159264   3.711   0.935   6.549  1.8909 -0.9571 -0.3690
18492SOL    HW259265   3.768   0.929   6.409 -1.5954  0.7906 -2.0067
18493SOL     OW59266   9.106   8.160   6.339 -0.3283 -0.2164 -0.5619
18493SOL    HW159267   9.184   8.164   6.284  0.4395 -0.5684  0.4758
18493SOL    HW259268   9.084   8.251   6.357  2.7235  0.0172  3.0541
18494SOL     OW59269   7.729   5.942   1.021  0.2925  0.6717 -0.1139
18494SOL    HW159270   7.639   5.975   1.015 -0.1926 -0.6758 -0.7697
18494SOL    HW259271   7.778   5.992   0.957  0.0297  1.4903  0.3174
18495SOL     OW59272   5.074   9.029   2.912 -0.2696 -0.2566 -0.2647
18495SOL    HW159273   5.131   8.958   2.942 -1.5605 -2.0255 -1.7603
18495SOL    HW259274   4.990   9.011   2.954 -0.3574  1.0247  0.1434
18496SOL     OW59275   4.809   5.070   1.321 -0.2616 -0.5107  0.4575
18496SOL    HW159276   4.732   5.086   1.266 -0.9124  0.3935  1.5771
18496SOL    HW259277   4.866   5.146   1.305 -1.0151  0.4168  1.8959
18497SOL     OW59278   5.568   8.986   0.914  0.3354 -0.2136  0.4886
18497SOL    HW159279   5.604   9.066   0.875 -0.1208 -0.3316 -0.1942
18497SOL    HW259280   5.619   8.973   0.993  0.2619  0.8896  0.7341
18498SOL     OW59281   1.519  10.102  10.029 -0.0390 -0.6447 -0.4038
18498SOL    HW159282   1.481  10.022  10.066 -0.5322 -0.7642 -1.1524
18498SOL    HW259283   1.490  10.171  10.088 -1.2658 -0.7657 -0.8394
18499SOL     OW59284   1.200   8.111   3.125 -0.4254  0.2582 -0.6805
18499SOL    HW159285   1.190   8.179   3.192 -0.3323  0.3285 -0.7368
18499SOL    HW259286   1.269   8.054   3.158 -0.5304  0.1673 -0.6149
18500SOL     OW59287   8.305   1.797   3.144  0.0166  0.5953  0.4214
18500SOL    HW159288   8.256   1.804   3.063  1.1138  2.3663 -0.1611
18500SOL    HW259289   8.280   1.875   3.194 -2.1007 -1.3751  2.7211
18501SOL     OW59290   4.869   6.280   7.656  0.4485  0.2760  0.6461
18501SOL    HW159291   4.912   6.298   7.740 -0.2082 -1.0070  1.2791
18501SOL    HW259292   4.905   6.197   7.628  1.2200  1.0518 -0.7523
18502SOL     OW59293   8.896   3.090   0.763 -0.0465  0.2666 -0.5243
18502SOL    HW159294   8.807   3.081   0.729 -0.8587 -0.9045  1.6560
18502SOL    HW259295   8.944   3.016   0.726 -1.2181 -1.6753  1.5057
18503SOL     OW59296   9.210   5.132   0.344  0.3456  0.2558  0.1312
18503SOL    HW159297   9.303   5.128   0.368  0.5996  0.1793 -0.8554
18503SOL    HW259298   9.165   5.144   0.428  1.2282  0.1130  0.6402
18504SOL     OW59299   1.868   7.595   3.729 -0.3201 -0.1268  0.0670
18504SOL    HW159300   1.857   7.505   3.698  0.0972  0.2312 -1.1968
18504SOL    HW259301   1.892   7.587   3.821 -0.1241 -1.3120 -0.0779
18505SOL     OW59302   9.473   8.820   4.300  0.0932 -0.8413  0.3323
18505SOL    HW159303   9.518   8.881   4.241 -3.1712  2.4188  0.8189
18505SOL    HW259304   9.424   8.762   4.241  0.1671 -0.4081 -0.1634
18506SOL     OW59305   3.690   5.578   2.899 -0.0862  0.3748 -0.0244
18506SOL    HW159306   3.738   5.585   2.816  1.3506  1.0023  0.8179
18506SOL    HW259307   3.688   5.667   2.933  0.0077  0.0117  0.9670
18507SOL     OW59308   0.585   7.486   9.685  0.4538  0.0030 -0.2118
18507SOL    HW159309   0.603   7.560   9.627 -0.0568 -0.4737 -1.0086
18507SOL    HW259310   0.638   7.414   9.650 -0.3293 -0.4566 -0.4832
18508SOL     OW59311   3.793   7.295   2.931 -0.1160 -0.0136  0.4327
18508SOL    HW159312   3.749   7.283   3.015  0.4220 -2.5611  0.4458
18508SOL    HW259313   3.836   7.380   2.937 -2.3461  1.0916  1.6367
18509SOL     OW59314   7.778   9.760   6.629  0.0264  0.1718  0.0321
18509SOL    HW159315   7.800   9.847   6.597  1.1538  0.2337  0.9105
18509SOL    HW259316   7.825   9.752   6.712 -0.7645 -0.9419  0.4085
18510SOL     OW59317   5.124   1.178   9.143  0.3311  0.9316 -0.4024
18510SOL    HW159318   5.111   1.219   9.228 -2.9588  2.2165 -1.3633
18510SOL    HW259319   5.036   1.160   9.111  1.4991 -2.2516 -2.3344
18511SOL     OW59320   6.613   8.021   1.200  0.4443  0.7726 -0.1440
18511SOL    HW159321   6.569   7.942   1.169 -0.0945  0.0332  2.3317
18511SOL    HW259322   6.541   8.080   1.223  0.8409  1.5043 -0.7288
18512SOL     OW59323   6.316   8.467   0.637 -0.7433 -0.1167 -0.6273
18512SOL    HW159324   6.362   8.411   0.575  0.8127  1.3961 -0.9043
18512SOL    HW259325   6.223   8.455   0.615 -0.2901 -0.3198 -2.6451
18513SOL     OW59326   8.602   4.387   5.724  0.0968  0.4392 -0.3253
18513SOL    HW159327   8.666   4.433   5.670  0.5702  0.7669  0.4891
18513SOL    HW259328   8.566   4.455   5.781  0.0468 -0.0108  0.1832
18514SOL     OW59329   2.042   9.796   5.126  0.3482 -0.2874  0.7170
18514SOL    HW159330   2.054   9.851   5.203 -0.6785 -1.7802  2.0294
18514SOL    HW259331   1.947   9.788   5.117  0.4052  0.7205 -1.4073
18515SOL     OW59332   9.413   1.498   3.891  0.4010  0.0485  0.5898
18515SOL    HW159333   9.461   1.416   3.906  0.4392 -0.4047 -1.7286
18515SOL    HW259334   9.474   1.553   3.842 -0.5364  0.4466 -0.1566
18516SOL     OW59335  10.092   1.852   6.656 -0.1821 -0.1223  0.5228
18516SOL    HW159336  10.087   1.895   6.742 -1.5629 -2.7580  1.8900
18516SOL    HW259337  10.182   1.819   6.651 -0.0095  0.2999  0.8387
18517SOL     OW59338   9.567   3.440   8.724 -0.2845  0.0465 -0.5524
18517SOL    HW159339   9.606   3.430   8.811 -1.4291  0.9917  0.1008
18517SOL    HW259340   9.537   3.353   8.700 -0.2380 -0.1656  0.1450
18518SOL     OW59341   0.944   5.434   7.918  0.1458  0.3120  0.5583
18518SOL    HW159342   0.922   5.357   7.866  0.9871 -0.2856  1.0513
18518SOL    HW259343   1.027   5.464   7.882  0.2494  0.4715  0.9236
18519SOL     OW59344  10.213   6.632   1.711 -0.0941 -0.5532  0.3894
18519SOL    HW159345  10.134   6.674   1.745 -1.2034 -0.6923 -1.8306
18519SOL    HW259346  10.248   6.695   1.649  1.2589 -0.7452  0.9319
18520SOL     OW59347   7.730   3.697   8.775  0.1766  0.5618 -0.1946
18520SOL    HW159348   7.750   3.653   8.858 -0.0654  0.1247 -0.3686
18520SOL    HW259349   7.756   3.788   8.790 -0.2484  0.5779  0.5039
18521SOL     OW59350   5.609   2.266   2.712 -0.3561  0.4163  0.0987
18521SOL    HW159351   5.704   2.270   2.701 -0.5911  1.2076 -2.1332
18521SOL    HW259352   5.594   2.184   2.760  1.3727 -0.4379 -0.7290
18522SOL     OW59353   7.345   4.804   2.521  0.4803 -0.2227  0.3701
18522SOL    HW159354   7.347   4.828   2.613 -1.0276  0.7512  0.1788
18522SOL    HW259355   7.409   4.733   2.513  0.3998 -0.5329  2.2099
18523SOL     OW59356   4.834   6.171   5.888 -0.0337 -0.3445  0.8906
18523SOL    HW159357   4.889   6.249   5.887 -0.3878 -0.0938  0.5607
18523SOL    HW259358   4.831   6.145   5.980 -0.1358  0.1970  1.0478
18524SOL     OW59359   6.076   0.669   4.582  0.0238  0.9232 -0.3849
18524SOL    HW159360   6.160   0.711   4.563 -0.2018  1.6439  0.1507
18524SOL    HW259361   6.077   0.655   4.677 -0.5309  1.1151 -0.3456
18525SOL     OW59362   0.760   5.918   6.157  0.1278 -0.0338 -0.1973
18525SOL    HW159363   0.725   5.830   6.148  0.7053 -0.1983 -0.8962
18525SOL    HW259364   0.826   5.925   6.089 -0.2256  1.0950 -0.4504
18526SOL     OW59365   1.414  10.128   0.188 -0.5208 -0.0817 -0.0540
18526SOL    HW159366   1.370  10.049   0.220 -1.2065  0.2696 -0.1194
18526SOL    HW259367   1.452  10.101   0.105 -1.1966 -0.2065 -0.3315
18527SOL     OW59368   6.843   3.929   2.227 -0.0963 -0.1201  0.4862
18527SOL    HW159369   6.829   4.024   2.234  3.7932  0.7760 -1.0932
18527SOL    HW259370   6.827   3.910   2.134 -0.2635 -0.9100  0.6703
18528SOL     OW59371   3.538   9.580   3.292  0.8546 -0.6202  0.0637
18528SOL    HW159372   3.490   9.521   3.349 -0.7684 -0.8125 -1.4185
18528SOL    HW259373   3.479   9.654   3.279  0.7972 -0.9578 -1.9787
18529SOL     OW59374   6.580   5.625   4.859 -0.0103 -0.0785 -0.3133
18529SOL    HW159375   6.560   5.667   4.942 -0.2165 -2.2671  0.8297
18529SOL    HW259376   6.676   5.617   4.859 -0.1154 -1.9921  0.8034
18530SOL     OW59377   3.908   7.506   0.844  0.3742  0.1645 -0.2018
18530SOL    HW159378   3.997   7.504   0.881 -0.5618 -0.1282  2.1907
18530SOL    HW259379   3.893   7.599   0.823  0.8661  0.3841  0.3863
18531SOL     OW59380   1.591   0.400   0.728 -0.2183 -0.2925 -0.4230
18531SOL    HW159381   1.653   0.365   0.665 -0.5865 -1.4877 -0.1581
18531SOL    HW259382   1.639   0.404   0.811 -0.8671 -2.7048  0.1468
18532SOL     OW59383   2.617  10.228   9.707  0.3653  0.2625  0.2264
18532SOL    HW159384   2.591  10.160   9.769  1.6427 -0.3219  0.1553
18532SOL    HW259385   2.541  10.286   9.701  0.5926  1.0185  3.2202
18533SOL     OW59386   8.176   3.358   2.273 -0.0577 -0.2979  0.2661
18533SOL    HW159387   8.192   3.435   2.328 -1.0688 -1.3273  2.0913
18533SOL    HW259388   8.242   3.295   2.300 -0.4772 -0.7642  0.2177
18534SOL     OW59389   1.090   4.981  10.200 -0.3111  0.9804 -0.0366
18534SOL    HW159390   1.034   5.050  10.235 -1.1299  0.0800  0.4854
18534SOL    HW259391   1.178   5.017  10.205 -0.3621  0.9727  2.9797
18535SOL     OW59392   8.750   6.506   6.288 -0.1568 -0.4675  0.2213
18535SOL    HW159393   8.833   6.461   6.308 -0.5009 -1.3641 -0.3191
18535SOL    HW259394   8.699   6.500   6.369 -0.3695 -1.4444  0.0224
18536SOL     OW59395   1.414   8.943   3.283  0.0587  0.2920  0.1694
18536SOL    HW159396   1.453   8.993   3.355 -1.4032 -0.0426  1.2386
18536SOL    HW259397   1.430   8.851   3.307 -2.6517  0.0636  1.4923
18537SOL     OW59398   1.129   8.991   8.629  0.0749 -0.1654  0.0850
18537SOL    HW159399   1.079   8.913   8.651 -0.5303  0.2420  0.1986
18537SOL    HW259400   1.164   9.022   8.713  1.4249 -1.0452 -0.1375
18538SOL     OW59401   6.763   7.586   1.708  0.0117 -0.0287  0.5828
18538SOL    HW159402   6.704   7.592   1.782 -0.3483 -2.1322  0.5134
18538SOL    HW259403   6.835   7.531   1.739  0.6611  0.3992 -0.1301
18539SOL     OW59404   0.053   8.696   2.778 -0.1020  0.0238  0.2587
18539SOL    HW159405   0.055   8.627   2.844  0.8583  0.0555  0.2767
18539SOL    HW259406   0.041   8.650   2.695 -1.8708  0.0187  0.4668
18540SOL     OW59407   2.281  10.252   5.704 -0.4895  0.0466  0.4557
18540SOL    HW159408   2.233  10.174   5.676 -0.5669 -0.9167  3.0527
18540SOL    HW259409   2.216  10.306   5.747 -0.5772  1.9647 -1.8496
18541SOL     OW59410   8.418   4.899   5.452  0.0893  0.1497  0.6014
18541SOL    HW159411   8.502   4.898   5.407 -1.4082  1.2757 -2.5751
18541SOL    HW259412   8.386   4.808   5.445 -0.6868  0.5147 -2.1328
18542SOL     OW59413   4.084   7.745   9.459  0.0912 -0.2754 -0.3003
18542SOL    HW159414   4.180   7.738   9.463 -0.0308 -1.6036  2.1217
18542SOL    HW259415   4.059   7.692   9.383  1.2381 -0.1658 -0.7740
18543SOL     OW59416   0.174   4.369   1.226 -0.1541  0.1329  0.1214
18543SOL    HW159417   0.255   4.354   1.178 -0.5733  0.0418 -0.5700
18543SOL    HW259418   0.185   4.456   1.265  0.0458  0.3643 -0.4437
18544SOL     OW59419   7.283   1.714   5.478 -0.7457  0.1780 -0.6138
18544SOL    HW159420   7.208   1.684   5.426 -2.7548  0.4195  1.9144
18544SOL    HW259421   7.243   1.758   5.554  2.0133  2.1591 -0.1494
18545SOL     OW59422   0.717   4.693   4.804  0.3690  0.5264 -0.3602
18545SOL    HW159423   0.674   4.612   4.833 -0.0024  1.6889  2.6809
18545SOL    HW259424   0.810   4.668   4.796 -0.0121 -0.6497 -1.4738
18546SOL     OW59425   0.090   1.603   7.788  0.3627 -0.0370 -0.4935
18546SOL    HW159426   0.113   1.627   7.698  0.3174  0.9081 -0.2585
18546SOL    HW259427  -0.001   1.632   7.797  1.1476  2.2257  0.6625
18547SOL     OW59428   6.852   2.715   0.307  0.2086  0.4673  0.0978
18547SOL    HW159429   6.795   2.750   0.239 -1.5939 -0.2849  1.1387
18547SOL    HW259430   6.900   2.792   0.340 -0.4699  1.1931 -0.5653
18548SOL     OW59431   0.886   2.096   6.156  0.4683 -0.8622 -0.6556
18548SOL    HW159432   0.975   2.091   6.121 -0.1208 -1.2829 -2.2106
18548SOL    HW259433   0.835   2.039   6.098 -0.9541 -0.0037 -0.2870
18549SOL     OW59434   6.884   9.945   5.990 -0.4225 -0.0651 -0.0479
18549SOL    HW159435   6.875  10.026   6.041  0.8459 -0.9998  1.8012
18549SOL    HW259436   6.854   9.876   6.050  2.0552 -1.3174 -0.1073
18550SOL     OW59437   3.213   4.211   6.359  0.0496 -0.1350  0.0949
18550SOL    HW159438   3.290   4.201   6.414 -0.3020 -0.5041  0.5313
18550SOL    HW259439   3.167   4.127   6.367  0.0448 -0.2252 -0.8326
18551SOL     OW59440   0.556   0.688   7.184  0.5864 -0.4058  0.1058
18551SOL    HW159441   0.540   0.765   7.238  1.2288  1.1881 -1.8740
18551SOL    HW259442   0.470   0.664   7.150  0.2178 -1.2705  1.5875
18552SOL     OW59443   2.293   8.327   3.826 -0.0187  0.5603  0.2583
18552SOL    HW159444   2.367   8.321   3.765  0.4532 -1.3672  0.9690
18552SOL    HW259445   2.219   8.295   3.775  0.1968 -0.1942  0.4160
18553SOL     OW59446   8.846   3.525   0.448  0.4688  0.6549  0.7612
18553SOL    HW159447   8.792   3.474   0.509  0.3031 -0.4603 -0.2866
18553SOL    HW259448   8.783   3.579   0.401 -0.0298 -1.6054 -1.4072
18554SOL     OW59449   3.254   8.954   4.665  0.4315 -0.3650 -0.3802
18554SOL    HW159450   3.269   9.041   4.629 -0.3980 -0.5836 -1.3118
18554SOL    HW259451   3.184   8.966   4.729  1.5983 -0.0541  0.8860
18555SOL     OW59452   3.341   7.002   6.658  0.0238  0.1357 -0.0096
18555SOL    HW159453   3.366   6.956   6.738 -0.9222  0.0442  0.2559
18555SOL    HW259454   3.373   7.092   6.671  2.7343 -0.6220 -0.9527
18556SOL     OW59455   3.579   9.940   2.310  0.3102 -0.7315 -0.4766
18556SOL    HW159456   3.519   9.899   2.372 -0.3722  2.0800  0.8999
18556SOL    HW259457   3.523   9.997   2.257  1.6317  2.0754  0.9339
18557SOL     OW59458   0.902   8.009   2.002 -0.0632 -0.2698  0.3949
18557SOL    HW159459   0.923   7.972   1.917  1.6153  0.5421  0.4249
18557SOL    HW259460   0.871   8.098   1.984 -0.1999 -0.2715  0.6067
18558SOL     OW59461   8.640   0.803   8.457 -0.0852  0.7306 -0.0659
18558SOL    HW159462   8.731   0.781   8.476 -0.7435 -1.5277  0.7300
18558SOL    HW259463   8.602   0.821   8.543 -0.5171  1.2734 -0.3597
18559SOL     OW59464   7.869   2.720   8.783  0.1448 -0.0328  0.1463
18559SOL    HW159465   7.870   2.631   8.749 -2.9399 -0.7797  1.6407
18559SOL    HW259466   7.863   2.710   8.878 -0.5972  1.7459  0.3359
18560SOL     OW59467   4.372   9.283   1.090 -0.8931  0.1827  0.4168
18560SOL    HW159468   4.373   9.202   1.040  0.4675  0.1475  0.4636
18560SOL    HW259469   4.463   9.313   1.089 -1.7785  3.3362 -2.2506
18561SOL     OW59470   7.902   9.391   5.118 -0.2332 -0.9603 -0.3380
18561SOL    HW159471   7.920   9.465   5.061 -1.3140  0.2082  0.7543
18561SOL    HW259472   7.949   9.411   5.199 -1.1777 -1.0308  0.2512
18562SOL     OW59473   1.372   7.793   5.862  0.1227  0.1672 -0.1774
18562SOL    HW159474   1.345   7.880   5.831 -2.5716  0.0979  1.6362
18562SOL    HW259475   1.290   7.750   5.886  1.6019 -1.8713  1.5408
18563SOL     OW59476   3.813   3.300   3.721 -0.0598  0.1379  0.1651
18563SOL    HW159477   3.752   3.226   3.725 -0.5419  0.5454  0.6125
18563SOL    HW259478   3.757   3.378   3.722  0.4608  0.5220  0.5069
18564SOL     OW59479   7.184   9.178   0.805 -0.0765 -0.3145  0.2586
18564SOL    HW159480   7.163   9.242   0.736  0.1917 -1.0499 -0.5156
18564SOL    HW259481   7.279   9.172   0.804 -0.1256 -1.2217 -0.1469
18565SOL     OW59482   2.106   5.482   5.649  0.2452 -0.0290  1.1629
18565SOL    HW159483   2.081   5.399   5.691  2.0952 -0.8057  0.8320
18565SOL    HW259484   2.055   5.484   5.569  1.7316 -1.9979  0.0692
18566SOL     OW59485   2.550   7.583   2.223 -0.4886  0.3907 -0.3984
18566SOL    HW159486   2.478   7.521   2.233 -0.6119  0.7823  1.4422
18566SOL    HW259487   2.551   7.633   2.305  2.1737  0.0793 -0.1499
18567SOL     OW59488   8.349   5.443   4.307  0.1932 -0.1404  0.3801
18567SOL    HW159489   8.259   5.412   4.295 -0.3869  0.7971  1.9922
18567SOL    HW259490   8.394   5.417   4.227 -1.0380 -2.2584  0.2871
18568SOL     OW59491   2.609   2.920   6.116  0.0456  0.0341 -0.2609
18568SOL    HW159492   2.686   2.882   6.159  0.2922  1.3326  0.4832
18568SOL    HW259493   2.636   2.933   6.025 -0.6309 -3.1762 -1.0591
18569SOL     OW59494   0.730   2.773   4.623 -0.0658 -0.5859 -0.5162
18569SOL    HW159495   0.745   2.763   4.529 -0.0903  0.9021 -0.7014
18569SOL    HW259496   0.635   2.781   4.631 -0.0187 -0.1007 -0.4358
18570SOL     OW59497   8.914   9.259   1.393  0.5295 -0.8558 -0.3307
18570SOL    HW159498   8.904   9.318   1.467 -1.6348  0.4246 -1.5322
18570SOL    HW259499   8.996   9.286   1.351  0.2980  0.3599 -0.0343
18571SOL     OW59500   0.882   5.462   6.305 -0.0687 -0.6149  0.5806
18571SOL    HW159501   0.880   5.552   6.337  0.4651 -0.8269  1.2399
18571SOL    HW259502   0.959   5.458   6.248 -0.2475 -0.5883  0.3342
18572SOL     OW59503   0.984   7.723   9.986  0.3520  0.7391 -0.4124
18572SOL    HW159504   0.987   7.818   9.988  1.0575  0.7076  0.6275
18572SOL    HW259505   0.895   7.702   9.957 -0.4041  1.7199  1.0693
18573SOL     OW59506   9.455   3.939   2.284 -0.2446 -0.1849 -0.2518
18573SOL    HW159507   9.471   3.966   2.374  2.0767 -1.3600 -0.2448
18573SOL    HW259508   9.406   4.012   2.246 -0.8751  0.5458  1.8086
18574SOL     OW59509   1.784   7.310   3.294 -0.2777 -0.5738  1.0857
18574SOL    HW159510   1.746   7.226   3.268  0.6052 -1.1256  1.5365
18574SOL    HW259511   1.878   7.297   3.284 -0.2068  1.1196 -1.0794
18575SOL     OW59512   2.209   2.352   5.800 -0.1527 -0.0159 -0.0557
18575SOL    HW159513   2.285   2.402   5.770  0.2743 -0.4903  0.2150
18575SOL    HW259514   2.155   2.341   5.722  1.1268 -1.5551 -0.7826
18576SOL     OW59515   3.254   5.446  10.284  0.3590  0.4857  0.0654
18576SOL    HW159516   3.309   5.415  10.212  0.8223  0.8297  0.2686
18576SOL    HW259517   3.303   5.423  10.363  1.3438  2.8508  0.2114
18577SOL     OW59518   2.310  10.000   7.278  0.0621  0.0500  0.2360
18577SOL    HW159519   2.330   9.917   7.321 -0.2920 -0.6490 -0.9057
18577SOL    HW259520   2.312  10.064   7.349 -0.2528 -1.0203  1.2542
18578SOL     OW59521   3.178   7.196   4.087  0.2389 -0.0000 -0.1483
18578SOL    HW159522   3.200   7.201   3.994 -0.6529 -1.1575 -0.4447
18578SOL    HW259523   3.262   7.181   4.131  0.7903  1.4550 -0.6633
18579SOL     OW59524   3.311   2.235   1.476 -0.3522  0.4970 -0.1551
18579SOL    HW159525   3.291   2.305   1.414  1.6211  0.9384 -0.3317
18579SOL    HW259526   3.398   2.205   1.452 -0.1950 -0.4138  1.4083
18580SOL     OW59527   8.120   0.891   8.359 -0.3438 -0.4283  0.2791
18580SOL    HW159528   8.168   0.973   8.365  0.5251 -1.0203  2.2020
18580SOL    HW259529   8.060   0.903   8.285  0.3284  1.6092  0.0133
18581SOL     OW59530   0.606   0.352   7.482 -0.3690  0.1446 -0.2501
18581SOL    HW159531   0.592   0.444   7.503 -0.0169  0.0570  0.3981
18581SOL    HW259532   0.700   0.346   7.464 -0.5640  0.1029 -1.3163
18582SOL     OW59533   7.095   6.602   9.650 -0.0424  0.2176 -0.5633
18582SOL    HW159534   7.123   6.692   9.633 -0.3945  0.3495 -0.4496
18582SOL    HW259535   7.027   6.585   9.584 -1.5291  0.7804  0.7622
18583SOL     OW59536   3.044   2.650   4.904 -0.1233 -0.4464  0.5328
18583SOL    HW159537   2.990   2.665   4.826 -0.9096  1.3863  1.3599
18583SOL    HW259538   3.075   2.560   4.895 -0.2425 -0.3241 -1.8453
18584SOL     OW59539   9.170   5.210   3.895  0.3241  0.4399 -0.2929
18584SOL    HW159540   9.216   5.293   3.890  0.4614  0.3686 -0.2145
18584SOL    HW259541   9.225   5.155   3.951  0.9510 -0.1610 -1.4590
18585SOL     OW59542   7.233   5.474   4.502 -0.2039  0.1341 -0.4565
18585SOL    HW159543   7.256   5.404   4.440 -0.4039  0.2774 -0.6929
18585SOL    HW259544   7.143   5.455   4.527  0.2613 -0.6322  0.7469
18586SOL     OW59545   8.278   7.735   8.894  0.3188  0.1867  0.1427
18586SOL    HW159546   8.261   7.801   8.827  0.9740  0.3903  0.1742
18586SOL    HW259547   8.373   7.722   8.892  0.2752 -0.2315  0.6275
18587SOL     OW59548   5.226   2.243  10.005 -0.2971 -0.1407  0.5288
18587SOL    HW159549   5.212   2.244  10.100  0.8877  2.3388  0.7503
18587SOL    HW259550   5.304   2.189   9.992 -0.3464 -0.3225  0.9795
18588SOL     OW59551   6.827   1.640   8.588  0.6739  0.1731  0.4965
18588SOL    HW159552   6.821   1.552   8.625 -0.1978 -0.4795 -1.1211
18588SOL    HW259553   6.883   1.631   8.511 -0.8794  0.6186 -0.7496
18589SOL     OW59554   6.693   3.837   4.675 -0.4206  0.2277  0.0331
18589SOL    HW159555   6.639   3.805   4.748 -0.5349  1.4130  0.4965
18589SOL    HW259556   6.695   3.765   4.613 -1.0766 -0.4800  0.8090
18590SOL     OW59557   8.934   0.332   6.987  0.3603  0.1082 -0.0227
18590SOL    HW159558   8.978   0.378   7.059  1.5255 -0.0473 -0.6214
18590SOL    HW259559   8.865   0.393   6.959  0.9059  0.8442  0.1871
18591SOL     OW59560   2.435   0.109  10.249  0.0398  0.0959  0.4882
18591SOL    HW159561   2.395   0.196  10.253  1.6666  0.8496  1.1292
18591SOL    HW259562   2.508   0.119  10.188  1.4178 -0.2879  2.0121
18592SOL     OW59563   4.852   9.596   6.683 -0.0040  0.1467  0.5389
18592SOL    HW159564   4.776   9.630   6.636  0.1660  0.0891  0.2156
18592SOL    HW259565   4.928   9.633   6.637  0.2000 -1.0843 -0.1695
18593SOL     OW59566   9.592   8.048   4.420  0.5908  0.3814 -0.2484
18593SOL    HW159567   9.555   8.095   4.346  0.1947  0.1935 -0.1764
18593SOL    HW259568   9.593   8.112   4.491 -1.1852 -0.0500  0.2245
18594SOL     OW59569   8.464   9.184   8.737  0.1424 -0.1546  0.4016
18594SOL    HW159570   8.393   9.180   8.673  0.8077  0.3458 -0.3950
18594SOL    HW259571   8.536   9.136   8.696  0.8047  0.7609  0.4652
18595SOL     OW59572   6.847   5.665   4.961  0.3855  0.0716 -0.2505
18595SOL    HW159573   6.920   5.609   4.987  1.4765  0.6734 -1.8499
18595SOL    HW259574   6.878   5.754   4.980 -0.6698  0.2464  0.7255
18596SOL     OW59575   8.814   0.060   5.269  0.2905 -0.0290 -0.3901
18596SOL    HW159576   8.760   0.119   5.321 -0.0768 -1.0150  0.3891
18596SOL    HW259577   8.903   0.093   5.279  0.1948 -0.0723  0.7046
18597SOL     OW59578   7.620   3.739   0.673 -0.6072 -0.2281 -0.4104
18597SOL    HW159579   7.684   3.806   0.650 -0.4050 -0.9410 -2.1050
18597SOL    HW259580   7.667   3.677   0.728 -0.1102 -0.2110 -0.8092
18598SOL     OW59581   6.041   7.325   5.041  0.0546 -0.0440  0.0306
18598SOL    HW159582   6.061   7.234   5.018 -3.1770 -0.9006  0.1424
18598SOL    HW259583   6.123   7.359   5.079  1.4846 -2.7320 -0.4142
18599SOL     OW59584   4.939   7.685   4.063  0.4218  0.5224  0.2300
18599SOL    HW159585   4.942   7.594   4.093 -1.5165  0.9276  1.8938
18599SOL    HW259586   5.031   7.709   4.050  1.2246 -0.7489  2.7581
18600SOL     OW59587   5.839   4.848   2.716 -0.1530  0.5177  0.1057
18600SOL    HW159588   5.852   4.941   2.701 -0.9197  0.4604 -0.9580
18600SOL    HW259589   5.816   4.812   2.631  3.5276 -1.2805 -0.3540
18601SOL     OW59590   9.522   1.717   4.704 -0.5240  0.0015  0.3531
18601SOL    HW159591   9.435   1.750   4.683 -0.3460 -0.1894 -0.7179
18601SOL    HW259592   9.513   1.684   4.794 -1.2574  0.9832  0.6581
18602SOL     OW59593   1.735   3.806   1.658 -0.1488  0.1979 -0.7535
18602SOL    HW159594   1.784   3.742   1.710 -0.7093 -0.2036 -0.7190
18602SOL    HW259595   1.737   3.886   1.711 -0.0163  0.0228 -0.4911
18603SOL     OW59596   0.341   6.110   3.237  0.4327 -0.5389 -0.2837
18603SOL    HW159597   0.322   6.090   3.329 -0.3696  1.5295  0.0766
18603SOL    HW259598   0.417   6.168   3.241 -0.8606  1.2845 -0.6890
18604SOL     OW59599   7.434   4.472   7.486  0.0533  0.1604  0.0035
18604SOL    HW159600   7.430   4.513   7.400  0.3881 -0.0015 -0.0914
18604SOL    HW259601   7.498   4.523   7.535  0.4817 -0.2516 -0.1195
18605SOL     OW59602   7.675   7.933   1.170  0.2222  0.2951 -0.1464
18605SOL    HW159603   7.601   7.936   1.230  0.4846  0.5332  0.1654
18605SOL    HW259604   7.662   7.852   1.120  0.3377 -0.2371  0.6644
18606SOL     OW59605   4.352   6.149   9.028  0.5128  0.0959 -0.1448
18606SOL    HW159606   4.351   6.125   8.935 -0.1301  1.1257 -0.4228
18606SOL    HW259607   4.444   6.160   9.050  0.6054  1.5590 -1.1419
18607SOL     OW59608   0.205   2.514   4.142 -0.5538  0.3515  0.5247
18607SOL    HW159609   0.174   2.603   4.162 -3.0615 -0.7042  1.7617
18607SOL    HW259610   0.135   2.457   4.174  2.0590 -2.2258  2.0910
18608SOL     OW59611   6.571   2.737   3.464  0.2036  0.6876  0.0195
18608SOL    HW159612   6.514   2.810   3.438  1.2746  1.8009  0.6879
18608SOL    HW259613   6.527   2.698   3.540 -0.3079  0.7091 -0.2579
18609SOL     OW59614   3.604   2.944   5.092 -0.4713 -0.2906  0.4007
18609SOL    HW159615   3.531   2.896   5.131 -1.6055  0.3387 -0.8504
18609SOL    HW259616   3.576   3.035   5.092  0.3263 -0.0325 -0.0864
18610SOL     OW59617   6.711   9.866   0.230  0.1534 -0.1003 -0.0502
18610SOL    HW159618   6.665   9.833   0.307  0.8112  2.5622  1.6242
18610SOL    HW259619   6.799   9.829   0.237 -0.1763 -0.9439 -0.2881
18611SOL     OW59620   9.875   8.253  10.314 -0.3650 -0.0667  0.3911
18611SOL    HW159621   9.883   8.337  10.359  2.0595  0.7963 -1.4083
18611SOL    HW259622   9.935   8.195  10.361 -0.1087 -0.0271  0.1200
18612SOL     OW59623  10.190   8.428   8.363 -0.2762 -0.0462 -0.4917
18612SOL    HW159624  10.241   8.509   8.364 -0.7168  0.2491  1.5481
18612SOL    HW259625  10.108   8.450   8.406 -0.1513 -1.7057  0.6992
18613SOL     OW59626   7.606  10.261   0.003 -0.1261 -0.2258  0.4526
18613SOL    HW159627   7.686  10.247   0.054  0.3378  2.9178  0.8443
18613SOL    HW259628   7.634  10.246  -0.088  0.5085 -0.6286  0.7060
18614SOL     OW59629   9.113   7.441   1.544  0.1094  0.7339 -0.4482
18614SOL    HW159630   9.075   7.513   1.493 -1.3292 -1.2225 -2.3440
18614SOL    HW259631   9.199   7.472   1.569 -0.7972  3.4477 -0.3899
18615SOL     OW59632   6.516   2.553   2.740 -0.2398  0.1681  0.0972
18615SOL    HW159633   6.585   2.522   2.682  0.8624 -0.4763  1.6731
18615SOL    HW259634   6.562   2.606   2.805 -1.3938  0.6855  0.5181
18616SOL     OW59635   1.776   2.292   9.508 -0.0722  0.7026 -0.0951
18616SOL    HW159636   1.745   2.374   9.469  1.1277  1.0569 -0.3297
18616SOL    HW259637   1.750   2.224   9.445 -1.6418  0.7911  0.4008
18617SOL     OW59638  10.292   7.375   0.662  0.3144 -0.4344 -0.4657
18617SOL    HW159639  10.297   7.421   0.746 -2.3849  3.5635 -2.2106
18617SOL    HW259640  10.207   7.330   0.664 -0.8579  1.5807 -1.7615
18618SOL     OW59641   2.616   4.796   7.040  0.3881  0.2967 -0.0262
18618SOL    HW159642   2.561   4.779   7.117  0.2324 -1.3170 -0.4646
18618SOL    HW259643   2.704   4.773   7.068  0.6270  1.4030  0.1910
18619SOL     OW59644   7.023   3.288   3.690  0.4413  0.3878 -0.1985
18619SOL    HW159645   7.065   3.226   3.750  0.0528  0.0273 -0.2947
18619SOL    HW259646   6.936   3.251   3.674  0.5218  0.5056 -0.9505
18620SOL     OW59647   3.549   8.332   0.328  0.4057  0.2122  0.2061
18620SOL    HW159648   3.540   8.237   0.319 -1.1028 -0.1979  3.8872
18620SOL    HW259649   3.511   8.368   0.248 -0.5290 -2.2903 -0.5658
18621SOL     OW59650   9.112  10.266   1.983 -0.2379  0.0886  0.1173
18621SOL    HW159651   9.048  10.195   1.979 -1.5007  1.1402  1.0461
18621SOL    HW259652   9.131  10.275   2.077 -1.0113  1.7385  0.1476
18622SOL     OW59653   4.217   4.884   0.631 -0.3982  0.8502 -0.0949
18622SOL    HW159654   4.281   4.839   0.576 -0.5070  0.6792 -0.0838
18622SOL    HW259655   4.224   4.841   0.717 -0.6944  0.6658 -0.1595
18623SOL     OW59656   4.898   1.168   7.791 -0.4966 -0.2551  0.0725
18623SOL    HW159657   4.911   1.209   7.877 -2.1460  3.1493 -1.1007
18623SOL    HW259658   4.813   1.125   7.798  0.0395 -1.2722  0.5326
18624SOL     OW59659   1.808  10.227   7.948 -0.0662  0.5521 -0.5966
18624SOL    HW159660   1.855  10.206   7.866  0.1415  0.2534 -0.4066
18624SOL    HW259661   1.767  10.311   7.931  2.2885  1.8997 -0.0504
18625SOL     OW59662   1.966   8.240   4.255 -0.5034  0.1630 -0.2120
18625SOL    HW159663   2.032   8.229   4.324 -0.3172 -1.4106 -0.6148
18625SOL    HW259664   2.015   8.234   4.173 -1.0631 -0.4719 -0.5082
18626SOL     OW59665   4.899   4.656   9.953  0.1460 -0.1387 -0.0476
18626SOL    HW159666   4.808   4.626   9.946 -0.1512 -0.2227  2.8800
18626SOL    HW259667   4.897   4.747   9.923 -1.5111  0.6730  2.2413
18627SOL     OW59668   8.035   3.545   0.993 -0.3138 -0.6205 -0.1508
18627SOL    HW159669   8.031   3.638   1.013 -2.4577 -0.9861  1.5684
18627SOL    HW259670   8.114   3.514   1.038  0.4874  0.3460 -0.8418
18628SOL     OW59671   6.986   6.237   9.069  0.3735  0.1977  0.1930
18628SOL    HW159672   6.921   6.168   9.064  1.2927 -0.7495  0.9113
18628SOL    HW259673   7.065   6.199   9.029  0.5286  1.2881 -0.5828
18629SOL     OW59674   2.970   0.311   8.434 -0.1430 -0.0775  0.0689
18629SOL    HW159675   2.877   0.294   8.443  0.1209 -0.7150  2.0387
18629SOL    HW259676   2.975   0.403   8.407 -1.3367 -0.3901 -1.3546
18630SOL     OW59677   3.501   8.047   0.475 -0.2320 -0.0104 -0.1961
18630SOL    HW159678   3.442   7.973   0.485  0.8680 -0.7489  1.2299
18630SOL    HW259679   3.558   8.043   0.552  0.3097  1.9143 -0.4428
18631SOL     OW59680   0.543   0.921   6.221  0.7013 -0.1522  0.2270
18631SOL    HW159681   0.563   0.926   6.315 -0.2905  0.5818  0.4063
18631SOL    HW259682   0.487   0.997   6.204  3.6651  1.8288 -1.6816
18632SOL     OW59683   9.410   5.819   3.941 -0.1967 -0.4916  0.5157
18632SOL    HW159684   9.375   5.901   3.905 -1.9123 -1.5350 -0.3160
18632SOL    HW259685   9.484   5.847   3.995  0.1311  1.4822 -0.8229
18633SOL     OW59686   8.618   4.685   4.919 -0.2929  0.0732  0.3683
18633SOL    HW159687   8.689   4.716   4.974 -0.4582  1.2996 -0.0864
18633SOL    HW259688   8.539   4.720   4.960 -0.4771  0.3360 -0.2038
18634SOL     OW59689   5.415   3.114   1.883 -0.3307 -0.0354  0.0622
18634SOL    HW159690   5.481   3.164   1.834 -0.2496  0.6381  0.8345
18634SOL    HW259691   5.333   3.132   1.837 -0.1459  0.0114 -0.2529
18635SOL     OW59692   8.477   4.395   8.171 -0.4530 -0.0835  0.4273
18635SOL    HW159693   8.546   4.331   8.159 -2.2040 -1.7662 -1.4272
18635SOL    HW259694   8.476   4.445   8.089 -0.6706  0.7140  0.9057
18636SOL     OW59695   1.043   8.571   2.162 -0.4474  0.2922  0.0129
18636SOL    HW159696   1.092   8.526   2.093  1.0243 -1.8468  2.3155
18636SOL    HW259697   1.098   8.646   2.185 -0.4569  0.4402 -0.4290
18637SOL     OW59698   6.356   2.900   1.404  0.0757 -0.2371  0.0583
18637SOL    HW159699   6.285   2.948   1.362  0.0820  1.1015  1.4912
18637SOL    HW259700   6.421   2.966   1.425  1.1776 -1.2520 -0.0443
18638SOL     OW59701   6.377   4.967   3.950  0.0683 -0.6403  0.2663
18638SOL    HW159702   6.426   4.957   4.032  0.8283  1.0611  0.0757
18638SOL    HW259703   6.444   4.963   3.881 -0.4709 -1.3550 -0.2288
18639SOL     OW59704   7.419   0.327   1.239 -0.3316 -0.1196 -0.0646
18639SOL    HW159705   7.334   0.368   1.259  0.7853  1.3620  1.9800
18639SOL    HW259706   7.415   0.242   1.282 -0.6305  0.1178  0.3848
18640SOL     OW59707   1.211   0.642   1.325  0.0434 -0.4887 -0.6950
18640SOL    HW159708   1.219   0.566   1.382 -0.8041 -1.0610 -1.3230
18640SOL    HW259709   1.185   0.606   1.240 -1.1848  0.5609 -0.7895
18641SOL     OW59710   6.323   5.897  10.019  0.0994 -0.4558 -0.8560
18641SOL    HW159711   6.281   5.926  10.101  2.0351 -0.2793  0.1391
18641SOL    HW259712   6.270   5.823   9.990  0.6047 -2.0184  1.8249
18642SOL     OW59713   0.814   3.618   7.481  0.6455  0.2701 -0.7065
18642SOL    HW159714   0.859   3.687   7.432  1.3702  0.6114  0.4082
18642SOL    HW259715   0.877   3.591   7.548 -0.1697 -0.4741 -0.2181
18643SOL     OW59716   7.319   6.134   5.940 -0.7649 -0.0707 -0.2596
18643SOL    HW159717   7.390   6.138   5.876 -0.4933 -1.7903 -0.1192
18643SOL    HW259718   7.352   6.077   6.009 -0.2671  3.2390  2.4838
18644SOL     OW59719   7.820   1.046   3.796 -0.3536  0.2886 -0.1313
18644SOL    HW159720   7.861   1.127   3.764  0.4540  0.1134  0.4237
18644SOL    HW259721   7.877   0.977   3.762 -1.3617 -0.0905 -1.0875
18645SOL     OW59722   1.933   7.098  10.134 -0.3566  0.3694 -0.3416
18645SOL    HW159723   1.971   7.154  10.201  0.1705 -0.8807  0.4436
18645SOL    HW259724   1.867   7.152  10.091 -1.0941  1.0467  1.5480
18646SOL     OW59725   8.085   2.207   6.339 -0.1662  0.6317 -0.4108
18646SOL    HW159726   8.114   2.216   6.430  2.6993 -1.3924 -0.9809
18646SOL    HW259727   8.134   2.276   6.293  0.4826 -0.0540 -0.7657
18647SOL     OW59728   6.983   5.629   3.546  0.7954  0.0250 -0.0627
18647SOL    HW159729   6.905   5.572   3.545  0.4649  0.3285  2.6667
18647SOL    HW259730   7.013   5.627   3.636  4.0996 -0.1678 -1.0638
18648SOL     OW59731   0.077   6.545   2.356  0.0044  0.0614  0.5292
18648SOL    HW159732   0.065   6.614   2.291 -1.7422 -0.5882  0.1132
18648SOL    HW259733   0.013   6.478   2.333  1.5415 -1.6691  1.0173
18649SOL     OW59734   5.309   5.878   0.505 -0.7849  0.0197  0.4892
18649SOL    HW159735   5.322   5.933   0.582  0.7379  1.4241 -0.6928
18649SOL    HW259736   5.366   5.802   0.519 -0.9925 -0.0428  1.0080
18650SOL     OW59737   0.125   7.375  10.107  0.0353 -0.2522 -0.3647
18650SOL    HW159738   0.088   7.458  10.076  1.7246  0.6608 -0.0516
18650SOL    HW259739   0.215   7.396  10.131  0.9973 -2.5043 -1.6778
18651SOL     OW59740   7.488   1.964   9.263 -0.3355 -0.0320 -0.3958
18651SOL    HW159741   7.578   1.998   9.262 -0.8765  1.7044  1.8990
18651SOL    HW259742   7.434   2.040   9.285 -1.7798 -1.9831  3.8848
18652SOL     OW59743   8.722   3.829   1.136 -0.3092 -0.3026 -0.7789
18652SOL    HW159744   8.702   3.740   1.108  0.7243 -0.8135  0.0716
18652SOL    HW259745   8.816   3.839   1.120  0.0037 -0.0810  0.9881
18653SOL     OW59746   2.863   0.384   1.019  0.3222  0.4810 -0.3825
18653SOL    HW159747   2.914   0.319   1.067  1.6900  0.7810 -1.3990
18653SOL    HW259748   2.817   0.433   1.088  3.0640  1.6274  0.7818
18654SOL     OW59749   1.868   4.375   4.877  0.5508  0.4349 -0.0646
18654SOL    HW159750   1.840   4.292   4.914 -0.1455  0.5791 -0.2418
18654SOL    HW259751   1.881   4.357   4.784  0.0252  0.6016 -0.1772
18655SOL     OW59752   1.007   9.707   0.435  0.1642 -0.1217  0.8470
18655SOL    HW159753   0.943   9.636   0.438  0.2223 -0.3122 -1.0288
18655SOL    HW259754   1.014   9.737   0.526 -3.1069  0.4023  1.0349
18656SOL     OW59755   4.209   8.216   9.883 -0.2431  0.4255  0.3839
18656SOL    HW159756   4.262   8.294   9.898 -2.4655  1.7624  1.9203
18656SOL    HW259757   4.218   8.165   9.963  1.3292 -1.0476 -0.6800
18657SOL     OW59758   5.772   4.577   6.332  0.2524 -0.6345  0.6570
18657SOL    HW159759   5.686   4.535   6.323  0.0466  0.1286 -1.4849
18657SOL    HW259760   5.834   4.504   6.331 -0.3115 -1.1869  2.1127
18658SOL     OW59761   8.249  10.076   4.851 -0.6773 -0.4109  0.2378
18658SOL    HW159762   8.189  10.147   4.872  1.4011  1.6326 -0.2671
18658SOL    HW259763   8.303  10.067   4.930 -0.7318 -1.2187  0.1844
18659SOL     OW59764   8.448   0.081   6.073  0.5707  0.2499  0.2235
18659SOL    HW159765   8.452   0.103   6.166 -0.7296  0.3152  0.2870
18659SOL    HW259766   8.539   0.069   6.047  0.9105 -0.6348  1.7124
18660SOL     OW59767   3.448   9.534   7.379  0.2985  0.0214 -0.1792
18660SOL    HW159768   3.437   9.477   7.303  2.1738 -0.1589 -0.3428
18660SOL    HW259769   3.526   9.501   7.423  0.6593  1.6347  0.4685
18661SOL     OW59770   0.835   8.084   0.318  0.7207  0.2852 -0.1625
18661SOL    HW159771   0.876   8.163   0.283  0.7843  0.4831  0.3449
18661SOL    HW259772   0.884   8.065   0.398 -0.1736  0.5334  0.4686
18662SOL     OW59773   5.761   0.181   9.179 -0.0172  0.1617  0.2168
18662SOL    HW159774   5.743   0.253   9.240  2.7548  0.2472  1.0824
18662SOL    HW259775   5.746   0.218   9.092  1.7043  1.9755  0.6241
18663SOL     OW59776   4.725   3.487   0.507  0.4686 -0.4865 -0.3289
18663SOL    HW159777   4.815   3.455   0.512  0.1482 -1.2307  1.1617
18663SOL    HW259778   4.686   3.438   0.434  1.2082 -0.3276 -0.8303
18664SOL     OW59779   8.186   6.105   9.400  0.4547 -0.6103  0.0568
18664SOL    HW159780   8.092   6.098   9.382  0.8043 -1.7041 -1.6213
18664SOL    HW259781   8.222   6.146   9.322  1.4151 -0.4101  0.5892
18665SOL     OW59782   2.804   5.694   1.077  0.2340 -0.2133  0.5999
18665SOL    HW159783   2.846   5.635   1.140  0.2245  0.8452  1.6276
18665SOL    HW259784   2.711   5.694   1.102  0.1006 -0.3279  0.1269
18666SOL     OW59785   8.460   5.905   7.875 -0.0318 -0.1163 -1.2893
18666SOL    HW159786   8.489   5.957   7.950  1.3401 -1.0547 -1.1219
18666SOL    HW259787   8.385   5.953   7.840  0.1845  1.0996 -0.1823
18667SOL     OW59788   0.801   4.539   0.777  0.6977 -0.0821 -0.2775
18667SOL    HW159789   0.845   4.623   0.761  1.3257 -0.2683  0.3613
18667SOL    HW259790   0.737   4.559   0.846  0.3095  0.0324 -0.6720
18668SOL     OW59791   9.169   9.387   9.525 -0.1061 -0.6111 -0.2246
18668SOL    HW159792   9.097   9.449   9.537  0.6287  0.4277 -0.9903
18668SOL    HW259793   9.144   9.334   9.449 -0.6522 -1.1383  0.3184
18669SOL     OW59794   9.959   6.082   2.024 -0.1760  0.6884 -0.4813
18669SOL    HW159795   9.934   6.141   1.953  0.3876 -0.2470 -1.4832
18669SOL    HW259796   9.910   6.113   2.100 -1.8690  0.8637 -1.6106
18670SOL     OW59797   5.907  10.231   9.357 -0.0781  0.1214  0.1605
18670SOL    HW159798   5.812  10.230   9.361 -0.3317  0.3723 -2.9853
18670SOL    HW259799   5.931  10.143   9.326  0.8083 -0.1525  1.5228
18671SOL     OW59800   0.955   1.764   4.205 -0.9862 -0.1187 -0.0653
18671SOL    HW159801   0.906   1.690   4.169  0.0523 -1.0454  0.3495
18671SOL    HW259802   1.041   1.759   4.164 -0.9626  1.0046 -0.1898
18672SOL     OW59803   9.829   6.216   4.896 -0.2786  0.5057  0.0693
18672SOL    HW159804   9.825   6.287   4.960  0.4593  1.1237 -0.5461
18672SOL    HW259805   9.825   6.260   4.811 -0.4858 -0.2462 -0.3258
18673SOL     OW59806   7.269   8.561   3.077 -0.2795  0.0380 -0.0977
18673SOL    HW159807   7.267   8.501   3.151  1.8604 -0.3010 -0.2334
18673SOL    HW259808   7.255   8.505   3.001  0.6795 -0.1603 -0.1462
18674SOL     OW59809   4.606   2.544   5.042  0.3887  0.5251  0.4095
18674SOL    HW159810   4.569   2.531   4.955  0.4063  1.2277  0.2948
18674SOL    HW259811   4.531   2.534   5.102  0.6909 -1.8435  0.4903
18675SOL     OW59812   8.731   9.222   7.001 -0.5594  0.3788 -0.5401
18675SOL    HW159813   8.659   9.249   7.058  0.6203  1.2850  0.5751
18675SOL    HW259814   8.810   9.259   7.042  0.6895 -1.5493 -1.0919
18676SOL     OW59815   0.995   0.683   5.539 -0.3934  0.0314  0.3681
18676SOL    HW159816   1.052   0.751   5.576 -1.5404  0.0433  2.1861
18676SOL    HW259817   0.927   0.731   5.493  0.4173  0.0273 -0.8953
18677SOL     OW59818   5.926   1.409   8.660 -0.1195 -0.2958 -0.1146
18677SOL    HW159819   5.914   1.501   8.636  0.4619 -0.4786 -1.1710
18677SOL    HW259820   5.896   1.404   8.751 -0.2545  0.9133 -0.0728
18678SOL     OW59821   0.466   5.135   0.938 -0.2641 -0.1908  0.2434
18678SOL    HW159822   0.379   5.102   0.917  0.1786 -0.6467 -0.9903
18678SOL    HW259823   0.454   5.188   1.016 -1.3934 -1.4472  0.9580
18679SOL     OW59824   0.105   1.516   1.054  0.2082 -0.0293 -0.1245
18679SOL    HW159825   0.131   1.608   1.065  1.6402 -0.6020  1.8707
18679SOL    HW259826   0.013   1.515   1.081  0.4125  0.6975  0.6599
18680SOL     OW59827   1.303   2.289   9.712  0.2024 -0.5669 -0.1240
18680SOL    HW159828   1.237   2.223   9.691 -0.3337  0.2733 -1.1767
18680SOL    HW259829   1.259   2.372   9.697  0.2596  0.1427  2.9234
18681SOL     OW59830   2.781   2.347   1.401  0.2247  0.2364  0.0157
18681SOL    HW159831   2.779   2.350   1.305  1.4070 -0.0757 -0.0265
18681SOL    HW259832   2.749   2.433   1.427 -1.1170 -0.0398 -0.6326
18682SOL     OW59833   2.239   8.744   0.911  0.6736  0.5326 -0.4367
18682SOL    HW159834   2.159   8.740   0.858  0.2406 -0.3500  0.2607
18682SOL    HW259835   2.310   8.737   0.847  0.1644 -1.8738 -0.8557
18683SOL     OW59836   8.087   7.381   2.126  0.4861  0.1346  0.3549
18683SOL    HW159837   8.176   7.409   2.106  0.5392  0.1007  0.5493
18683SOL    HW259838   8.096   7.293   2.163  0.2514 -0.5980 -1.2182
18684SOL     OW59839   2.770   4.838   8.283  0.1161 -0.3098  0.3303
18684SOL    HW159840   2.749   4.782   8.208  0.2348 -1.8215  1.3832
18684SOL    HW259841   2.742   4.925   8.256 -1.5935 -1.1373 -0.7766
18685SOL     OW59842   5.026   5.332   3.567 -0.1544 -0.2311  0.1161
18685SOL    HW159843   4.993   5.274   3.635 -0.7315  0.6203  0.5867
18685SOL    HW259844   5.120   5.339   3.584 -0.4472  0.7612  1.4578
18686SOL     OW59845   9.904  10.054   9.639  0.0548 -0.5168  0.1833
18686SOL    HW159846   9.942  10.084   9.721  0.2183 -2.1147  0.7364
18686SOL    HW259847   9.809  10.053   9.656 -0.1010  1.1649 -0.3888
18687SOL     OW59848   3.300   8.379   1.952 -0.1097  0.2581 -0.0574
18687SOL    HW159849   3.220   8.336   1.922  1.1394 -1.1369 -1.5776
18687SOL    HW259850   3.290   8.386   2.047 -1.0565 -2.0060  0.0618
18688SOL     OW59851  10.289   8.198   9.148 -0.7637 -0.1484 -0.1859
18688SOL    HW159852  10.245   8.218   9.066  1.4085 -0.1154 -1.4167
18688SOL    HW259853  10.375   8.164   9.122 -0.6721 -1.8626  2.0386
18689SOL     OW59854   8.597   8.566   5.345 -0.0578 -0.0909  0.2685
18689SOL    HW159855   8.668   8.557   5.281  0.1898 -1.9667  0.7332
18689SOL    HW259856   8.525   8.515   5.307 -1.1231  1.5915 -0.0845
18690SOL     OW59857   7.418  10.229   2.528 -0.4390  0.1101  0.2798
18690SOL    HW159858   7.447  10.276   2.449  0.5829 -1.0617 -0.0684
18690SOL    HW259859   7.353  10.167   2.496 -2.7806  2.0638  0.9219
18691SOL     OW59860   7.758   1.771   5.312  0.0704  0.1848  0.2068
18691SOL    HW159861   7.751   1.853   5.263 -1.8846  0.1248  0.2949
18691SOL    HW259862   7.668   1.737   5.314  0.6464 -1.3755  1.1706
18692SOL     OW59863   1.950   5.113   9.044 -0.6448  0.0337  0.1671
18692SOL    HW159864   1.980   5.160   9.122 -1.8139  1.0920  0.0041
18692SOL    HW259865   1.991   5.159   8.971 -2.0108  1.0363 -0.0099
18693SOL     OW59866   5.500   5.388   4.550 -0.2056 -0.6477 -0.1387
18693SOL    HW159867   5.510   5.422   4.461 -2.3707 -0.4949 -0.3856
18693SOL    HW259868   5.586   5.398   4.590  0.2417  1.4265 -1.4804
18694SOL     OW59869   6.797   3.744   8.070 -0.3274  0.4304 -0.2145
18694SOL    HW159870   6.724   3.762   8.129 -0.4415  0.4775 -0.3714
18694SOL    HW259871   6.875   3.767   8.122 -0.4081  0.1397  0.0395
18695SOL     OW59872   8.189   6.137   6.927 -0.6652 -0.1687 -0.1566
18695SOL    HW159873   8.280   6.123   6.899 -0.4614  0.2408  0.3054
18695SOL    HW259874   8.157   6.049   6.947 -0.9367 -0.5484 -2.0011
18696SOL     OW59875   9.708  10.017   2.054 -0.2422 -0.2866  0.2557
18696SOL    HW159876   9.757  10.066   1.988 -0.1791 -0.7559 -0.0474
18696SOL    HW259877   9.638  10.076   2.080  0.0567  0.1124  0.1679
18697SOL     OW59878   8.041   1.130   6.789  0.0608 -0.0696 -0.4711
18697SOL    HW159879   7.950   1.100   6.790 -0.5444  1.6446  0.3954
18697SOL    HW259880   8.048   1.186   6.866  2.0414 -0.6520 -0.1802
18698SOL     OW59881  10.228   1.631   0.020 -0.2140  0.1015 -1.0917
18698SOL    HW159882  10.229   1.712   0.071  0.0301 -0.7267  0.2667
18698SOL    HW259883  10.320   1.618  -0.005 -0.1819  0.0147 -0.9292
18699SOL     OW59884   4.137   9.838   8.836 -0.1252 -0.0235  0.1547
18699SOL    HW159885   4.142   9.881   8.921  0.0987 -1.7583  1.0551
18699SOL    HW259886   4.224   9.849   8.798  0.6930 -1.6367  1.4162
18700SOL     OW59887   3.058   9.675   6.956  0.0852 -0.3222  0.1862
18700SOL    HW159888   2.988   9.696   6.895 -0.3477 -1.3880  0.3058
18700SOL    HW259889   3.014   9.642   7.034  0.5473  2.2458  1.6532
18701SOL     OW59890   6.437   3.989   8.124  0.2135 -0.2628 -0.3120
18701SOL    HW159891   6.370   4.003   8.057  0.2088 -1.5014 -0.5881
18701SOL    HW259892   6.515   4.034   8.090 -0.4110  1.0697 -0.0512
18702SOL     OW59893   0.109   4.972   7.560 -0.2783  0.0435 -0.1608
18702SOL    HW159894   0.113   5.033   7.486 -0.1744 -0.0451 -0.2278
18702SOL    HW259895   0.155   4.894   7.529  0.5225  0.3269  0.3045
18703SOL     OW59896   0.320   0.002   6.757 -0.1917  0.2248  0.4168
18703SOL    HW159897   0.226   0.008   6.742 -0.5046 -0.8080  1.7656
18703SOL    HW259898   0.358  -0.007   6.669 -1.4488 -0.6274 -0.0648
18704SOL     OW59899   5.788   9.410   5.935 -0.0159 -0.5741  0.4046
18704SOL    HW159900   5.883   9.404   5.951  0.1558  0.2382 -0.2586
18704SOL    HW259901   5.777   9.371   5.848 -0.1957 -0.0870  0.2058
18705SOL     OW59902   9.007   3.387   1.652  0.4319 -0.4523 -0.3731
18705SOL    HW159903   9.033   3.314   1.596 -0.8556 -0.8262 -0.5066
18705SOL    HW259904   8.914   3.373   1.669  0.4409  0.5023  0.5937
18706SOL     OW59905   1.933   0.825   6.428  0.3707 -0.0061  0.0481
18706SOL    HW159906   1.991   0.864   6.493 -0.2175  0.2759  0.4179
18706SOL    HW259907   1.852   0.877   6.434  0.6101  0.6079 -1.5315
18707SOL     OW59908   5.636   7.222   3.761  0.2028 -0.1934 -0.0142
18707SOL    HW159909   5.601   7.154   3.818  1.7385 -1.1990 -0.1881
18707SOL    HW259910   5.582   7.299   3.777 -1.2268 -1.2987  0.6165
18708SOL     OW59911   9.042   4.905   9.414 -0.4679 -0.3047  0.2115
18708SOL    HW159912   9.021   4.843   9.485  0.4425 -1.0765 -0.1603
18708SOL    HW259913   9.116   4.864   9.369 -1.0688  0.1599 -1.2228
18709SOL     OW59914   7.837   4.104   8.328 -0.3022  0.4582 -0.4422
18709SOL    HW159915   7.850   4.196   8.307  1.4146  0.4484  0.4013
18709SOL    HW259916   7.925   4.071   8.347 -0.8373 -1.4326 -1.0078
18710SOL     OW59917   9.347   9.158   8.667  0.1429 -0.0877 -0.4835
18710SOL    HW159918   9.386   9.106   8.738 -1.0573  2.1982  2.0443
18710SOL    HW259919   9.270   9.108   8.641 -0.0713 -0.4282  0.7136
18711SOL     OW59920   7.676   0.047   9.414 -0.4066 -0.0627 -0.3145
18711SOL    HW159921   7.662  -0.043   9.386  1.1858 -0.2971 -0.4575
18711SOL    HW259922   7.659   0.100   9.336 -0.4550 -0.3168 -0.4781
18712SOL     OW59923   7.989   0.199   4.776  0.2114  0.2234 -0.0345
18712SOL    HW159924   8.012   0.263   4.710  0.1898  1.5022  1.1497
18712SOL    HW259925   8.046   0.219   4.850 -2.2864  1.2939  1.7228
18713SOL     OW59926   5.701   2.942   8.216  0.1566 -0.1494  0.1417
18713SOL    HW159927   5.701   2.865   8.272 -0.1121 -0.0959  0.2216
18713SOL    HW259928   5.793   2.957   8.194  0.2575 -0.2227  0.5003
18714SOL     OW59929   5.915   9.217   2.042 -0.4836  0.5472 -0.1178
18714SOL    HW159930   5.988   9.239   2.099 -0.0730 -1.0100 -0.0030
18714SOL    HW259931   5.839   9.259   2.082  0.0596  0.7129  0.7461
18715SOL     OW59932   0.507   6.854   1.778  0.1009 -0.2389  0.9436
18715SOL    HW159933   0.546   6.880   1.695  2.0594  0.3798  2.0083
18715SOL    HW259934   0.570   6.883   1.845 -1.3268 -0.8674  2.6402
18716SOL     OW59935   6.854   8.798   2.273  0.2795  0.3634 -0.4985
18716SOL    HW159936   6.892   8.785   2.360 -1.4366 -2.2703 -0.0092
18716SOL    HW259937   6.908   8.745   2.215 -0.1431 -0.0269 -0.5405
18717SOL     OW59938  10.165   8.311  10.042  0.2167  0.3933 -0.4044
18717SOL    HW159939  10.165   8.294  10.137 -0.6827 -0.0481 -0.4706
18717SOL    HW259940  10.244   8.267  10.011  0.3999  0.3466  0.1097
18718SOL     OW59941   6.891   2.767   2.480 -0.2220 -0.6432  0.5027
18718SOL    HW159942   6.978   2.790   2.514 -0.7346  1.7409  0.3902
18718SOL    HW259943   6.909   2.726   2.396  0.8230 -1.0269  0.8876
18719SOL     OW59944   6.378   4.427   7.515 -0.5997 -0.0198  0.2118
18719SOL    HW159945   6.473   4.421   7.511 -0.3993  2.0073  0.6470
18719SOL    HW259946   6.355   4.394   7.603 -0.2080  0.2540  0.4181
18720SOL     OW59947   2.667   1.627   7.228  0.5265  0.2454  0.1198
18720SOL    HW159948   2.591   1.684   7.223  0.1932 -0.2364 -0.4832
18720SOL    HW259949   2.713   1.642   7.145  1.6616  1.3068  0.9122
18721SOL     OW59950   8.671   5.292   2.497  0.2320  0.2711 -0.5849
18721SOL    HW159951   8.606   5.222   2.506  0.5965 -0.0465 -0.3902
18721SOL    HW259952   8.684   5.302   2.403  2.2634 -1.8888 -0.6185
18722SOL     OW59953   0.941   4.882   5.451 -0.2382  1.0271 -0.5232
18722SOL    HW159954   0.861   4.837   5.422  0.6297 -1.6003  0.7867
18722SOL    HW259955   0.970   4.831   5.527  3.5206  0.9159 -1.8306
18723SOL     OW59956   5.754   2.367   7.000  0.4055 -0.4742 -0.0349
18723SOL    HW159957   5.720   2.344   6.913  0.9275 -1.0786 -0.0813
18723SOL    HW259958   5.702   2.315   7.061 -2.3076  2.3507  0.3492
18724SOL     OW59959   5.947   2.398   7.216 -0.3480  0.7875 -0.4714
18724SOL    HW159960   5.902   2.444   7.287 -0.4003  1.5838 -1.0073
18724SOL    HW259961   5.881   2.389   7.148 -0.5552 -0.7548 -0.1160
18725SOL     OW59962   9.223   8.474   4.513 -0.6093 -0.0489  0.0881
18725SOL    HW159963   9.147   8.422   4.486 -2.0010  0.9190  1.9258
18725SOL    HW259964   9.188   8.561   4.531  1.1578  0.7377 -0.0770
18726SOL     OW59965   8.485   3.190   7.565 -0.2691 -0.5057  0.0675
18726SOL    HW159966   8.455   3.280   7.577  1.7828  0.0978  1.0505
18726SOL    HW259967   8.477   3.175   7.470 -0.7805  0.6367 -0.0882
18727SOL     OW59968   0.260   6.599   7.853 -0.8487  0.1627  0.2902
18727SOL    HW159969   0.168   6.625   7.843 -1.1121 -0.9880 -0.3619
18727SOL    HW259970   0.267   6.516   7.807  0.2291 -0.3971  1.4037
18728SOL     OW59971   5.428   4.319   7.997 -0.4819  0.5633  0.2254
18728SOL    HW159972   5.358   4.383   8.005 -0.8030  0.2373  0.0810
18728SOL    HW259973   5.387   4.235   8.019 -0.1682  0.3529  0.0246
18729SOL     OW59974   1.586   0.029   7.178  0.3956  0.4589 -0.1915
18729SOL    HW159975   1.501  -0.013   7.164  0.5418  0.4866 -1.2757
18729SOL    HW259976   1.597   0.086   7.101  0.4366  2.1044  0.9769
18730SOL     OW59977   8.077  10.029   1.255  0.1088  0.2144 -0.5212
18730SOL    HW159978   8.025   9.983   1.321 -1.0717 -0.4567 -1.8968
18730SOL    HW259979   8.021  10.101   1.225 -0.5475 -1.1572 -2.7983
18731SOL     OW59980   4.163   7.911   4.529  0.4265  0.1324  0.3783
18731SOL    HW159981   4.186   7.821   4.551 -0.5411 -0.6030 -1.4317
18731SOL    HW259982   4.225   7.935   4.460  0.9921  1.0539  1.1752
18732SOL     OW59983   1.387   8.568   7.165  0.2077 -0.0437 -0.2644
18732SOL    HW159984   1.387   8.504   7.236 -0.5366 -1.5668 -1.5483
18732SOL    HW259985   1.333   8.641   7.198  0.4250 -0.4129  0.9529
18733SOL     OW59986   4.743   1.865   1.612 -0.3805 -0.3661  0.0700
18733SOL    HW159987   4.720   1.775   1.634 -1.5428 -0.9423 -2.9618
18733SOL    HW259988   4.666   1.916   1.636 -0.5839 -0.5481 -0.1880
18734SOL     OW59989   6.220   2.967   1.860  0.1949  0.2018 -0.3641
18734SOL    HW159990   6.254   2.960   1.771 -1.2524  1.3684 -1.0495
18734SOL    HW259991   6.198   2.877   1.884 -1.6191  0.0893 -2.1509
18735SOL     OW59992  10.098   1.956   5.643 -0.4832  0.0100 -0.4622
18735SOL    HW159993  10.131   1.868   5.624 -0.7257 -0.0552 -0.5867
18735SOL    HW259994  10.003   1.950   5.631 -0.4810  0.3396 -0.6795
18736SOL     OW59995   8.041   7.729   6.860  0.3791  0.1381  0.0164
18736SOL    HW159996   8.094   7.703   6.785 -1.9939  0.9534 -2.0876
18736SOL    HW259997   8.010   7.646   6.898  0.0665 -0.2740 -1.1099
18737SOL     OW59998   4.231  10.043   1.093 -0.5056 -0.6201 -0.1004
18737SOL    HW159999   4.228   9.974   1.027 -2.5293 -0.4267 -0.2630
18737SOL    HW260000   4.139  10.064   1.110 -0.0389 -0.2479  2.3575
18738SOL     OW60001   7.949   3.848   2.387 -0.2082 -0.2567  0.2765
18738SOL    HW160002   7.981   3.930   2.426 -0.3991  0.9250 -1.9272
18738SOL    HW260003   7.854   3.860   2.382 -0.2908 -0.8421  0.3880
18739SOL     OW60004   2.364   3.211   7.735 -0.6502  0.0910  0.0240
18739SOL    HW160005   2.436   3.253   7.687 -2.0286  1.6384 -0.7822
18739SOL    HW260006   2.379   3.235   7.826 -1.2703  2.2221 -0.3956
18740SOL     OW60007   9.267   6.175   0.115 -0.6953  0.0209 -0.5641
18740SOL    HW160008   9.194   6.162   0.176 -1.8026 -0.7884 -2.0013
18740SOL    HW260009   9.342   6.132   0.157 -0.6489  2.0257  1.5590
18741SOL     OW60010   2.295   5.807   3.017  0.2836 -0.0588  0.0773
18741SOL    HW160011   2.212   5.852   3.003  0.8969  0.9728 -0.3475
18741SOL    HW260012   2.347   5.829   2.940  1.1909 -0.1224  0.6615
18742SOL     OW60013   6.331   3.189   7.807 -0.3068  0.5142  0.2589
18742SOL    HW160014   6.300   3.112   7.854  2.0631 -0.2459  0.6925
18742SOL    HW260015   6.344   3.159   7.717  0.3510  0.4740  0.3642
18743SOL     OW60016   1.720   2.212   3.138  0.9983 -0.2661 -0.1346
18743SOL    HW160017   1.781   2.174   3.200  0.5477 -0.1999  0.3579
18743SOL    HW260018   1.641   2.158   3.145  0.3890  0.6677  0.5023
18744SOL     OW60019   1.806   1.892   5.488  0.6403  0.0251  0.0696
18744SOL    HW160020   1.836   1.909   5.577  1.6977 -0.0705 -0.2562
18744SOL    HW260021   1.841   1.964   5.436  0.7944 -0.3958 -0.4251
18745SOL     OW60022   2.712   1.771   1.344  0.3213  0.5086  0.1352
18745SOL    HW160023   2.672   1.731   1.421 -0.5455  0.9803 -0.0603
18745SOL    HW260024   2.674   1.858   1.339 -0.1383  0.2604 -1.1822
18746SOL     OW60025   4.649   5.915   2.977  0.4601  0.0764 -0.1760
18746SOL    HW160026   4.638   5.996   3.026 -2.0377  1.0729 -2.1943
18746SOL    HW260027   4.672   5.943   2.889 -0.9023 -1.3661 -1.0331
18747SOL     OW60028   0.652   5.463   9.413 -0.0728 -0.0680 -0.3051
18747SOL    HW160029   0.677   5.387   9.362  2.1839 -0.2619  0.9630
18747SOL    HW260030   0.662   5.537   9.354  0.1242 -0.5212 -0.8417
18748SOL     OW60031   6.340   8.631   9.089 -0.4988 -1.2903 -0.1238
18748SOL    HW160032   6.431   8.641   9.061 -0.8990 -1.3922 -1.5595
18748SOL    HW260033   6.309   8.554   9.041 -0.6851 -2.6971  2.1467
18749SOL     OW60034   9.009   4.327   7.492  0.0857  0.4482 -0.0999
18749SOL    HW160035   9.078   4.266   7.515 -0.4180 -0.1774 -0.2268
18749SOL    HW260036   8.936   4.272   7.463  0.1769  1.1404 -1.7854
18750SOL     OW60037   4.443   6.101   3.580 -0.1945 -0.0036  0.1436
18750SOL    HW160038   4.522   6.150   3.557 -0.0666 -0.6242 -0.7674
18750SOL    HW260039   4.455   6.015   3.541 -2.4080  0.6428 -2.2346
18751SOL     OW60040   6.673   8.628   7.681  0.0845 -0.1625  0.1245
18751SOL    HW160041   6.635   8.673   7.756  1.6076  2.0388 -0.3154
18751SOL    HW260042   6.768   8.632   7.696  0.3424 -1.3063 -1.0350
18752SOL     OW60043   4.013   3.550   3.032 -0.4983 -0.0476  0.7658
18752SOL    HW160044   3.951   3.617   3.003 -0.3432 -1.0219 -2.1023
18752SOL    HW260045   4.098   3.592   3.029 -0.2430 -0.5338 -2.1987
18753SOL     OW60046   8.296   3.759   7.660 -0.1445  0.0462 -0.4605
18753SOL    HW160047   8.328   3.704   7.589  0.8803 -1.6029  1.1682
18753SOL    HW260048   8.374   3.806   7.690 -0.2277 -0.4020  0.4962
18754SOL     OW60049   2.559   1.657   2.869  0.0607  0.2198 -0.3975
18754SOL    HW160050   2.501   1.723   2.908 -0.1669  0.3667 -0.9775
18754SOL    HW260051   2.542   1.578   2.920  1.1187  0.8646  1.0035
18755SOL     OW60052   6.827   9.656   2.851  0.3884 -0.2140  0.6324
18755SOL    HW160053   6.894   9.716   2.884 -0.5155 -0.5030  3.2237
18755SOL    HW260054   6.838   9.577   2.904 -0.4881 -1.1664 -0.5580
18756SOL     OW60055   1.227   7.139   1.149  0.3969  0.3679 -0.4951
18756SOL    HW160056   1.213   7.106   1.238  2.0787  0.1086 -0.2798
18756SOL    HW260057   1.198   7.230   1.152  1.2587  0.6328  0.6014
18757SOL     OW60058   5.840   1.562   6.328  0.0959  0.0886  0.0871
18757SOL    HW160059   5.844   1.471   6.360 -0.6626 -0.2392 -0.7083
18757SOL    HW260060   5.913   1.568   6.266  0.9063  0.4094  1.0311
18758SOL     OW60061   4.507   2.917   5.715  0.2501 -0.4167 -0.4357
18758SOL    HW160062   4.588   2.924   5.664 -0.8231 -1.8115 -2.4459
18758SOL    HW260063   4.446   2.975   5.671  0.1023  0.6005  1.0560
18759SOL     OW60064   3.642   3.559   5.302  0.0312  0.1877 -0.2739
18759SOL    HW160065   3.577   3.546   5.371  0.9328 -1.3692  0.3342
18759SOL    HW260066   3.668   3.471   5.276  1.9325  0.7435 -0.4383
18760SOL     OW60067   2.526   2.809   0.806 -0.2291 -0.1903 -0.4075
18760SOL    HW160068   2.522   2.895   0.848 -0.0448 -0.5922  0.4411
18760SOL    HW260069   2.506   2.747   0.876 -2.0141 -0.7541 -1.3511
18761SOL     OW60070   9.487   0.421   2.955 -0.2759 -0.0690 -0.3238
18761SOL    HW160071   9.563   0.424   3.013  0.7083  0.2198 -1.5929
18761SOL    HW260072   9.420   0.376   3.007 -0.3617  2.5545  2.0725
18762SOL     OW60073   3.122   3.814   9.849 -0.2220  0.2254 -0.2974
18762SOL    HW160074   3.214   3.830   9.826  0.1963 -2.4137 -0.7901
18762SOL    HW260075   3.125   3.786   9.941  0.0460 -3.2771 -1.2281
18763SOL     OW60076   1.943   8.321   6.435 -0.4033 -0.2333  0.5226
18763SOL    HW160077   1.916   8.410   6.410  1.0910  0.4848  1.3199
18763SOL    HW260078   1.871   8.289   6.489 -1.4493  0.0642 -0.6642
18764SOL     OW60079   9.515   5.338   1.275  0.6201  1.1983  0.1288
18764SOL    HW160080   9.511   5.363   1.367 -1.2177 -0.3420  0.5179
18764SOL    HW260081   9.440   5.281   1.262  2.2464 -0.6806 -1.7271
18765SOL     OW60082   3.219   5.810   5.138 -0.1040  0.3102 -0.3831
18765SOL    HW160083   3.258   5.747   5.077  0.3129 -0.0388  0.2274
18765SOL    HW260084   3.144   5.763   5.176 -0.2013  0.4291 -0.4271
18766SOL     OW60085   1.857   6.405   1.418  0.1913 -0.3625  0.3874
18766SOL    HW160086   1.771   6.381   1.385  0.2777 -0.5588  0.3048
18766SOL    HW260087   1.839   6.467   1.489  0.0307  0.6735 -0.5196
18767SOL     OW60088   5.881   3.135   4.726 -0.1478 -0.1782  0.0237
18767SOL    HW160089   5.967   3.094   4.711  1.2169  2.5998 -0.4294
18767SOL    HW260090   5.847   3.152   4.638  0.2992  1.4785  0.1412
18768SOL     OW60091   9.293   6.244   1.282  0.3742 -0.7843 -0.3323
18768SOL    HW160092   9.234   6.209   1.349  1.1354 -0.1970  0.6778
18768SOL    HW260093   9.262   6.334   1.268  1.3561 -0.2603  0.6551
18769SOL     OW60094   4.754  10.345   2.675 -0.0133 -0.6488 -0.1418
18769SOL    HW160095   4.840  10.355   2.635  0.0798 -0.8514  0.0073
18769SOL    HW260096   4.771  10.347   2.769 -0.0624 -1.5701 -0.1019
18770SOL     OW60097   3.312   1.085   2.994  0.2628  0.6864 -0.6024
18770SOL    HW160098   3.268   1.017   2.942 -0.0506 -0.5004  1.1407
18770SOL    HW260099   3.284   1.069   3.084  0.6007  2.8289 -0.0521
18771SOL     OW60100   4.097   6.217   2.112  0.5801 -0.1833 -0.1539
18771SOL    HW160101   4.018   6.236   2.163  0.7209 -0.9560  0.3735
18771SOL    HW260102   4.126   6.302   2.081 -0.4294  0.1221 -0.3081
18772SOL     OW60103   5.743   7.835   8.388  0.0991  0.0426  0.2204
18772SOL    HW160104   5.650   7.818   8.374 -0.2568  0.7967  1.5132
18772SOL    HW260105   5.745   7.910   8.447  1.4929 -0.8535  1.3936
18773SOL     OW60106   5.534   0.774   7.108 -0.5086  0.2700 -0.5764
18773SOL    HW160107   5.512   0.812   7.023  0.0062  2.6592  0.2693
18773SOL    HW260108   5.452   0.771   7.156 -0.6722 -0.3589 -0.8981
18774SOL     OW60109   5.711   6.148   1.008 -0.0915  0.1903 -0.1838
18774SOL    HW160110   5.690   6.092   1.083  2.7246 -1.1870 -0.2688
18774SOL    HW260111   5.769   6.215   1.043  3.2257 -1.8417 -1.3222
18775SOL     OW60112   7.252   3.333   2.029 -0.0516  0.1195  0.0891
18775SOL    HW160113   7.293   3.368   2.108  0.1707 -0.0413  0.0474
18775SOL    HW260114   7.178   3.281   2.061 -1.2831  1.8048  0.0783
18776SOL     OW60115   1.407   6.245   8.820  0.1880 -0.1637 -0.6762
18776SOL    HW160116   1.494   6.239   8.859 -1.0906 -0.5907  2.4035
18776SOL    HW260117   1.390   6.157   8.787  0.2434 -0.6392  0.4874
18777SOL     OW60118   3.306   7.652   5.021  0.0635 -0.1181  0.1726
18777SOL    HW160119   3.267   7.566   5.036  1.0822 -0.8145 -1.0452
18777SOL    HW260120   3.230   7.711   5.016 -0.6308 -0.8640  1.3353
18778SOL     OW60121   8.501   2.119   7.253 -0.1363 -0.0483  0.4209
18778SOL    HW160122   8.493   2.182   7.325 -1.0494  0.2641  0.0578
18778SOL    HW260123   8.567   2.157   7.196  1.1502 -0.6630  1.4446
18779SOL     OW60124   5.154   8.871   9.201 -0.2425 -0.1365 -0.0422
18779SOL    HW160125   5.234   8.890   9.152 -0.8347 -0.7893 -1.2975
18779SOL    HW260126   5.160   8.928   9.278  2.5296 -1.8340  1.1322
18780SOL     OW60127   9.773   5.374   0.499 -0.1701 -0.3016 -0.2401
18780SOL    HW160128   9.804   5.333   0.418  0.4110 -0.5755  0.1154
18780SOL    HW260129   9.731   5.455   0.470 -1.1540 -1.0299 -0.9302
18781SOL     OW60130   1.736   7.236   0.625  0.3872 -0.1294  0.5002
18781SOL    HW160131   1.643   7.254   0.635  0.6323  1.3028  0.4221
18781SOL    HW260132   1.740   7.145   0.596 -0.9167 -0.6045  1.6990
18782SOL     OW60133   4.261   8.311   3.791  0.4493  0.5435 -0.5325
18782SOL    HW160134   4.192   8.313   3.857  0.4260 -1.0651 -0.4539
18782SOL    HW260135   4.342   8.326   3.841  0.4297 -0.6558 -0.0937
18783SOL     OW60136   0.321   8.634   1.159  0.1385  0.7244  0.5017
18783SOL    HW160137   0.247   8.628   1.099 -0.5939 -0.4671  1.4685
18783SOL    HW260138   0.287   8.681   1.235  0.5525  0.7432  0.6769
18784SOL     OW60139   9.890   7.796   8.491 -0.2481 -0.5080 -1.0480
18784SOL    HW160140   9.934   7.803   8.407 -0.0732 -0.3710 -0.9448
18784SOL    HW260141   9.900   7.882   8.532 -0.2094 -0.6150 -0.8283
18785SOL     OW60142   6.535   7.632   8.898 -0.5113 -0.0896 -0.1540
18785SOL    HW160143   6.533   7.598   8.988  0.9910 -1.2857 -0.5227
18785SOL    HW260144   6.601   7.701   8.901  2.4946 -2.6978 -1.0594
18786SOL     OW60145   9.304   4.356   5.341  0.0881  0.5295 -0.4197
18786SOL    HW160146   9.264   4.430   5.295 -1.7201 -0.3860 -0.4283
18786SOL    HW260147   9.253   4.280   5.313  2.0175 -0.7788 -0.5667
18787SOL     OW60148   9.952   0.180   3.817  0.1808  0.3181  0.1194
18787SOL    HW160149   9.935   0.272   3.797 -0.5733  0.3627  0.8877
18787SOL    HW260150   9.914   0.167   3.905  1.9505 -0.2499  0.8377
18788SOL     OW60151   3.142   0.122   2.613  0.0394  0.4533 -0.1604
18788SOL    HW160152   3.148   0.169   2.529  1.8708  0.5277 -0.0406
18788SOL    HW260153   3.105   0.186   2.674  1.8633  1.5980 -0.1555
18789SOL     OW60154   4.891  10.031   3.635 -0.2792 -0.8405 -0.3976
18789SOL    HW160155   4.817  10.090   3.618 -1.0844 -1.0080  2.0465
18789SOL    HW260156   4.910   9.991   3.551 -2.6293 -0.3640 -1.2271
18790SOL     OW60157   6.542   6.621   6.720 -0.1393  0.4974 -0.2927
18790SOL    HW160158   6.453   6.658   6.717 -0.5638 -0.4629  0.0659
18790SOL    HW260159   6.560   6.610   6.814 -0.6458 -1.6177 -0.3935
18791SOL     OW60160   6.532   5.240   9.535  0.4056 -0.1347 -0.3592
18791SOL    HW160161   6.581   5.264   9.456  0.9169 -0.5232 -0.1589
18791SOL    HW260162   6.550   5.147   9.548 -0.9966 -0.4836 -0.7176
18792SOL     OW60163   4.496   2.963   1.232  0.2646 -0.0556  0.0065
18792SOL    HW160164   4.466   2.940   1.145  0.5506 -0.4336  0.0051
18792SOL    HW260165   4.475   3.056   1.241  2.3008  0.5922 -1.3450
18793SOL     OW60166   3.460   7.130   0.358 -0.3614 -0.8568 -0.1446
18793SOL    HW160167   3.530   7.073   0.388  0.0928 -0.2531 -0.0513
18793SOL    HW260168   3.393   7.069   0.325 -0.4634 -1.5020  1.1806
18794SOL     OW60169   8.870   8.238   3.225  0.2456 -0.3304  0.1757
18794SOL    HW160170   8.843   8.223   3.316 -0.6463  0.4662  0.0577
18794SOL    HW260171   8.890   8.150   3.192  0.9857 -0.5827  1.2554
18795SOL     OW60172   4.144   6.364   1.653 -0.2718 -0.0467 -0.3084
18795SOL    HW160173   4.216   6.411   1.696  1.2309 -0.3264 -2.3462
18795SOL    HW260174   4.125   6.291   1.711  2.4960 -1.1012 -0.5529
18796SOL     OW60175   9.811   8.877   3.738  0.7793 -0.3746  0.4492
18796SOL    HW160176   9.806   8.860   3.644  1.7937 -1.0712  0.5050
18796SOL    HW260177   9.886   8.935   3.749  0.2885  0.2223  0.7821
18797SOL     OW60178   7.053   6.168   0.345  0.0035 -0.3034  0.1322
18797SOL    HW160179   6.964   6.194   0.324 -1.1791 -1.2035  3.4575
18797SOL    HW260180   7.060   6.078   0.314 -0.3899 -0.3641  0.2168
18798SOL     OW60181   3.124   5.126   1.470 -0.0297  0.0252  0.6356
18798SOL    HW160182   3.185   5.131   1.543  0.4533 -1.1660  0.3438
18798SOL    HW260183   3.175   5.084   1.400 -0.7401  0.3767 -0.1054
18799SOL     OW60184   6.736   3.235   1.465  0.3477  0.0395  0.2252
18799SOL    HW160185   6.711   3.301   1.400  0.9273 -0.2772 -0.3292
18799SOL    HW260186   6.774   3.286   1.536  3.0667  0.2205 -1.2276
18800SOL     OW60187   2.478   0.511   6.987  0.4896  0.5780 -0.0106
18800SOL    HW160188   2.525   0.594   7.002 -0.0088  0.8141  0.2635
18800SOL    HW260189   2.390   0.538   6.960  0.4226  0.1371 -0.2275
18801SOL     OW60190   0.568   8.116   4.331 -0.2023  0.0029  0.0775
18801SOL    HW160191   0.612   8.180   4.275 -0.0603 -1.1111 -1.1337
18801SOL    HW260192   0.630   8.099   4.402  0.7023 -0.4329 -0.7993
18802SOL     OW60193   1.850   6.409   4.285 -0.2496 -0.9005 -0.6294
18802SOL    HW160194   1.893   6.411   4.200 -2.2646 -1.3816 -1.7287
18802SOL    HW260195   1.765   6.368   4.268 -0.7624 -0.9025  1.6004
18803SOL     OW60196   0.345   8.827   0.363 -0.1114 -0.6892  0.9976
18803SOL    HW160197   0.262   8.785   0.386 -0.3757 -0.2996  0.7628
18803SOL    HW260198   0.344   8.909   0.413  0.6694 -1.2207  1.9266
18804SOL     OW60199   7.513   3.471   4.444  0.4481 -0.3181 -0.1710
18804SOL    HW160200   7.439   3.491   4.501  1.0846  0.1266  0.5131
18804SOL    HW260201   7.561   3.553   4.436  0.4691 -0.4129 -1.2244
18805SOL     OW60202   9.992   7.476   0.161  0.1260 -0.1396 -0.0380
18805SOL    HW160203   9.965   7.408   0.099  0.7896  1.0558 -1.6873
18805SOL    HW260204   9.988   7.557   0.111  0.8503  0.8520  1.4516
18806SOL     OW60205   1.448   3.368   6.127  0.2029 -0.3139 -0.2042
18806SOL    HW160206   1.440   3.417   6.044  1.7814  0.4638  0.0652
18806SOL    HW260207   1.462   3.278   6.100 -0.5209 -0.2702 -0.7571
18807SOL     OW60208   8.993   9.035   9.077 -0.4027 -0.4538 -0.9525
18807SOL    HW160209   8.984   9.130   9.072 -0.9706 -0.5261 -1.3684
18807SOL    HW260210   8.927   9.008   9.141  0.4634 -0.4722 -0.0402
18808SOL     OW60211   1.920   3.520   6.674 -0.5243  0.2494  0.1322
18808SOL    HW160212   1.967   3.438   6.657 -0.6603 -0.2929  2.1158
18808SOL    HW260213   1.873   3.538   6.593 -1.2195 -2.1308 -0.0599
18809SOL     OW60214   9.653   6.531   6.324  0.2575  0.0159 -0.3210
18809SOL    HW160215   9.697   6.515   6.408 -0.3464  1.0404  0.2034
18809SOL    HW260216   9.618   6.445   6.299  1.6636 -0.6055 -0.2487
18810SOL     OW60217   0.416   9.282   7.264  0.2110  0.2311 -0.2640
18810SOL    HW160218   0.424   9.220   7.337 -2.1973  0.2259  0.0765
18810SOL    HW260219   0.399   9.366   7.307  0.7421  0.6131 -0.7918
18811SOL     OW60220   1.333   9.186   7.913 -0.0063  0.2615  0.3597
18811SOL    HW160221   1.378   9.227   7.987 -0.8664 -0.3386  1.2376
18811SOL    HW260222   1.392   9.117   7.884  0.9748  1.3884 -0.4520
18812SOL     OW60223   7.084   9.017  10.044  0.1835 -0.1630  0.1595
18812SOL    HW160224   7.010   9.063  10.084  0.9205  0.2859  1.0306
18812SOL    HW260225   7.045   8.939  10.004 -0.9080  0.6141 -0.3255
18813SOL     OW60226   4.971   3.713   8.890 -0.2458 -0.3898 -0.5694
18813SOL    HW160227   5.003   3.708   8.980 -1.3741 -0.0537 -0.1334
18813SOL    HW260228   5.042   3.757   8.843 -1.1761  3.2647  1.0163
18814SOL     OW60229   0.381   4.303   3.100  0.2925  0.4549  0.0369
18814SOL    HW160230   0.324   4.226   3.097 -1.8186  1.9322  0.3414
18814SOL    HW260231   0.397   4.318   3.193  0.7083  0.3850 -0.0218
18815SOL     OW60232   5.289   1.235  10.194  0.2114  0.2487 -0.0260
18815SOL    HW160233   5.306   1.196  10.108 -1.8078  2.2845 -1.5145
18815SOL    HW260234   5.222   1.179  10.233 -1.8195  1.3561 -1.6412
18816SOL     OW60235   4.119   2.275   3.149  0.2373 -0.1080  0.0290
18816SOL    HW160236   4.201   2.301   3.107  1.2136 -1.6189  0.9064
18816SOL    HW260237   4.086   2.203   3.095 -1.2824  1.3623 -1.1114
18817SOL     OW60238   2.142   2.207   5.494  0.0561 -0.1922  0.0647
18817SOL    HW160239   2.168   2.284   5.443  1.5723 -1.8399 -1.8001
18817SOL    HW260240   2.222   2.182   5.541 -0.7759  0.0788  1.6939
18818SOL     OW60241   0.749   9.887   0.621 -0.3173 -0.3879  0.2934
18818SOL    HW160242   0.674   9.836   0.588 -0.6200 -1.1559  2.0486
18818SOL    HW260243   0.712   9.943   0.688  0.7449 -1.1609  1.5645
18819SOL     OW60244   5.622   2.442   9.294  0.1377 -0.2641 -0.3739
18819SOL    HW160245   5.550   2.391   9.257  0.0526  0.6910 -1.6153
18819SOL    HW260246   5.694   2.428   9.233  0.5641 -0.0929  0.0890
18820SOL     OW60247   8.507   7.895   9.621  0.3876 -0.3339  0.0316
18820SOL    HW160248   8.543   7.980   9.645 -0.8591  0.2327 -0.0178
18820SOL    HW260249   8.549   7.833   9.681  1.5509  0.2560 -0.1503
18821SOL     OW60250   9.476   1.291   7.843 -0.1428  0.3357 -0.1799
18821SOL    HW160251   9.463   1.281   7.749 -0.1062  1.3803 -0.3167
18821SOL    HW260252   9.571   1.304   7.853  0.2079 -2.1151  0.2716
18822SOL     OW60253   2.475   0.755  10.012  0.3329 -0.2847  0.2123
18822SOL    HW160254   2.456   0.827   9.953 -2.0230  0.3339  1.5792
18822SOL    HW260255   2.510   0.686   9.956 -0.2085  0.8504 -1.6076
18823SOL     OW60256   7.710   1.614   8.624 -0.1257 -0.0048  0.1995
18823SOL    HW160257   7.725   1.619   8.718  0.5779 -1.3365  0.1833
18823SOL    HW260258   7.773   1.549   8.593 -0.0955  0.6744 -1.2527
18824SOL     OW60259   7.562   4.795   1.842 -1.1798 -0.0846  0.3670
18824SOL    HW160260   7.529   4.881   1.865 -0.1945  0.0898  1.1836
18824SOL    HW260261   7.656   4.808   1.827 -1.1621 -0.8630 -0.3264
18825SOL     OW60262   6.007   0.981   1.090  0.0815  0.1951  0.2857
18825SOL    HW160263   5.937   0.940   1.141 -1.2297  0.1910 -1.4285
18825SOL    HW260264   5.988   1.074   1.093 -0.4626  0.1333 -0.7982
18826SOL     OW60265   5.821   9.804   2.227  0.0952 -0.4656  0.7734
18826SOL    HW160266   5.750   9.817   2.290 -0.1168 -2.0403  0.8972
18826SOL    HW260267   5.791   9.847   2.148 -0.5056 -0.1433  1.1688
18827SOL     OW60268   5.020   4.096   7.939 -0.0509 -0.2843  0.6869
18827SOL    HW160269   4.936   4.050   7.946 -0.7088  0.4608 -1.4582
18827SOL    HW260270   4.996   4.186   7.916  1.3173  0.1479  0.8778
18828SOL     OW60271   2.018   6.432   0.391  0.5473  0.0069  0.5899
18828SOL    HW160272   1.930   6.459   0.415  0.8617  1.5107  0.1616
18828SOL    HW260273   2.006   6.366   0.324 -0.2553 -0.3239  1.0527
18829SOL     OW60274   1.020   0.675   5.217 -0.5368  0.4252  0.0221
18829SOL    HW160275   0.985   0.764   5.211  0.4680  0.7416 -1.4768
18829SOL    HW260276   1.113   0.685   5.200  0.0317 -0.6396  2.1588
18830SOL     OW60277  10.341   8.277   7.245 -0.0761  0.0370  0.4090
18830SOL    HW160278  10.392   8.211   7.290 -0.8418  0.3923  1.8872
18830SOL    HW260279  10.392   8.358   7.255 -0.7737  0.3572  1.7410
18831SOL     OW60280   0.519   2.978   4.369 -0.2040  0.0064 -0.3555
18831SOL    HW160281   0.458   3.052   4.367  1.0310  1.0854  0.4340
18831SOL    HW260282   0.494   2.928   4.447 -0.2774  0.2603 -0.2160
18832SOL     OW60283   3.718   7.633   3.159  0.3637 -0.0847  0.0175
18832SOL    HW160284   3.675   7.633   3.073 -2.6945 -1.3828  1.4318
18832SOL    HW260285   3.790   7.571   3.149  0.8861  0.7306 -1.9161
18833SOL     OW60286   8.166   7.458   8.877  0.0280  0.0029 -0.3319
18833SOL    HW160287   8.216   7.538   8.861  1.0629 -0.2512  1.2844
18833SOL    HW260288   8.225   7.387   8.850 -0.2641 -0.2500 -0.3137
18834SOL     OW60289   1.666   7.880   2.640 -0.1193  0.3007 -0.0175
18834SOL    HW160290   1.753   7.839   2.647 -0.1463  0.3325  0.5182
18834SOL    HW260291   1.641   7.865   2.549  2.1873  3.8307 -1.4569
18835SOL     OW60292   8.213   6.970   6.288 -0.2706 -0.5074  0.2215
18835SOL    HW160293   8.201   6.876   6.280  1.1442 -1.0708  3.3213
18835SOL    HW260294   8.292   6.989   6.237  1.3017 -1.6262  2.1258
18836SOL     OW60295   9.252   1.623   4.858  0.5048 -0.1264  0.3403
18836SOL    HW160296   9.261   1.551   4.920  0.2122 -0.1376  0.3687
18836SOL    HW260297   9.273   1.584   4.773  1.1832 -0.0471  0.4612
18837SOL     OW60298   9.428   1.474   7.215  0.6392  0.1154  0.2558
18837SOL    HW160299   9.470   1.523   7.144 -0.0704 -0.3758 -0.5223
18837SOL    HW260300   9.411   1.539   7.283 -0.1498  0.9309 -0.6993
18838SOL     OW60301   5.412   0.352   0.072 -0.2125 -0.3373 -0.3311
18838SOL    HW160302   5.483   0.306   0.028  0.2464  0.2183 -0.1724
18838SOL    HW260303   5.363   0.394   0.001 -0.4373 -0.7791 -0.4456
18839SOL     OW60304   9.413   8.395   1.275 -0.3511 -0.2152  0.3253
18839SOL    HW160305   9.421   8.310   1.318 -3.5321 -0.3163  0.9947
18839SOL    HW260306   9.380   8.375   1.188  1.6719  0.2526 -0.6025
18840SOL     OW60307   2.516   4.986   0.691 -0.2195  0.5699  0.1155
18840SOL    HW160308   2.504   4.905   0.740 -0.4480  0.2699 -0.4308
18840SOL    HW260309   2.462   4.975   0.613  1.5316  0.2849 -1.1111
18841SOL     OW60310   4.290  10.089   6.888  0.7642  0.0152  0.3112
18841SOL    HW160311   4.379  10.122   6.874  1.1685 -1.5236 -0.9947
18841SOL    HW260312   4.249  10.093   6.802  0.4150 -1.6053  0.3754
18842SOL     OW60313   2.878   1.640   4.315 -0.3934  0.2561 -0.1825
18842SOL    HW160314   2.799   1.586   4.314 -2.5516  3.2092 -0.4807
18842SOL    HW260315   2.941   1.590   4.264 -0.8797 -3.6927  2.5991
18843SOL     OW60316   7.846   8.206   0.573  0.0725 -0.3268  0.0366
18843SOL    HW160317   7.932   8.228   0.606  0.8984 -2.5249 -0.4655
18843SOL    HW260318   7.858   8.123   0.526 -2.1755 -0.3607 -0.6415
18844SOL     OW60319   2.295   0.629   8.912 -1.2709 -0.1061  0.3601
18844SOL    HW160320   2.318   0.678   8.991  3.4010 -0.2495 -0.6383
18844SOL    HW260321   2.315   0.538   8.932 -0.2142 -0.1749 -0.8249
18845SOL     OW60322   1.239   4.413   2.365 -0.2311 -0.1338  0.0394
18845SOL    HW160323   1.208   4.445   2.450 -0.1359  2.1622 -0.7137
18845SOL    HW260324   1.162   4.371   2.325 -1.0232  1.0955  0.2207
18846SOL     OW60325   7.860   9.320   0.177  0.3366  0.1157  0.1164
18846SOL    HW160326   7.883   9.233   0.144  0.3131  1.0410 -2.5396
18846SOL    HW260327   7.944   9.365   0.187  0.2882  0.1169  0.5452
18847SOL     OW60328   1.082  10.252   9.335  0.1593 -0.4210 -0.6371
18847SOL    HW160329   1.058  10.172   9.382  0.8246  0.0030  0.4815
18847SOL    HW260330   1.160  10.284   9.381  0.5950  0.2424 -1.7960
18848SOL     OW60331   7.693   9.039   1.482 -0.7346 -0.1033  0.4529
18848SOL    HW160332   7.608   9.081   1.468  0.9744  3.1942 -1.2321
18848SOL    HW260333   7.711   8.994   1.399 -0.5159 -0.1063  0.5004
18849SOL     OW60334  10.342   8.332   0.482 -0.2251  0.2215  0.3655
18849SOL    HW160335  10.257   8.296   0.505 -0.3725  0.0323 -0.4373
18849SOL    HW260336  10.325   8.386   0.405  0.2235  0.9413  0.7630
18850SOL     OW60337   0.249   0.684   7.459  0.5478 -0.0626 -0.0472
18850SOL    HW160338   0.326   0.672   7.403  2.3445  0.9885  2.0617
18850SOL    HW260339   0.198   0.752   7.415  1.3702  0.0113 -0.9172
18851SOL     OW60340   2.004   4.435   7.377 -0.2275  0.2115 -0.2496
18851SOL    HW160341   1.965   4.352   7.352 -2.2184  1.4400 -1.5263
18851SOL    HW260342   2.029   4.424   7.469 -0.7511 -1.6629 -0.2984
18852SOL     OW60343   7.717   2.745   7.087  0.1049  0.1123 -0.5079
18852SOL    HW160344   7.639   2.752   7.033  0.0339 -1.2326 -0.6194
18852SOL    HW260345   7.685   2.737   7.176  0.1690  0.8683 -0.4137
18853SOL     OW60346   6.977   3.552   2.210  0.3153  0.2384  0.2972
18853SOL    HW160347   6.896   3.549   2.260  0.1100 -2.8963 -0.0551
18853SOL    HW260348   6.948   3.542   2.119  1.0687 -1.0553  0.1853
18854SOL     OW60349   7.318   2.427   7.797 -0.1844  0.6708 -0.0336
18854SOL    HW160350   7.298   2.429   7.704 -1.5752 -1.4077  0.1615
18854SOL    HW260351   7.254   2.485   7.837  1.0035  2.3040 -0.4164
18855SOL     OW60352   7.419   6.691   5.730  0.0340  0.0763 -0.3956
18855SOL    HW160353   7.472   6.722   5.802 -1.3815  1.7967 -0.0288
18855SOL    HW260354   7.454   6.735   5.653  0.7122 -0.7467 -0.5694
18856SOL     OW60355   9.409   4.017   5.266  0.5362 -0.0566  0.0056
18856SOL    HW160356   9.464   3.939   5.266 -1.6813 -1.7282  0.0369
18856SOL    HW260357   9.409   4.046   5.174  0.4297 -0.8404 -0.2501
18857SOL     OW60358   3.925   5.793   8.404 -0.0933 -0.6953 -0.0479
18857SOL    HW160359   4.007   5.842   8.413 -0.0573 -1.1115  2.6325
18857SOL    HW260360   3.952   5.701   8.401 -0.3768 -0.7525 -1.1737
18858SOL     OW60361   2.200   7.255   6.673  0.3087 -0.1254  0.0892
18858SOL    HW160362   2.187   7.278   6.580 -0.9922 -1.9204 -0.2316
18858SOL    HW260363   2.164   7.330   6.721 -1.1895 -0.1625 -0.8894
18859SOL     OW60364   5.605   6.043   0.315  1.0570 -0.4893  0.1779
18859SOL    HW160365   5.596   5.950   0.335  0.0800 -1.1485 -2.8356
18859SOL    HW260366   5.523   6.083   0.344  0.7253 -0.9250 -0.1475
18860SOL     OW60367   1.841   5.290   5.998  0.5387  0.4546  0.3564
18860SOL    HW160368   1.893   5.261   5.923  0.9981  0.5177  0.6453
18860SOL    HW260369   1.751   5.291   5.966  0.5177 -1.1900  0.3069
18861SOL     OW60370   9.220   6.617   8.564  0.0287  0.7026 -0.0966
18861SOL    HW160371   9.157   6.549   8.541  0.8089  0.2399 -0.9291
18861SOL    HW260372   9.270   6.631   8.484 -2.6335  5.1395 -1.3232
18862SOL     OW60373   4.525   0.215   8.886  0.0063  0.1806  0.2846
18862SOL    HW160374   4.443   0.229   8.839 -0.5876 -0.7302  0.9978
18862SOL    HW260375   4.579   0.291   8.865 -0.6982  0.3769 -0.8750
18863SOL     OW60376   0.834   4.671   7.823  0.3069  0.7817 -0.4452
18863SOL    HW160377   0.921   4.699   7.794  0.8239 -0.7942 -0.5145
18863SOL    HW260378   0.813   4.597   7.766 -0.5151  0.3377  0.4177
18864SOL     OW60379   2.875   5.323   8.296 -0.6447 -0.0846 -1.0300
18864SOL    HW160380   2.917   5.300   8.379 -0.9037 -0.1962 -0.9297
18864SOL    HW260381   2.918   5.404   8.270 -0.1015 -0.3925 -1.1159
18865SOL     OW60382   8.146   9.554   6.952  0.2022 -0.1412  0.0338
18865SOL    HW160383   8.097   9.513   6.881 -1.4024 -0.9852  1.5558
18865SOL    HW260384   8.137   9.648   6.936 -0.2069 -0.3131 -0.8087
18866SOL     OW60385   4.577   4.026   8.139  0.2006 -0.1945 -0.0155
18866SOL    HW160386   4.547   3.953   8.194  2.8406 -1.5741 -0.2336
18866SOL    HW260387   4.530   4.102   8.172  0.2899 -1.2886  2.9463
18867SOL     OW60388   7.286   3.747   4.594  0.1296  0.0839  0.2120
18867SOL    HW160389   7.291   3.721   4.686  1.4228 -0.2290  0.0620
18867SOL    HW260390   7.196   3.724   4.568  0.4457 -1.9803  0.7570
18868SOL     OW60391  10.097   8.359   8.986 -0.2333  0.4069 -0.4206
18868SOL    HW160392  10.063   8.397   8.905  0.9161  0.4957 -0.8859
18868SOL    HW260393  10.045   8.280   8.999 -1.0748  0.9027 -0.7181
18869SOL     OW60394   3.447   3.947   9.565  0.3002  0.0588  0.2509
18869SOL    HW160395   3.481   4.001   9.636 -0.5613  1.4444 -0.3525
18869SOL    HW260396   3.457   4.001   9.487 -0.4115 -0.7362 -0.4053
18870SOL     OW60397   3.677   1.681   3.398  0.1225  0.1534  0.1130
18870SOL    HW160398   3.745   1.653   3.337  1.3870 -1.3865  2.1180
18870SOL    HW260399   3.617   1.606   3.402  0.3166  0.0472  1.1035
18871SOL     OW60400   4.647   0.672   0.409 -0.1602 -0.1901 -0.3030
18871SOL    HW160401   4.740   0.692   0.415 -0.1826  0.2692 -1.2398
18871SOL    HW260402   4.631   0.608   0.478  1.1290 -1.2885 -0.9835
18872SOL     OW60403   0.523  10.122   0.382 -0.1061 -0.0601  0.2344
18872SOL    HW160404   0.429  10.136   0.396 -0.3293 -0.0251 -1.1999
18872SOL    HW260405   0.564  10.163   0.458 -1.2260  0.2733  0.6905
18873SOL     OW60406   4.760   1.280   0.181  0.2412  0.1211  0.2732
18873SOL    HW160407   4.669   1.258   0.199  0.7640 -1.0247  1.7146
18873SOL    HW260408   4.761   1.375   0.171 -1.0563  0.1753  0.5478
18874SOL     OW60409   1.463   9.996   6.549 -0.0642  0.0195  0.5686
18874SOL    HW160410   1.384  10.009   6.602  0.5770 -1.1959  1.8940
18874SOL    HW260411   1.432   9.951   6.471 -0.9340  1.2440  0.1704
18875SOL     OW60412   9.039   2.479   0.711  0.0290 -0.2076  0.0733
18875SOL    HW160413   8.992   2.396   0.718 -1.0998  0.5250  1.8123
18875SOL    HW260414   8.984   2.535   0.656 -0.8689  0.4281  1.5636
18876SOL     OW60415  10.133   5.790   9.357 -0.1036 -0.4481 -0.2544
18876SOL    HW160416  10.187   5.856   9.314 -1.0046 -0.0760 -0.8645
18876SOL    HW260417  10.085   5.748   9.285 -0.8789 -0.5289  0.2938
18877SOL     OW60418   5.780   0.227   8.912  0.2425  0.2911  0.0890
18877SOL    HW160419   5.793   0.184   8.828  0.7416  0.1451  0.2368
18877SOL    HW260420   5.865   0.265   8.933  0.5081 -0.8338  1.1635
18878SOL     OW60421   6.726   1.602   6.441 -0.1884 -0.0485  0.4156
18878SOL    HW160422   6.736   1.691   6.475 -0.7903 -0.5567  1.9973
18878SOL    HW260423   6.720   1.546   6.519 -0.3276 -1.4244 -0.5372
18879SOL     OW60424   1.351   6.123   7.403 -0.0266 -0.2759 -0.2004
18879SOL    HW160425   1.350   6.039   7.448 -0.5356  0.1601  0.6364
18879SOL    HW260426   1.301   6.182   7.461  2.1197  1.1514  0.3425
18880SOL     OW60427   7.262   4.305   0.309  0.1871  0.8224 -0.3929
18880SOL    HW160428   7.233   4.228   0.261  0.0659  1.3560 -1.1907
18880SOL    HW260429   7.326   4.347   0.251  1.3136  0.5818  0.6128
18881SOL     OW60430   3.218   2.918   4.817 -0.2738  0.3856 -0.3187
18881SOL    HW160431   3.202   2.831   4.851  0.5948 -0.0210 -0.9201
18881SOL    HW260432   3.241   2.970   4.894  2.3643 -0.6813 -0.3077
18882SOL     OW60433   8.958   2.426   6.672 -0.0265 -0.1549  0.0498
18882SOL    HW160434   9.050   2.424   6.645 -0.4491 -2.5652 -1.4873
18882SOL    HW260435   8.945   2.516   6.703  2.9243  0.1498  0.7225
18883SOL     OW60436   0.464   4.258   8.970  0.2774 -0.5861  0.4138
18883SOL    HW160437   0.450   4.237   9.062  0.9136 -0.5484  0.5230
18883SOL    HW260438   0.519   4.187   8.936 -2.0755 -2.0272 -0.6236
18884SOL     OW60439   4.774   3.100   9.701  0.0895  0.3004 -0.3555
18884SOL    HW160440   4.695   3.052   9.674  0.8006  0.2022 -2.4708
18884SOL    HW260441   4.743   3.189   9.718 -0.9293 -0.4036  1.7854
18885SOL     OW60442   7.528   6.408   4.233  0.2234  0.2581  0.6637
18885SOL    HW160443   7.438   6.408   4.202  0.5365 -2.7573 -0.6036
18885SOL    HW260444   7.526   6.361   4.316  0.5048  1.1234  1.1729
18886SOL     OW60445   9.964   0.947   6.097 -0.2234 -0.3579 -0.6488
18886SOL    HW160446  10.040   0.965   6.041  0.5182 -0.0525  0.4305
18886SOL    HW260447   9.957   1.024   6.153  0.1485 -1.3953  0.8943
18887SOL     OW60448   2.644   7.918   1.270  0.7614 -0.7195  0.5948
18887SOL    HW160449   2.585   7.945   1.340 -0.0776 -0.6260 -0.1391
18887SOL    HW260450   2.728   7.958   1.293  0.4457 -0.5294  1.4403
18888SOL     OW60451   7.409   2.553   0.270 -0.0159  0.4992  0.3100
18888SOL    HW160452   7.319   2.571   0.298 -0.7307 -1.3861 -0.5332
18888SOL    HW260453   7.399   2.484   0.203  1.9744  1.0931 -0.6681
18889SOL     OW60454   2.285   9.616   6.348 -0.0246 -0.1115 -0.0058
18889SOL    HW160455   2.204   9.629   6.398  0.4081  0.6754  0.5083
18889SOL    HW260456   2.256   9.573   6.267 -1.1233  1.2369 -0.3701
18890SOL     OW60457   5.222   6.313  10.102  0.3548 -0.0096 -0.3332
18890SOL    HW160458   5.206   6.297  10.009  2.2821  1.5299 -1.0198
18890SOL    HW260459   5.252   6.404  10.105  0.0042  0.0866  1.8656
18891SOL     OW60460   4.488   3.594   3.120  0.4328 -0.1783  0.0894
18891SOL    HW160461   4.405   3.578   3.165  0.7821  0.3403  0.9488
18891SOL    HW260462   4.554   3.577   3.187  1.0865 -1.5233 -0.8475
18892SOL     OW60463   3.885   2.525   7.878  0.0672 -0.3486 -0.0703
18892SOL    HW160464   3.824   2.558   7.811  0.8026  1.0776 -0.0780
18892SOL    HW260465   3.869   2.581   7.954  0.1353 -1.1252  0.5247
18893SOL     OW60466   5.773   4.799   4.784 -0.3699 -0.2460 -0.2476
18893SOL    HW160467   5.723   4.724   4.751  0.8970 -0.4938 -1.7553
18893SOL    HW260468   5.853   4.799   4.730  0.3820  1.2333  0.8190
18894SOL     OW60469   8.319   8.525   1.952 -0.8361 -0.1346  0.3614
18894SOL    HW160470   8.282   8.498   2.036  0.1077 -1.2325  0.4556
18894SOL    HW260471   8.243   8.546   1.898 -1.6491 -2.4113  0.5098
18895SOL     OW60472   8.726   2.221   4.096  0.5223 -0.4154 -0.2080
18895SOL    HW160473   8.820   2.229   4.082  0.6691 -0.3708  0.6961
18895SOL    HW260474   8.688   2.215   4.008  1.4363 -1.2040 -0.5644
18896SOL     OW60475   7.767   6.067   1.267 -0.0929 -0.2156 -0.2636
18896SOL    HW160476   7.801   6.143   1.220 -0.4498  1.1600  1.5776
18896SOL    HW260477   7.754   6.001   1.200 -1.4168  1.9183 -2.2671
18897SOL     OW60478   5.635   3.010   3.698  0.1493 -0.0735  0.1813
18897SOL    HW160479   5.704   3.075   3.685 -0.1822  0.2657  0.0777
18897SOL    HW260480   5.651   2.944   3.631  1.4912 -0.9911  1.3497
18898SOL     OW60481   6.820   9.600   1.532  0.3208 -0.8385 -0.0191
18898SOL    HW160482   6.758   9.532   1.508  0.2520 -0.5858 -0.5631
18898SOL    HW260483   6.879   9.607   1.457 -1.4906  1.8146 -1.3441
18899SOL     OW60484   3.216   5.803   1.391  0.1515  0.2363 -0.2062
18899SOL    HW160485   3.155   5.871   1.363 -0.9393 -0.4320  0.4487
18899SOL    HW260486   3.160   5.733   1.425  1.2963 -0.1097  1.0870
18900SOL     OW60487   4.441   8.694   9.495  0.0746 -0.5469 -0.0356
18900SOL    HW160488   4.400   8.703   9.580 -1.8863  0.2751 -0.9972
18900SOL    HW260489   4.523   8.743   9.502 -0.0088 -0.5923  1.3857
18901SOL     OW60490   3.500   1.476   2.201  0.5966  0.4224  0.2507
18901SOL    HW160491   3.523   1.472   2.293 -0.8849  0.9774  0.6794
18901SOL    HW260492   3.430   1.411   2.191 -0.4901  1.5844 -0.0517
18902SOL     OW60493   1.796   5.793   9.198 -0.1492  0.0705  0.5267
18902SOL    HW160494   1.765   5.705   9.179 -0.8516  0.5531 -0.7106
18902SOL    HW260495   1.829   5.789   9.287  0.0217 -1.4896  0.4058
18903SOL     OW60496   8.974   6.889   0.364  0.2893 -0.3723 -0.2001
18903SOL    HW160497   9.019   6.823   0.312  0.4950  0.8168 -1.6013
18903SOL    HW260498   8.963   6.963   0.305  1.3210  1.4168  1.7058
18904SOL     OW60499   8.811   6.895   7.495 -0.1613  0.4186 -0.1728
18904SOL    HW160500   8.830   6.989   7.488 -1.5786  0.7850  0.5206
18904SOL    HW260501   8.766   6.874   7.413  0.1878  0.3193 -0.3437
18905SOL     OW60502   6.808   0.034   4.535 -0.0357 -0.1719 -0.1770
18905SOL    HW160503   6.834   0.018   4.444 -1.0498 -0.3761 -0.4431
18905SOL    HW260504   6.824  -0.050   4.579 -1.4721 -0.7313 -0.6491
18906SOL     OW60505   5.413   8.058   8.613  0.6023  0.3953 -0.4251
18906SOL    HW160506   5.372   8.131   8.565 -0.3774  0.6730  0.7750
18906SOL    HW260507   5.444   8.000   8.544 -0.7191  0.7975 -1.4274
18907SOL     OW60508   0.411   8.313   5.233  0.6636 -0.3917 -0.6183
18907SOL    HW160509   0.455   8.251   5.175 -1.0846 -0.9308 -1.4348
18907SOL    HW260510   0.321   8.317   5.200  0.1886  0.9616  0.7370
18908SOL     OW60511   1.917   1.095   2.906 -0.4293  0.4997  0.8122
18908SOL    HW160512   1.904   1.080   3.000  2.0831  0.5847  1.2317
18908SOL    HW260513   1.934   1.008   2.870  2.4807  0.8348  1.1839
18909SOL     OW60514   1.146   3.042   2.973  0.2439 -0.4873  0.7235
18909SOL    HW160515   1.144   2.950   2.950 -1.4911 -0.1867 -0.4502
18909SOL    HW260516   1.172   3.043   3.065 -1.3403 -2.2550  1.2415
18910SOL     OW60517   4.184   3.888   7.643  0.1093 -0.2605  1.1782
18910SOL    HW160518   4.090   3.870   7.630  0.4443 -1.2513 -0.2007
18910SOL    HW260519   4.227   3.810   7.609  1.5823  1.7811 -2.0992
18911SOL     OW60520   6.627   1.961   5.394  0.2071  0.2176 -0.2085
18911SOL    HW160521   6.682   1.882   5.386  1.6135  0.7964  2.5886
18911SOL    HW260522   6.569   1.943   5.467 -2.3867  0.2656 -2.1239
18912SOL     OW60523   4.637   1.799   3.630  0.1457  0.2051  0.6766
18912SOL    HW160524   4.698   1.804   3.703  2.5427 -1.0927 -1.0960
18912SOL    HW260525   4.643   1.708   3.600 -1.3613  0.5066 -0.6577
18913SOL     OW60526   8.132   1.953   9.073  0.2094  0.3174  0.1185
18913SOL    HW160527   8.084   1.871   9.084 -0.2492  0.6721  0.8714
18913SOL    HW260528   8.133   1.969   8.979  1.0896 -1.0019 -0.1217
18914SOL     OW60529   1.559   7.378   0.926  0.0720  0.0537 -0.7488
18914SOL    HW160530   1.549   7.284   0.938 -1.8882  0.4431  1.2343
18914SOL    HW260531   1.600   7.408   1.006  0.4729  0.9271 -1.2716
18915SOL     OW60532   7.171   1.817   9.286 -0.1772  0.3946 -0.2975
18915SOL    HW160533   7.173   1.898   9.336  1.5177  0.6732 -0.7497
18915SOL    HW260534   7.119   1.838   9.208  0.5896  1.1771 -0.6080
18916SOL     OW60535   6.533   3.198   9.658  0.3876 -0.1317  0.8422
18916SOL    HW160536   6.488   3.255   9.595  0.3750 -0.2969  0.6995
18916SOL    HW260537   6.618   3.239   9.672  0.3151  0.0107  0.8679
18917SOL     OW60538   5.767   5.312   3.729 -0.4954 -0.4524  0.1575
18917SOL    HW160539   5.741   5.329   3.820  0.6430  0.0474  0.4028
18917SOL    HW260540   5.819   5.389   3.705 -0.7050 -0.6286 -0.8950
18918SOL     OW60541   5.392   0.897   2.657 -0.1571  0.4410  0.3695
18918SOL    HW160542   5.436   0.893   2.572  0.0739  0.4753  0.4880
18918SOL    HW260543   5.421   0.979   2.695  0.2040  0.1455  0.7362
18919SOL     OW60544   8.580   8.961   1.534  0.1730  0.0541  0.2702
18919SOL    HW160545   8.600   9.055   1.540 -1.7593  0.5943 -0.6719
18919SOL    HW260546   8.643   8.927   1.470  0.5336  0.8309  0.1973
18920SOL     OW60547   1.984   5.287   5.083  0.0155 -0.3824 -0.4234
18920SOL    HW160548   2.019   5.255   5.166 -0.7677  0.8788  0.4328
18920SOL    HW260549   1.968   5.208   5.032  0.1943 -1.2169  0.7620
18921SOL     OW60550   5.106   4.362   4.152 -0.1597  0.0978  0.4416
18921SOL    HW160551   5.158   4.332   4.077  0.0563  1.4855  0.0031
18921SOL    HW260552   5.158   4.339   4.228  1.8438  2.6389 -0.0289
18922SOL     OW60553   1.536   5.246  10.227  0.1742 -0.6285 -0.5975
18922SOL    HW160554   1.490   5.279  10.305 -0.5073 -1.4145 -0.6497
18922SOL    HW260555   1.505   5.301  10.156  1.3584  0.5849 -0.2313
18923SOL     OW60556   1.625   7.323   2.433 -0.2535 -0.2043 -0.1312
18923SOL    HW160557   1.632   7.400   2.377  1.3314  1.2548  1.8924
18923SOL    HW260558   1.714   7.309   2.466 -0.7856 -2.0389  0.6815
18924SOL     OW60559   4.082   3.095   9.524 -0.0724 -0.2416  0.1207
18924SOL    HW160560   4.021   3.164   9.497 -0.6210 -0.8608 -0.2683
18924SOL    HW260561   4.026   3.024   9.555  0.5214 -0.0324  1.7557
18925SOL     OW60562   2.613   4.829   2.531  0.6727 -0.1740  0.5790
18925SOL    HW160563   2.576   4.741   2.538 -1.1435  0.5586  0.7810
18925SOL    HW260564   2.707   4.815   2.522  0.3426 -2.1546 -0.2957
18926SOL     OW60565   3.353  10.146   5.086 -0.2813 -0.5487 -0.1262
18926SOL    HW160566   3.276  10.090   5.094  0.2508 -1.4036 -0.8121
18926SOL    HW260567   3.376  10.167   5.177 -1.1636 -0.4936  0.0916
18927SOL     OW60568   3.873   0.532  10.017  0.7571 -0.1099  0.4562
18927SOL    HW160569   3.828   0.529   9.933  0.8526 -0.8748  0.4280
18927SOL    HW260570   3.804   0.549  10.081  0.4659 -0.9329  0.3764
18928SOL     OW60571   6.874   6.318   8.010 -0.3062 -0.1687  0.3590
18928SOL    HW160572   6.825   6.238   7.989  0.1077 -0.2147 -0.4337
18928SOL    HW260573   6.962   6.301   7.979 -0.1605  0.5266  0.3802
18929SOL     OW60574   9.029   0.433   0.577  0.6576  0.0867  0.2880
18929SOL    HW160575   9.075   0.468   0.653 -1.0991 -1.6469  2.2944
18929SOL    HW260576   9.097   0.421   0.511  2.5263  0.4288  2.0498
18930SOL     OW60577   1.758   9.372   7.920  0.0725  0.0972  0.3576
18930SOL    HW160578   1.785   9.340   8.007 -1.9993  0.3743  1.1767
18930SOL    HW260579   1.688   9.312   7.894  1.1698 -0.4294 -1.5034
18931SOL     OW60580   4.001   1.469   3.462  0.3694  0.0926  0.4352
18931SOL    HW160581   3.963   1.388   3.498 -1.2190  0.1420 -1.0708
18931SOL    HW260582   4.045   1.441   3.382  0.0517  0.6940  0.0507
18932SOL     OW60583   2.102   9.534   8.336  0.1391 -1.0048 -0.3542
18932SOL    HW160584   2.110   9.523   8.242 -0.4996  1.6365 -0.8025
18932SOL    HW260585   2.008   9.548   8.350  0.2473 -1.2072  0.6712
18933SOL     OW60586   4.875   2.697   9.642  0.0571  0.1049 -0.1564
18933SOL    HW160587   4.920   2.771   9.682  1.6329 -0.8197 -0.1466
18933SOL    HW260588   4.882   2.712   9.548 -3.7184  2.3212 -0.2977
18934SOL     OW60589   8.386   5.811   6.287 -0.4487 -0.4200  0.9656
18934SOL    HW160590   8.393   5.719   6.264 -2.1589 -0.5329  0.7694
18934SOL    HW260591   8.314   5.815   6.350 -2.8073  1.1243 -1.5764
18935SOL     OW60592   9.999   2.215   0.206 -0.5422 -0.3833  0.0231
18935SOL    HW160593  10.049   2.142   0.169  0.2245  0.9438 -1.7069
18935SOL    HW260594   9.986   2.274   0.132 -0.6636  1.5058  1.5011
18936SOL     OW60595   0.317   4.912   6.039 -0.3694  0.4239 -0.3098
18936SOL    HW160596   0.253   4.841   6.033 -0.4259  0.5612 -1.6526
18936SOL    HW260597   0.392   4.882   5.988  1.0442 -0.0925  1.9404
18937SOL     OW60598   3.523   4.210   7.582  0.1933 -0.5887 -0.3307
18937SOL    HW160599   3.483   4.244   7.501  0.4923 -0.5296 -0.4567
18937SOL    HW260600   3.461   4.234   7.651  1.0302  1.4359 -0.2290
18938SOL     OW60601   0.790   4.021   0.508  0.5103  0.2126 -0.5732
18938SOL    HW160602   0.780   4.100   0.454 -1.0701 -1.0660 -2.2877
18938SOL    HW260603   0.702   4.003   0.541  0.8588 -0.7891 -0.1431
18939SOL     OW60604   9.201   7.701   9.023 -0.2270  0.1621  0.0806
18939SOL    HW160605   9.169   7.711   9.113  1.1937 -0.0907  0.6495
18939SOL    HW260606   9.245   7.783   9.004  1.4767 -0.5960  0.5092
18940SOL     OW60607   9.225   8.359   2.571 -0.0078  0.0390  0.0312
18940SOL    HW160608   9.185   8.273   2.585 -0.3289  0.0823 -0.5373
18940SOL    HW260609   9.293   8.366   2.637  1.8829 -1.8041 -1.5706
18941SOL     OW60610   2.390   1.862   8.828 -0.1562 -1.2011  0.4437
18941SOL    HW160611   2.390   1.915   8.748  0.0692  1.5589  2.1604
18941SOL    HW260612   2.476   1.821   8.830  0.8583  0.8431  0.5531
18942SOL     OW60613   8.791   0.788   2.483  0.0333 -0.8362  0.5216
18942SOL    HW160614   8.855   0.824   2.421 -1.4486 -1.2417 -1.3115
18942SOL    HW260615   8.787   0.695   2.463 -1.2253 -0.7968  0.4942
18943SOL     OW60616   6.138   8.226   1.185 -0.3895  0.0074 -0.3968
18943SOL    HW160617   6.195   8.234   1.108 -1.7959  1.3498 -1.3525
18943SOL    HW260618   6.121   8.133   1.193  0.0042 -0.1801 -1.5440
18944SOL     OW60619   8.058   5.261   4.641 -0.1541  0.0381  0.0250
18944SOL    HW160620   8.104   5.345   4.642  0.4247 -0.2267 -1.5284
18944SOL    HW260621   7.983   5.274   4.700  1.0736  0.9442  1.4652
18945SOL     OW60622   3.319   5.167   0.502  0.1332  0.1454 -0.5029
18945SOL    HW160623   3.407   5.198   0.479  0.3745 -0.9208 -1.0916
18945SOL    HW260624   3.320   5.074   0.479 -1.2754  0.2042 -0.8920
18946SOL     OW60625   7.769   8.790   4.521 -0.4129  0.0136  0.0139
18946SOL    HW160626   7.804   8.712   4.564 -0.9050  0.5709  1.4889
18946SOL    HW260627   7.701   8.756   4.462 -1.3484 -0.6221  1.3973
18947SOL     OW60628   3.774   8.492   3.082  0.0628 -0.7688  0.0539
18947SOL    HW160629   3.850   8.465   3.031  0.2313 -2.0028  0.9295
18947SOL    HW260630   3.758   8.582   3.054 -0.0438 -1.4621 -2.4049
18948SOL     OW60631   7.166   2.956  10.331  0.0164  0.4350  0.1045
18948SOL    HW160632   7.129   2.937  10.245 -1.4308  0.2762  0.7258
18948SOL    HW260633   7.187   2.870  10.368  1.5314  0.5377 -0.4207
18949SOL     OW60634   5.010   5.602   0.311  0.2027  0.2948  0.5968
18949SOL    HW160635   4.917   5.616   0.333 -0.2436  0.6466 -1.3169
18949SOL    HW260636   5.052   5.684   0.333 -0.4724  1.1015 -0.9681
18950SOL     OW60637   2.940   8.188   7.978 -0.1842  0.2662  0.5098
18950SOL    HW160638   2.941   8.276   8.017  1.3701 -0.3168  1.9137
18950SOL    HW260639   2.941   8.129   8.053  1.3989 -0.9150 -0.3722
18951SOL     OW60640   2.877   1.985   8.056  0.3545 -0.0241  0.4882
18951SOL    HW160641   2.787   1.964   8.081  0.9717 -1.9324  1.3405
18951SOL    HW260642   2.919   1.899   8.046  1.6196  0.7704 -1.7506
18952SOL     OW60643   7.371   2.726   1.295  0.4607  0.1602 -0.2587
18952SOL    HW160644   7.284   2.721   1.256 -0.6357  2.3102  1.6570
18952SOL    HW260645   7.380   2.817   1.323  2.3840 -0.5086  1.6343
18953SOL     OW60646   1.356   0.947   3.931 -0.4942  0.5293 -0.2754
18953SOL    HW160647   1.326   0.881   3.993  0.6701  0.9539  0.7774
18953SOL    HW260648   1.401   0.897   3.862 -0.5082  0.1510 -0.0117
18954SOL     OW60649   6.316   7.670   2.544  0.3416 -0.5931 -0.1705
18954SOL    HW160650   6.222   7.657   2.533  0.2913  0.2706 -0.9317
18954SOL    HW260651   6.328   7.765   2.541  0.9328 -0.4933  2.7884
18955SOL     OW60652   1.035   6.977   7.650 -0.1151 -0.4092  0.5615
18955SOL    HW160653   1.105   6.926   7.691  0.2118 -0.1246  0.3583
18955SOL    HW260654   1.061   7.068   7.663 -1.1801 -0.2569  1.7669
18956SOL     OW60655   8.932   9.261  10.255 -0.5909 -0.2032  0.0990
18956SOL    HW160656   8.918   9.167  10.255 -2.0657 -0.0098 -0.6548
18956SOL    HW260657   9.017   9.273  10.211  0.0679 -1.2048  1.0499
18957SOL     OW60658   2.356   9.241   6.919 -0.0953 -0.4291 -0.1405
18957SOL    HW160659   2.277   9.273   6.877  0.4180 -0.4972 -1.2014
18957SOL    HW260660   2.378   9.162   6.870  0.1036 -0.9498  0.7609
18958SOL     OW60661   1.594   8.292   3.139  0.1959 -0.1447 -0.0498
18958SOL    HW160662   1.524   8.237   3.176  1.0928 -1.4734 -0.2372
18958SOL    HW260663   1.618   8.248   3.057  1.7132 -0.1260  0.3518
18959SOL     OW60664   6.470   9.928   3.848  0.3657  0.7196  0.2228
18959SOL    HW160665   6.406   9.857   3.839 -0.2617  1.2732  0.1846
18959SOL    HW260666   6.555   9.886   3.834  0.0122 -0.0310  0.2632
18960SOL     OW60667  10.058   8.117   1.073  0.3505  0.1923  0.1387
18960SOL    HW160668   9.971   8.093   1.041  0.5831  0.7263 -0.9184
18960SOL    HW260669  10.053   8.102   1.168 -1.4984  2.0046  0.3987
18961SOL     OW60670   7.556   8.801   2.151 -0.1182  0.1765 -0.0113
18961SOL    HW160671   7.502   8.838   2.221  1.1919  2.0004  0.1164
18961SOL    HW260672   7.646   8.805   2.186  0.1659 -3.5438  0.1350
18962SOL     OW60673   3.453   2.936   1.243  0.5601 -0.1106 -0.7263
18962SOL    HW160674   3.507   2.897   1.312 -0.0742  0.0020 -0.1437
18962SOL    HW260675   3.475   3.029   1.245 -0.6756  0.1946  0.5177
18963SOL     OW60676   0.091  10.230   2.682  0.5141 -0.0492  0.0104
18963SOL    HW160677   0.121  10.311   2.724 -1.5373  1.4827 -1.2379
18963SOL    HW260678  -0.002  10.226   2.704  0.1165 -0.9316 -1.6845
18964SOL     OW60679   1.124   3.080   6.318  0.2317 -0.3301  0.3222
18964SOL    HW160680   1.042   3.032   6.325  0.0002 -0.3191 -1.7467
18964SOL    HW260681   1.186   3.031   6.371 -0.5111 -1.7493 -0.0856
18965SOL     OW60682   2.011   1.433   4.657 -0.3781 -0.4363  0.6650
18965SOL    HW160683   1.956   1.465   4.585 -0.0373 -0.6041  0.3239
18965SOL    HW260684   1.971   1.469   4.736 -0.2345  0.5114  0.3190
18966SOL     OW60685   3.840   7.505   8.112  0.0567 -0.3059 -0.0160
18966SOL    HW160686   3.859   7.599   8.104 -0.5946  0.0019  1.6034
18966SOL    HW260687   3.784   7.486   8.037  1.6902  0.1373 -1.4202
18967SOL     OW60688   7.594   5.906   0.092 -0.2177  0.0015 -0.1031
18967SOL    HW160689   7.582   5.866   0.006 -2.3582  0.9203 -0.2929
18967SOL    HW260690   7.538   5.854   0.150  0.9157 -0.3732  0.6833
18968SOL     OW60691   1.424   9.202   6.601  0.5379 -0.9004  0.4418
18968SOL    HW160692   1.404   9.217   6.693 -0.9448  0.8070 -0.0812
18968SOL    HW260693   1.352   9.147   6.569 -0.6902  1.0098 -0.3045
18969SOL     OW60694   9.654   3.371   8.966 -0.6853  0.4380 -0.4058
18969SOL    HW160695   9.680   3.286   9.003 -3.0333 -1.1783 -2.1252
18969SOL    HW260696   9.606   3.414   9.036 -0.2219 -0.0511  0.2240
18970SOL     OW60697   6.372   5.629   0.723  0.4523  0.1382  0.2205
18970SOL    HW160698   6.385   5.718   0.691  0.0061  0.0678 -0.1650
18970SOL    HW260699   6.278   5.622   0.737  0.2940 -0.7189 -1.0849
18971SOL     OW60700   3.601   0.582   2.086  0.1729  0.0270  0.5154
18971SOL    HW160701   3.663   0.569   2.014 -0.4342  0.3912 -0.0864
18971SOL    HW260702   3.653   0.622   2.155  0.2395  2.1747 -0.6834
18972SOL     OW60703   2.320   6.512   2.744  0.5572 -0.3093 -0.2013
18972SOL    HW160704   2.345   6.603   2.726  0.8452 -0.3255  0.1149
18972SOL    HW260705   2.224   6.513   2.741  0.5632 -0.4898 -2.6580
18973SOL     OW60706   3.905   0.298   0.572 -0.0304 -0.4772  0.2695
18973SOL    HW160707   3.946   0.363   0.629 -0.9882 -0.7266  1.3001
18973SOL    HW260708   3.939   0.214   0.603 -0.0903 -0.5702  0.0830
18974SOL     OW60709   0.492   6.400   2.917  0.2897 -0.2802  0.0654
18974SOL    HW160710   0.444   6.349   2.853 -0.7699  1.2591 -0.4188
18974SOL    HW260711   0.431   6.468   2.945  1.4294  0.3499  1.1355
18975SOL     OW60712   7.719   0.800   0.431  0.3485  0.3086 -0.2914
18975SOL    HW160713   7.757   0.744   0.364  1.8532  1.0368 -0.0906
18975SOL    HW260714   7.731   0.889   0.397 -2.8111  0.5626 -1.0371
18976SOL     OW60715   3.808   3.166   6.134  0.3661 -0.0586  0.4531
18976SOL    HW160716   3.775   3.242   6.181 -0.0039  0.4445 -0.6125
18976SOL    HW260717   3.731   3.127   6.093  0.6829 -0.5139  0.2788
18977SOL     OW60718   6.816   1.777   7.497  0.5014 -0.4163  0.0409
18977SOL    HW160719   6.885   1.835   7.529  1.5566 -1.5327 -0.1401
18977SOL    HW260720   6.846   1.749   7.411  0.3123 -1.6636  0.3525
18978SOL     OW60721   1.240   5.155   5.402  0.1239 -0.2150  0.1629
18978SOL    HW160722   1.250   5.175   5.309  1.3026  0.5397  0.4401
18978SOL    HW260723   1.273   5.065   5.411  0.4643 -0.1133 -0.0642
18979SOL     OW60724   3.533   3.800   6.403  0.2211  0.4735  0.7363
18979SOL    HW160725   3.506   3.766   6.317  0.5947  0.3188  0.6778
18979SOL    HW260726   3.482   3.749   6.466  2.1810 -1.6414  0.7549
18980SOL     OW60727   9.363   2.395   0.167 -0.6243  0.3057 -0.1843
18980SOL    HW160728   9.302   2.330   0.133  1.5307 -1.6615 -0.5555
18980SOL    HW260729   9.434   2.343   0.206  1.5233  2.4119 -1.0590
18981SOL     OW60730   9.029   4.426   7.241 -0.7299 -0.1872 -0.0445
18981SOL    HW160731   9.012   4.386   7.326 -2.9728  1.2750  0.2843
18981SOL    HW260732   8.991   4.514   7.247 -0.4300  0.1756 -2.3588
18982SOL     OW60733   6.342   0.320  10.122  0.3518  0.1900 -0.0226
18982SOL    HW160734   6.247   0.332  10.121  0.5444  1.9442 -0.3135
18982SOL    HW260735   6.362   0.281  10.036 -0.0990 -0.2273  0.0591
18983SOL     OW60736   7.771   6.577  10.204 -0.5069 -0.2245  0.1921
18983SOL    HW160737   7.749   6.505  10.144  0.9281 -1.0949  0.6392
18983SOL    HW260738   7.867   6.573  10.211 -0.4163  1.6257  0.3936
18984SOL     OW60739   3.919   4.846   7.270 -0.4550  0.4165  0.3054
18984SOL    HW160740   3.824   4.854   7.272 -0.5901 -0.8807  0.0388
18984SOL    HW260741   3.941   4.800   7.350 -0.2274 -0.6983 -0.3702
18985SOL     OW60742   7.823   5.412   4.316 -0.3739  0.4232  0.3779
18985SOL    HW160743   7.785   5.471   4.381 -0.7580  0.9929 -0.3509
18985SOL    HW260744   7.820   5.460   4.234 -1.7082 -0.9822 -0.4606
18986SOL     OW60745   0.994   7.749   2.765 -0.9723 -0.5503 -0.0389
18986SOL    HW160746   0.947   7.831   2.784  0.4671  0.4703 -0.7041
18986SOL    HW260747   0.994   7.744   2.669  1.4094  0.2216 -0.1416
18987SOL     OW60748   8.194   7.001   3.479  0.1504  0.1661  0.1858
18987SOL    HW160749   8.208   7.070   3.414  0.4304  0.3838  0.4768
18987SOL    HW260750   8.099   6.995   3.489  0.1524  1.2434  0.9517
18988SOL     OW60751   2.820   3.393   9.320  0.2353  0.0119  0.3816
18988SOL    HW160752   2.831   3.412   9.227  2.9465 -0.5666  0.4937
18988SOL    HW260753   2.819   3.478   9.363 -1.5445  0.3097 -0.1479
18989SOL     OW60754   2.396  10.339   4.782  0.6088  0.7981  0.5471
18989SOL    HW160755   2.344  10.419   4.797 -0.4245  0.2080  0.2482
18989SOL    HW260756   2.397  10.296   4.867 -0.3194  0.2963  0.3235
18990SOL     OW60757   8.464   5.066   1.028 -0.3971  0.1116  0.2248
18990SOL    HW160758   8.414   5.066   0.946  0.2443 -1.9437 -0.2343
18990SOL    HW260759   8.444   5.150   1.068 -2.1504  0.4338 -1.1811
18991SOL     OW60760   9.956   2.167   4.010  0.3522  0.1369  0.5359
18991SOL    HW160761   9.959   2.229   3.937 -0.0061 -0.1080  0.3080
18991SOL    HW260762  10.044   2.129   4.013  0.4263  0.2928  0.3588
18992SOL     OW60763   1.234   8.631   6.910  0.4791  0.7640 -0.5303
18992SOL    HW160764   1.324   8.608   6.888  1.1035 -0.2871  2.6288
18992SOL    HW260765   1.241   8.677   6.994 -1.9986 -0.5829  0.5079
18993SOL     OW60766   0.914   6.780   2.758 -0.3453  0.0707 -0.0478
18993SOL    HW160767   0.896   6.780   2.852  0.0324 -0.2252  0.0256
18993SOL    HW260768   0.979   6.711   2.746 -0.7383 -0.2154 -0.5961
18994SOL     OW60769   2.505   8.800   5.878 -0.3231  0.4914 -0.0413
18994SOL    HW160770   2.506   8.709   5.849  0.2094 -0.3411  2.4469
18994SOL    HW260771   2.579   8.841   5.833  1.1720 -1.0328  0.9373
18995SOL     OW60772   7.165  10.020   9.635  0.5765 -0.9057 -0.4484
18995SOL    HW160773   7.125  10.106   9.622  0.6049 -0.9763 -0.9847
18995SOL    HW260774   7.202   9.997   9.550  2.3167 -0.5592  0.1684
18996SOL     OW60775   5.122   5.299   2.632  0.4189  0.1267 -0.3171
18996SOL    HW160776   5.059   5.253   2.576 -1.1095  0.3565  1.1407
18996SOL    HW260777   5.153   5.233   2.693 -0.0522  0.4795  0.3234
18997SOL     OW60778   7.871   2.036   7.728 -0.0847 -0.3687  0.3660
18997SOL    HW160779   7.830   2.075   7.651 -0.7538  0.0909  0.9353
18997SOL    HW260780   7.845   1.944   7.725  0.4234 -0.4942 -0.2940
18998SOL     OW60781   0.567   4.735   6.795 -0.2977 -0.2779 -0.0062
18998SOL    HW160782   0.522   4.652   6.810 -0.8294  0.0544  0.2682
18998SOL    HW260783   0.629   4.716   6.724  0.3073 -1.1681  0.7321
18999SOL     OW60784   7.031   4.121   2.090 -0.3516 -0.6927 -0.5398
18999SOL    HW160785   7.066   4.051   2.145 -0.8812 -1.1888 -0.8254
18999SOL    HW260786   6.951   4.149   2.135 -0.8511 -1.1792 -1.0910
19000SOL     OW60787   3.361   1.694   2.706  0.0674 -0.0915  0.0837
19000SOL    HW160788   3.282   1.748   2.706  0.0431 -0.1267  0.0162
19000SOL    HW260789   3.406   1.716   2.787  0.7449  1.0270 -0.5711
19001SOL     OW60790   3.124   0.335   8.194  0.1764  0.2488  0.0387
19001SOL    HW160791   3.077   0.312   8.114  0.2324 -0.1863  0.1300
19001SOL    HW260792   3.089   0.277   8.261 -1.9414  2.4954  1.0355
19002SOL     OW60793   5.783   7.779   0.510  0.0729  0.1709  0.1734
19002SOL    HW160794   5.867   7.818   0.484 -0.0886  1.1786  1.0928
19002SOL    HW260795   5.783   7.693   0.468  0.2802  1.2757 -2.2157
19003SOL     OW60796   7.357   0.332   4.231  0.1519 -0.1717 -0.4795
19003SOL    HW160797   7.408   0.365   4.305 -0.4843  1.2361 -0.6168
19003SOL    HW260798   7.321   0.249   4.261 -0.8766  0.8061  1.2105
19004SOL     OW60799   2.389   0.880   1.905  0.6491  0.2808 -0.2861
19004SOL    HW160800   2.305   0.897   1.862 -0.7351 -0.6756  1.8927
19004SOL    HW260801   2.377   0.909   1.995  1.6569 -2.3872  0.8270
19005SOL     OW60802   7.947   6.994  10.150  0.7790  0.1650  0.0572
19005SOL    HW160803   7.922   6.985  10.242  0.4763  2.8539  0.3398
19005SOL    HW260804   7.910   6.917  10.107 -0.0833 -0.5670  1.9840
19006SOL     OW60805   9.015   0.803   4.399 -0.3345 -0.6528 -0.4252
19006SOL    HW160806   8.963   0.857   4.459 -1.0750 -0.6621 -1.0564
19006SOL    HW260807   8.996   0.713   4.425 -0.1230 -0.6456 -0.2374
19007SOL     OW60808   3.297   9.228   4.538  0.4269  0.6791  0.3266
19007SOL    HW160809   3.349   9.189   4.468  0.1023  1.8519 -0.6022
19007SOL    HW260810   3.295   9.321   4.518 -2.2988  0.6591  0.1218
19008SOL     OW60811   8.097   4.730   2.267 -0.0045 -0.0541  0.5323
19008SOL    HW160812   8.078   4.757   2.177  0.0174  2.1479  1.1341
19008SOL    HW260813   8.117   4.637   2.260  0.1028  0.0831 -1.7560
19009SOL     OW60814   7.396   8.803   0.532  0.1831  0.1930 -0.4632
19009SOL    HW160815   7.306   8.802   0.565  0.1381  2.2621 -0.4167
19009SOL    HW260816   7.396   8.872   0.465  2.0583  1.2692  0.5700
19010SOL     OW60817   7.240   7.393   4.167  0.5432 -0.1098 -0.6944
19010SOL    HW160818   7.191   7.387   4.085  0.0196 -0.8369 -0.3397
19010SOL    HW260819   7.204   7.323   4.221  2.4152 -1.0764 -0.6449
19011SOL     OW60820   6.877   5.525   2.247 -0.5836  0.1054 -0.2010
19011SOL    HW160821   6.961   5.506   2.205 -0.0640 -0.3773  1.0106
19011SOL    HW260822   6.820   5.453   2.221 -0.0127 -0.6534  0.5713
19012SOL     OW60823   4.173   6.473   2.052 -0.1394 -0.5836  0.4848
19012SOL    HW160824   4.108   6.534   2.017  1.8184  0.6738 -1.1685
19012SOL    HW260825   4.180   6.497   2.145 -2.2614 -1.0317  0.8083
19013SOL     OW60826   0.861   0.660   2.289 -0.2148  0.0470  0.0991
19013SOL    HW160827   0.893   0.672   2.379  0.2182 -0.1378 -0.0237
19013SOL    HW260828   0.773   0.625   2.299 -0.3203  0.4154  0.4529
19014SOL     OW60829   5.683   4.613   8.619  0.0092 -0.1286 -0.4744
19014SOL    HW160830   5.631   4.546   8.662 -1.1566  1.0709  0.0746
19014SOL    HW260831   5.771   4.603   8.655  0.4354 -2.7172 -2.0122
19015SOL     OW60832   1.450   9.538   2.957  0.4813  0.2161  0.4736
19015SOL    HW160833   1.363   9.501   2.952 -0.2871  1.9962 -0.4006
19015SOL    HW260834   1.503   9.485   2.898 -0.8205  1.0387 -1.5465
19016SOL     OW60835   9.349   2.908   5.369 -0.4284  0.1135 -0.5450
19016SOL    HW160836   9.304   2.826   5.388  1.6938 -1.2026 -0.8172
19016SOL    HW260837   9.391   2.893   5.285  2.5899  0.2182  0.8065
19017SOL     OW60838  10.247   8.742   9.173  0.1590 -0.8110  0.5405
19017SOL    HW160839  10.213   8.675   9.232  1.0663  0.0659  2.1211
19017SOL    HW260840  10.339   8.719   9.163  0.4439  0.1101  0.9920
19018SOL     OW60841   4.446  10.194   1.147  0.1954 -0.2268  0.1154
19018SOL    HW160842   4.504  10.200   1.072  0.7850  1.0681  0.6503
19018SOL    HW260843   4.373  10.139   1.117  1.6143 -1.8182 -0.5926
19019SOL     OW60844   3.242   5.667   4.883 -0.1015 -0.4369  0.1320
19019SOL    HW160845   3.297   5.589   4.894 -1.5795 -1.7170 -1.0168
19019SOL    HW260846   3.155   5.632   4.863 -0.7289  1.5268 -0.8505
19020SOL     OW60847   1.599   3.759  10.123  0.2968  0.0276 -0.5047
19020SOL    HW160848   1.668   3.818  10.092  0.1291 -0.2169 -1.3691
19020SOL    HW260849   1.604   3.684  10.064  1.8245 -1.7788  1.7764
19021SOL     OW60850   3.862   6.279   8.799 -0.3018 -0.0198  0.1906
19021SOL    HW160851   3.821   6.337   8.863 -0.3144 -0.8724  0.9870
19021SOL    HW260852   3.899   6.208   8.852 -0.4467 -0.8266 -0.7636
19022SOL     OW60853   0.989   2.446   0.080 -0.0467 -0.2625  0.5448
19022SOL    HW160854   1.040   2.407   0.009 -0.9772  0.8815 -0.8008
19022SOL    HW260855   0.917   2.384   0.096 -0.2684 -0.1604 -0.0530
19023SOL     OW60856   1.464   5.952   6.281  0.2735 -0.7442  0.0093
19023SOL    HW160857   1.432   5.984   6.196 -0.8695 -0.1586  0.6342
19023SOL    HW260858   1.504   5.867   6.261  0.4185 -0.4209 -1.1745
19024SOL     OW60859   9.520   2.302   1.651 -0.3469 -0.6503 -0.0723
19024SOL    HW160860   9.613   2.317   1.634 -0.5797  0.4096 -0.5039
19024SOL    HW260861   9.517   2.216   1.693  0.8680 -0.4968  0.3715
19025SOL     OW60862   1.020   7.272   4.365  0.4464  0.1380 -0.1844
19025SOL    HW160863   1.112   7.279   4.342  1.0570 -0.2769  1.8733
19025SOL    HW260864   0.986   7.202   4.310  1.3697  0.2724 -0.9317
19026SOL     OW60865   9.830   4.040   2.480  0.0788  0.5890  0.4992
19026SOL    HW160866   9.791   4.002   2.559  0.8269  0.1000  0.6427
19026SOL    HW260867   9.858   3.964   2.428 -0.1829  0.9098 -0.1266
19027SOL     OW60868   4.801   9.278   3.294  0.1569  0.3210  0.4090
19027SOL    HW160869   4.895   9.261   3.292  0.0131 -0.5032 -0.8717
19027SOL    HW260870   4.765   9.206   3.346  0.1544  0.1400  0.1593
19028SOL     OW60871   4.701   9.043   5.789  0.4267  0.4326  0.3626
19028SOL    HW160872   4.710   9.090   5.872 -0.3479  0.4236  0.4578
19028SOL    HW260873   4.680   8.953   5.814 -0.4950  0.5801  0.1613
19029SOL     OW60874   6.508   6.097   1.053 -0.2871 -0.2568 -0.3453
19029SOL    HW160875   6.430   6.042   1.057  0.1876 -0.9481 -0.3168
19029SOL    HW260876   6.570   6.056   1.114 -0.5140  1.3030  0.9910
19030SOL     OW60877   3.513   1.012   8.951  0.5813 -0.7955  0.0303
19030SOL    HW160878   3.424   1.021   8.986  0.4579 -0.1730 -0.4161
19030SOL    HW260879   3.500   1.001   8.857  1.0152  0.3448 -0.1729
19031SOL     OW60880   3.120   4.884   0.375  0.1538 -0.2061 -0.2552
19031SOL    HW160881   3.210   4.865   0.347 -0.3018 -0.9918 -1.2726
19031SOL    HW260882   3.130   4.945   0.447  1.4955  0.1008 -0.6642
19032SOL     OW60883   8.583   0.980   2.838  0.1443 -0.6505  0.2108
19032SOL    HW160884   8.583   0.973   2.743 -1.1905 -1.2991  0.2321
19032SOL    HW260885   8.596   1.073   2.855 -0.4699 -0.3915 -0.6443
19033SOL     OW60886   7.279   6.236   1.230  0.6201 -1.0313 -0.4355
19033SOL    HW160887   7.192   6.260   1.262  1.6268  0.4917  1.3364
19033SOL    HW260888   7.316   6.318   1.197  1.5027 -1.5964 -0.8979
19034SOL     OW60889   5.367   5.371   6.857 -0.9600  0.0355  0.2356
19034SOL    HW160890   5.405   5.413   6.780 -0.2336 -0.5182  0.2760
19034SOL    HW260891   5.276   5.354   6.833 -0.8181  0.1355 -0.3946
19035SOL     OW60892   5.448   5.302   6.394  0.9905  0.1195  0.0014
19035SOL    HW160893   5.424   5.212   6.370  2.4520 -0.2551 -0.1450
19035SOL    HW260894   5.544   5.302   6.395  1.0462  1.9111 -0.9384
19036SOL     OW60895   6.034   1.893   8.214 -0.4855 -0.2085 -0.4949
19036SOL    HW160896   6.001   1.803   8.202 -1.1594 -0.0362 -0.0258
19036SOL    HW260897   6.065   1.894   8.305 -0.8177  0.1286 -0.3820
19037SOL     OW60898   0.168   6.099   5.684  0.2578  0.0669 -0.3791
19037SOL    HW160899   0.140   6.136   5.601 -0.3632  0.6576  0.0748
19037SOL    HW260900   0.086   6.075   5.728  0.5274  0.6128  0.4370
19038SOL     OW60901   1.375   7.451   2.485 -0.2717 -0.0519  0.5296
19038SOL    HW160902   1.423   7.373   2.511 -0.2720  0.1077  1.0134
19038SOL    HW260903   1.342   7.488   2.567 -2.6333 -1.0523  0.1110
19039SOL     OW60904   7.549   3.707  10.318  0.0206  0.2962  0.0514
19039SOL    HW160905   7.471   3.761  10.307  0.9661  1.6855 -0.0276
19039SOL    HW260906   7.593   3.742  10.395 -0.4439 -1.8044  1.3634
19040SOL     OW60907   2.419   4.848   3.151 -0.1910  0.1211 -0.1308
19040SOL    HW160908   2.425   4.753   3.144 -1.2797  0.0075  0.2380
19040SOL    HW260909   2.367   4.874   3.075  0.6128  0.5013 -0.5648
19041SOL     OW60910   7.473   3.268   8.107 -0.4155  0.0133 -0.4926
19041SOL    HW160911   7.532   3.271   8.032  0.5729  0.4632  0.2771
19041SOL    HW260912   7.509   3.332   8.169 -1.1774 -0.3739  0.3833
19042SOL     OW60913   2.736   7.119   0.512 -0.1484  0.1157 -0.0452
19042SOL    HW160914   2.805   7.186   0.509  1.6677 -1.6842 -1.7230
19042SOL    HW260915   2.769   7.054   0.573  2.0977 -2.9739 -4.0057
19043SOL     OW60916   5.519   4.786   0.382  0.5173  0.0216 -0.5309
19043SOL    HW160917   5.444   4.783   0.441  1.0982  0.6418  0.2626
19043SOL    HW260918   5.528   4.696   0.350  0.1197 -0.2952  0.2319
19044SOL     OW60919   3.375   0.142   9.313  0.4039 -0.1724 -0.1077
19044SOL    HW160920   3.388   0.211   9.379 -1.4382  1.2922 -1.1741
19044SOL    HW260921   3.281   0.143   9.296  0.6490 -1.4784 -1.7527
19045SOL     OW60922   9.674   9.232   6.774 -0.0511 -0.2742  0.5333
19045SOL    HW160923   9.739   9.302   6.772  0.2993 -0.5972  0.5193
19045SOL    HW260924   9.633   9.240   6.860  0.0005 -0.0639  0.5397
19046SOL     OW60925   4.276   8.639   6.346 -0.2366  0.0565  0.2339
19046SOL    HW160926   4.236   8.552   6.344 -2.1279  0.9043 -0.6219
19046SOL    HW260927   4.272   8.670   6.256  0.9777  0.8144  0.4145
19047SOL     OW60928   0.693   9.192   7.981  0.2743  0.3283 -0.7841
19047SOL    HW160929   0.608   9.193   7.937  0.3879 -0.6132 -1.0519
19047SOL    HW260930   0.674   9.217   8.071 -0.4247 -0.6861 -0.6369
19048SOL     OW60931   0.032   0.408   9.953 -0.2304 -0.2140  0.3462
19048SOL    HW160932   0.019   0.332  10.009  0.1848  0.1280  0.9184
19048SOL    HW260933  -0.053   0.451   9.950 -0.9462 -1.6344 -1.4045
19049SOL     OW60934   0.746   9.521   0.498 -0.4810 -0.2197  0.1132
19049SOL    HW160935   0.797   9.514   0.579  1.6396  4.0014 -0.5762
19049SOL    HW260936   0.668   9.570   0.523  0.3506  1.4141 -0.3131
19050SOL     OW60937   1.322   0.398   3.580 -0.6255 -0.0867 -0.1073
19050SOL    HW160938   1.231   0.409   3.609 -0.3292  2.0583  0.1499
19050SOL    HW260939   1.373   0.453   3.640  0.6045  0.3055 -1.4561
19051SOL     OW60940   0.649  10.038   9.333 -0.4544 -0.6326 -0.0584
19051SOL    HW160941   0.579  10.066   9.273 -0.9038  0.8399  1.1056
19051SOL    HW260942   0.603  10.006   9.410  0.1485 -1.5055 -0.0438
19052SOL     OW60943   9.806   1.667   7.287  0.5370 -0.2412  0.5079
19052SOL    HW160944   9.803   1.715   7.204  0.3902  2.2851  1.8639
19052SOL    HW260945   9.888   1.618   7.283  0.3731 -0.4572 -1.2363
19053SOL     OW60946   6.028   7.564   0.346  0.1366 -0.2312 -0.6359
19053SOL    HW160947   5.934   7.550   0.342 -0.0296  0.7078 -0.2291
19053SOL    HW260948   6.038   7.658   0.355  1.0706 -0.4289  0.6446
19054SOL     OW60949   8.459   4.475   8.467 -0.2256 -0.4083  0.8178
19054SOL    HW160950   8.393   4.431   8.521 -1.6301  0.6624  0.0471
19054SOL    HW260951   8.435   4.451   8.377  0.8272 -0.4820  0.5380
19055SOL     OW60952   5.115   9.718   1.006  0.0001  0.4238  0.2473
19055SOL    HW160953   5.181   9.778   0.974 -0.6537  0.7309 -0.5512
19055SOL    HW260954   5.157   9.632   1.005  0.2133  0.5380 -0.7507
19056SOL     OW60955   7.874  10.295   1.179 -0.7851  0.3570  0.3491
19056SOL    HW160956   7.869  10.353   1.103  1.1895  0.1980  0.0147
19056SOL    HW260957   7.939  10.336   1.236 -0.4594 -0.7487  0.7999
19057SOL     OW60958   2.987   1.909   3.905  0.4572  0.5139 -0.0101
19057SOL    HW160959   3.024   1.861   3.831 -0.3012 -1.0555  0.5625
19057SOL    HW260960   3.063   1.935   3.957  0.9060 -0.5378 -0.1013
19058SOL     OW60961   5.175   1.217   0.780  0.1489  0.6296  0.2135
19058SOL    HW160962   5.241   1.224   0.848 -0.2766 -1.9333  0.9886
19058SOL    HW260963   5.136   1.304   0.775  1.9470  1.5618  1.3845
19059SOL     OW60964   1.451   9.342   0.385 -0.3094 -0.1556 -0.2653
19059SOL    HW160965   1.375   9.307   0.339 -0.6190 -0.7699  0.6921
19059SOL    HW260966   1.435   9.321   0.477 -0.4235  2.3499  0.3504
19060SOL     OW60967   8.825   6.378   3.786 -0.2622  0.4615 -0.7900
19060SOL    HW160968   8.799   6.446   3.725  0.9991  0.1129 -1.7522
19060SOL    HW260969   8.917   6.362   3.766 -0.1019 -0.3816  0.5185
19061SOL     OW60970   7.386   4.616   2.158 -0.3253 -0.0147 -0.1016
19061SOL    HW160971   7.371   4.697   2.108 -0.4714 -0.3584 -0.6204
19061SOL    HW260972   7.446   4.565   2.105 -0.6741 -0.4927 -0.0453
19062SOL     OW60973   6.578   5.588   5.638 -0.0393  0.5090  0.0290
19062SOL    HW160974   6.569   5.673   5.681 -0.7757  0.6184 -0.3374
19062SOL    HW260975   6.669   5.586   5.608  0.2026  0.8385  0.7251
19063SOL     OW60976   7.459   3.984   1.952 -0.2940 -0.2423 -0.1469
19063SOL    HW160977   7.486   4.074   1.968  1.7872 -1.0960  1.5478
19063SOL    HW260978   7.506   3.958   1.873 -0.8561  0.0891 -0.6073
19064SOL     OW60979   7.394   1.227   7.780 -0.6519 -0.1855  0.9775
19064SOL    HW160980   7.315   1.256   7.826 -0.9369 -0.2210  0.5149
19064SOL    HW260981   7.368   1.146   7.736 -0.6956  0.4022 -0.1175
19065SOL     OW60982  10.203   6.662   9.586  0.2237 -0.8812  0.0804
19065SOL    HW160983  10.151   6.743   9.581  1.1453 -0.2276  0.6848
19065SOL    HW260984  10.181   6.625   9.672  0.9773 -0.4380  0.4709
19066SOL     OW60985   2.869   3.677   4.407 -0.2417 -0.3067  0.3580
19066SOL    HW160986   2.815   3.647   4.334  0.0859 -1.1313  0.4424
19066SOL    HW260987   2.813   3.664   4.484  0.1858 -1.5273  0.4903
19067SOL     OW60988   8.001   4.370   0.167 -0.1805 -0.0738  0.7083
19067SOL    HW160989   8.013   4.379   0.262 -0.2147 -1.1837  0.8331
19067SOL    HW260990   8.042   4.286   0.146 -2.5477 -1.1724  0.1857
19068SOL     OW60991   7.756   7.786   6.897 -0.3625  0.5946  0.1145
19068SOL    HW160992   7.840   7.772   6.855  1.1425  1.3220  2.6646
19068SOL    HW260993   7.693   7.791   6.824  1.6459 -0.6225 -1.8219
19069SOL     OW60994   7.599   6.139   4.135 -0.0513 -0.8774  0.2158
19069SOL    HW160995   7.540   6.208   4.105  1.1479 -0.7713 -2.1149
19069SOL    HW260996   7.587   6.137   4.230  0.7502  3.3728  0.5988
19070SOL     OW60997   8.511   7.381   6.888 -0.3117  0.2492  0.4342
19070SOL    HW160998   8.494   7.303   6.941  0.3123  0.4521  0.9426
19070SOL    HW260999   8.605   7.378   6.869 -0.5313  0.1650 -0.7002
19071SOL     OW61000   9.035   0.675   8.184  0.5392 -0.6249  0.7841
19071SOL    HW161001   8.977   0.706   8.253  0.5656  0.4732  0.3281
19071SOL    HW261002   9.072   0.754   8.146 -0.0797 -1.1419 -1.0206
19072SOL     OW61003   2.550   3.348   5.939 -0.6782 -0.1167 -0.2906
19072SOL    HW161004   2.493   3.376   6.011  0.1410  1.3130 -0.1594
19072SOL    HW261005   2.499   3.282   5.892 -1.3191 -0.9255  1.4615
19073SOL     OW61006   2.210   1.248   0.193  1.0482 -0.2816  0.6847
19073SOL    HW161007   2.175   1.306   0.260  0.3734  0.1656 -0.0447
19073SOL    HW261008   2.217   1.302   0.114 -1.3873 -1.5776 -0.5469
19074SOL     OW61009   9.584   1.065   0.033  0.0873 -0.1942 -0.1800
19074SOL    HW161010   9.660   1.030   0.079 -0.1878 -0.4398  0.0919
19074SOL    HW261011   9.514   1.064   0.099 -0.1283  0.1100 -0.4012
19075SOL     OW61012   9.916   8.763   0.996 -0.5007 -0.3739 -0.1998
19075SOL    HW161013   9.974   8.687   1.004 -0.1056 -0.1922 -1.2074
19075SOL    HW261014   9.829   8.725   0.988 -0.4690 -0.6678  0.6765
19076SOL     OW61015   8.934   9.026   8.663  0.3862 -0.0128  0.1537
19076SOL    HW161016   8.914   8.954   8.722  1.7747 -0.9009 -0.4199
19076SOL    HW261017   8.969   9.095   8.719  0.7563 -0.4744  0.4980
19077SOL     OW61018   9.585   3.901   0.653 -0.1791  0.2069 -0.5968
19077SOL    HW161019   9.611   3.872   0.565  0.0590  2.1820 -1.2142
19077SOL    HW261020   9.666   3.901   0.703 -0.2928 -0.7959 -0.3863
19078SOL     OW61021   7.720   1.618   5.552  0.0854 -0.1046 -0.3382
19078SOL    HW161022   7.646   1.656   5.599  0.8053  1.6514 -0.5796
19078SOL    HW261023   7.711   1.650   5.463 -0.0662 -1.6703 -0.9128
19079SOL     OW61024   0.626   8.141   9.608  0.0386  0.1990 -0.2688
19079SOL    HW161025   0.626   8.145   9.704  1.0164 -0.6266 -0.2165
19079SOL    HW261026   0.542   8.100   9.586  0.2105 -0.4670  0.2907
19080SOL     OW61027   7.743   5.154   5.532 -0.5086  0.0764  0.0606
19080SOL    HW161028   7.823   5.190   5.493  0.0176  0.0985  1.1223
19080SOL    HW261029   7.677   5.161   5.463 -0.0011  1.5218 -0.3055
19081SOL     OW61030   2.793   7.140   9.053  0.2747 -0.6594 -0.3264
19081SOL    HW161031   2.811   7.199   9.126  0.2068 -0.3610 -0.5480
19081SOL    HW261032   2.804   7.052   9.090  0.8747 -0.5049 -0.1188
19082SOL     OW61033   7.162   1.046   3.646 -0.0649 -0.0644 -0.0027
19082SOL    HW161034   7.102   0.999   3.703 -0.2397  0.0670 -0.0751
19082SOL    HW261035   7.220   0.979   3.611 -0.9265 -0.3946 -0.8743
19083SOL     OW61036   8.146   1.629   2.112  0.3113  0.1375 -0.3208
19083SOL    HW161037   8.159   1.671   2.197 -1.8531 -0.1552  0.2164
19083SOL    HW261038   8.133   1.536   2.133  0.7378 -0.1028 -1.0768
19084SOL     OW61039   2.481   7.589   4.696 -0.2612  0.1001 -0.7289
19084SOL    HW161040   2.545   7.597   4.625  0.7243 -1.6136 -0.1041
19084SOL    HW261041   2.407   7.543   4.656 -0.1468  0.0567 -0.8914
19085SOL     OW61042   0.625   3.807   6.289  0.2812  0.1458 -0.2178
19085SOL    HW161043   0.564   3.872   6.325 -0.4707 -0.0320 -1.1466
19085SOL    HW261044   0.672   3.774   6.366 -1.1690 -0.0940  0.5991
19086SOL     OW61045   1.639   9.212   7.591  0.1767  0.0446 -0.4488
19086SOL    HW161046   1.695   9.231   7.515  0.4322 -1.3703 -0.6435
19086SOL    HW261047   1.690   9.149   7.642 -1.2069 -1.2459 -0.6059
19087SOL     OW61048   0.825   2.057   2.900 -0.0252  0.3978  0.0553
19087SOL    HW161049   0.871   2.141   2.902  0.7405 -0.0096 -0.0782
19087SOL    HW261050   0.810   2.041   2.807  0.8043 -0.1294  0.0075
19088SOL     OW61051   4.395   3.954   5.406  0.3605  0.2389 -0.1828
19088SOL    HW161052   4.473   3.901   5.389 -0.5057 -1.0263 -0.3474
19088SOL    HW261053   4.372   3.935   5.497 -0.2329 -0.0473 -0.3864
19089SOL     OW61054   0.708   4.900   3.633  0.4741  0.4021  0.0061
19089SOL    HW161055   0.803   4.901   3.645  0.4829 -0.0640  0.0075
19089SOL    HW261056   0.696   4.902   3.538  0.5132 -0.4394 -0.0281
19090SOL     OW61057   9.809   4.151   8.799 -0.3809 -0.6137  0.6021
19090SOL    HW161058   9.826   4.237   8.838  0.9868 -0.6951  0.2339
19090SOL    HW261059   9.788   4.169   8.708 -0.2617 -0.6623  0.5649
19091SOL     OW61060   0.618  10.280   4.436  0.4772  0.1979  0.4031
19091SOL    HW161061   0.537  10.256   4.390 -0.4750  2.0818  0.9392
19091SOL    HW261062   0.621  10.222   4.512 -1.6892  1.5185  1.6392
19092SOL     OW61063   3.110   8.919   2.026 -0.1689  0.3322  0.2896
19092SOL    HW161064   3.104   9.014   2.036 -0.3595  0.2137  1.3527
19092SOL    HW261065   3.046   8.898   1.958  0.5838  1.0657 -0.6870
19093SOL     OW61066   3.199   0.237   8.563  0.3679  0.2429  0.2056
19093SOL    HW161067   3.111   0.256   8.530  0.6952 -0.2591 -1.0009
19093SOL    HW261068   3.247   0.319   8.550  0.1613  0.4357  0.6219
19094SOL     OW61069   8.631   3.131   7.017 -0.8680  0.1979 -0.0502
19094SOL    HW161070   8.583   3.214   7.020  1.0688  1.3365  0.5773
19094SOL    HW261071   8.718   3.151   7.050 -0.4263 -2.1739  0.4353
19095SOL     OW61072   1.313   0.751  10.145 -0.0870  0.3588  0.8802
19095SOL    HW161073   1.278   0.791  10.065 -2.0945 -2.2965  0.2813
19095SOL    HW261074   1.335   0.825  10.201  0.4839  2.3184 -1.7150
19096SOL     OW61075   7.882   5.720   1.161 -0.2982  0.4858 -0.2135
19096SOL    HW161076   7.817   5.765   1.107  0.4550  2.1037  0.1693
19096SOL    HW261077   7.898   5.637   1.117 -1.4265  0.7709 -1.1826
19097SOL     OW61078   4.847   7.502   8.919  0.5640  0.1127 -0.1693
19097SOL    HW161079   4.918   7.472   8.976 -0.5482 -1.2158  0.5954
19097SOL    HW261080   4.769   7.461   8.956 -0.5224  1.0825 -1.3198
19098SOL     OW61081   8.226   9.747   2.754  0.0867 -0.5375  0.0542
19098SOL    HW161082   8.291   9.810   2.785  2.6645 -1.6573 -2.5454
19098SOL    HW261083   8.169   9.796   2.695  0.4927 -0.1337 -0.0012
19099SOL     OW61084   4.763   0.437   1.661  0.2038 -0.1094  0.1464
19099SOL    HW161085   4.790   0.348   1.684  1.0089  0.0519 -0.1526
19099SOL    HW261086   4.840   0.476   1.621 -0.0567  0.8215  0.5207
19100SOL     OW61087   0.746   2.935   3.816  0.0867  0.2100 -0.3534
19100SOL    HW161088   0.771   2.996   3.746  0.0653  1.6000  0.8021
19100SOL    HW261089   0.680   2.878   3.775 -1.0488  1.9536 -1.0703
19101SOL     OW61090   1.574   4.733   4.593 -0.5731  0.1539 -0.3089
19101SOL    HW161091   1.589   4.818   4.553 -0.1116  0.5560  0.6860
19101SOL    HW261092   1.647   4.721   4.654 -0.7844 -0.8254 -0.2242
19102SOL     OW61093   3.795   8.054   8.797  0.3276  0.6988 -0.0611
19102SOL    HW161094   3.715   8.092   8.832  0.0302  0.1305 -0.1107
19102SOL    HW261095   3.789   7.961   8.821 -0.0081  0.2328 -1.8425
19103SOL     OW61096   1.729  10.188   5.306  0.0841  0.3013 -0.5715
19103SOL    HW161097   1.708  10.098   5.333  0.2170  0.7387  1.0965
19103SOL    HW261098   1.652  10.239   5.331  0.5302  0.8512 -0.3053
19104SOL     OW61099   3.408   7.472   6.293 -0.1029 -0.2104  0.3119
19104SOL    HW161100   3.359   7.503   6.217  3.0881  2.7715 -0.7641
19104SOL    HW261101   3.368   7.518   6.367 -0.9744 -0.3647 -0.0489
19105SOL     OW61102   8.466   1.592   1.123 -0.2335 -0.0444 -0.4113
19105SOL    HW161103   8.424   1.639   1.194  0.3104 -1.3574  0.8276
19105SOL    HW261104   8.407   1.518   1.104 -0.2172  0.1119 -1.1118
19106SOL     OW61105   6.014   6.137   2.380 -0.1061 -0.6828  0.5925
19106SOL    HW161106   5.929   6.099   2.403 -0.3523 -1.4540 -1.3274
19106SOL    HW261107   6.025   6.211   2.439 -1.6192 -1.2194  1.5940
19107SOL     OW61108   0.309   4.961   8.653 -0.2542  0.0623 -0.3804
19107SOL    HW161109   0.280   4.937   8.742  0.0071 -1.9946 -0.7943
19107SOL    HW261110   0.380   5.023   8.667  0.5643 -1.1026  0.9384
19108SOL     OW61111   2.862   1.685   0.890 -0.2234  0.1177  0.0138
19108SOL    HW161112   2.869   1.699   0.984  2.0890 -1.6198  0.1889
19108SOL    HW261113   2.807   1.608   0.881  0.6327 -0.5082  0.0459
19109SOL     OW61114   0.157   5.014   2.425 -0.7157  0.1006 -0.0909
19109SOL    HW161115   0.169   5.108   2.412  2.5568 -0.3025 -0.6405
19109SOL    HW261116   0.161   5.002   2.520 -2.0396  0.5456  0.0499
19110SOL     OW61117   3.413   2.497   3.578  0.1361  0.2968 -0.7822
19110SOL    HW161118   3.328   2.461   3.605  0.5165  0.1348  0.2575
19110SOL    HW261119   3.477   2.432   3.608  0.7464  1.2511  0.0327
19111SOL     OW61120   3.993   7.943  10.037 -0.2306 -0.4533  0.5567
19111SOL    HW161121   3.996   7.963  10.131 -0.1835 -1.3392  0.7515
19111SOL    HW261122   4.006   8.028   9.995 -3.6187  0.6014  1.2891
19112SOL     OW61123   4.845   2.756   5.001 -0.5497 -0.4304 -0.3247
19112SOL    HW161124   4.909   2.779   4.934  1.1595  1.1772  1.7278
19112SOL    HW261125   4.876   2.673   5.037  0.3548  0.2744  0.5689
19113SOL     OW61126   0.204   7.499   2.200 -0.0917 -0.9490 -0.0183
19113SOL    HW161127   0.181   7.578   2.151  1.2182 -1.8131 -2.1323
19113SOL    HW261128   0.120   7.455   2.214 -0.5670 -0.3962 -0.9985
19114SOL     OW61129   2.450   9.899   5.802  0.5118 -0.1791 -0.0297
19114SOL    HW161130   2.444   9.867   5.893 -0.0055 -0.2367 -0.0787
19114SOL    HW261131   2.463   9.993   5.811 -1.2359  0.0945  0.1209
19115SOL     OW61132   0.706   4.321   5.481 -0.6497 -0.7789  0.6283
19115SOL    HW161133   0.760   4.244   5.497  0.7784 -0.1283 -0.8217
19115SOL    HW261134   0.766   4.395   5.494 -2.2301  0.2055  3.0183
19116SOL     OW61135   3.889   6.606   3.112 -0.2668  0.3675  0.1923
19116SOL    HW161136   3.963   6.551   3.084  0.4734  1.7104 -0.5704
19116SOL    HW261137   3.842   6.552   3.176 -0.7483 -1.9590 -1.9905
19117SOL     OW61138   6.192   8.908   9.055 -0.0979 -0.0256 -0.2503
19117SOL    HW161139   6.249   8.843   9.015  1.8775 -0.1554  2.4606
19117SOL    HW261140   6.150   8.861   9.127  1.0016  1.4582  1.4594
19118SOL     OW61141   0.711  10.355   6.461  0.2923  0.5264  0.4046
19118SOL    HW161142   0.765  10.420   6.506 -1.7744  3.1041 -0.5922
19118SOL    HW261143   0.747  10.351   6.372 -0.0036  0.8043  0.2738
19119SOL     OW61144   8.870   6.284   0.875 -0.2482  0.0329 -0.1821
19119SOL    HW161145   8.862   6.234   0.794 -0.0555  0.5223 -0.5068
19119SOL    HW261146   8.805   6.354   0.866  0.7575  0.9495 -0.5582
19120SOL     OW61147   8.828   0.932   4.545 -0.3255  0.5211  0.1587
19120SOL    HW161148   8.813   1.020   4.581  1.8938  0.7055  0.7779
19120SOL    HW261149   8.768   0.876   4.593 -2.0541  1.7227 -0.5043
19121SOL     OW61150   1.689   3.470   5.690  0.0331  0.1017 -0.2423
19121SOL    HW161151   1.678   3.560   5.661  0.2285  0.3298  0.3780
19121SOL    HW261152   1.663   3.417   5.614  2.0187  0.6723 -1.4138
19122SOL     OW61153   1.522   3.924   8.245  0.5899  0.8254 -0.2850
19122SOL    HW161154   1.459   3.954   8.311 -0.3608 -0.8270 -0.3951
19122SOL    HW261155   1.511   3.984   8.172 -1.5095  0.0639 -0.6378
19123SOL     OW61156   2.208   7.758   3.764 -0.3329 -0.3188  0.2829
19123SOL    HW161157   2.162   7.676   3.782 -0.1493 -0.9564 -1.8233
19123SOL    HW261158   2.279   7.760   3.829  2.2603 -4.0265 -2.0149
19124SOL     OW61159   1.482   4.606   5.479  0.1807  0.1528  0.3553
19124SOL    HW161160   1.422   4.584   5.408  2.1061 -0.1787 -1.2352
19124SOL    HW261161   1.543   4.533   5.484  0.2856  0.3146  2.1713
19125SOL     OW61162   5.295   0.485   0.301  0.5693 -0.9329 -0.0115
19125SOL    HW161163   5.347   0.450   0.229 -0.5316 -0.6178 -0.9868
19125SOL    HW261164   5.219   0.525   0.259 -0.6592 -1.7064  1.3773
19126SOL     OW61165   2.662   1.888   4.229 -0.0310  0.0327 -0.6025
19126SOL    HW161166   2.724   1.955   4.259 -0.0452 -0.3667  0.3522
19126SOL    HW261167   2.675   1.885   4.135  0.6792  0.6812 -0.5408
19127SOL     OW61168   5.841   2.462   8.481  0.1222 -0.0279  0.0556
19127SOL    HW161169   5.747   2.476   8.464 -0.1896 -1.8314  0.1452
19127SOL    HW261170   5.863   2.384   8.431  1.1994 -0.5274  1.2569
19128SOL     OW61171   8.761   9.322   4.382 -0.3700  0.6022 -0.1337
19128SOL    HW161172   8.725   9.244   4.424 -0.2493  1.4353  1.6214
19128SOL    HW261173   8.753   9.305   4.288  0.8722 -2.0855  0.1515
19129SOL     OW61174   7.587   0.491   9.263 -0.2901 -0.3024  0.3949
19129SOL    HW161175   7.576   0.567   9.205  0.8904  0.5631  1.2688
19129SOL    HW261176   7.561   0.523   9.349  0.8403 -0.6975  0.8921
19130SOL     OW61177   4.915   1.608   8.708  0.3165 -0.0564 -0.0703
19130SOL    HW161178   4.896   1.573   8.795  2.9180  0.0279  0.6264
19130SOL    HW261179   4.865   1.689   8.704  0.7667  0.3580  1.7016
19131SOL     OW61180   7.067   1.992   3.129 -0.3719  0.2289 -1.2163
19131SOL    HW161181   7.024   2.075   3.152 -0.1679 -0.0401  0.2029
19131SOL    HW261182   7.001   1.944   3.080 -0.7029  0.9734 -1.5286
19132SOL     OW61183   4.297   9.373   4.374 -0.1141  0.2624  0.6584
19132SOL    HW161184   4.277   9.454   4.327  2.5698 -0.2241 -1.5662
19132SOL    HW261185   4.255   9.304   4.322  0.3294 -0.0300  0.6791
19133SOL     OW61186   7.721   4.121   7.842 -0.0933  1.0197  0.6443
19133SOL    HW161187   7.627   4.133   7.830 -0.0826  1.5256  1.0320
19133SOL    HW261188   7.757   4.210   7.843  0.1895  0.9165  2.0159
19134SOL     OW61189   3.815   4.248   9.662 -0.0697 -0.0067 -0.2883
19134SOL    HW161190   3.774   4.324   9.621 -0.2813 -0.0289 -0.1227
19134SOL    HW261191   3.839   4.191   9.589 -0.1170  0.1161 -0.3994
19135SOL     OW61192  10.018   3.407   0.724 -0.1227  0.1449  0.2253
19135SOL    HW161193  10.068   3.441   0.649  0.2761  1.6335  1.1165
19135SOL    HW261194   9.967   3.335   0.688  0.6332  0.3252 -1.3113
19136SOL     OW61195   8.533   2.304   5.528 -0.1932  0.0716 -0.0063
19136SOL    HW161196   8.558   2.306   5.436 -0.0463 -0.2245  0.0266
19136SOL    HW261197   8.451   2.354   5.531  0.4971  1.2340 -0.0771
19137SOL     OW61198   4.381   7.410   1.151 -0.3975 -0.3426 -0.5163
19137SOL    HW161199   4.451   7.447   1.206 -0.8923 -1.2124  0.7267
19137SOL    HW261200   4.425   7.388   1.069  0.3469  1.0364 -0.5229
19138SOL     OW61201   2.984   0.355   4.618  0.3518 -0.4727  0.6530
19138SOL    HW161202   3.062   0.384   4.666  0.0955  0.1880  0.6829
19138SOL    HW261203   2.924   0.324   4.686 -0.0087  0.4570  0.7737
19139SOL     OW61204   2.485   8.405   0.999 -0.2188  0.1182  0.6819
19139SOL    HW161205   2.547   8.353   1.051 -0.3787 -0.3086  0.4444
19139SOL    HW261206   2.402   8.359   1.007  0.1895 -1.1334 -1.6422
19140SOL     OW61207   2.329   6.460   0.809  0.9198 -0.1785  0.0392
19140SOL    HW161208   2.307   6.380   0.761  2.0831 -0.2093 -0.4821
19140SOL    HW261209   2.246   6.488   0.848  0.1591 -0.7311 -1.1178
19141SOL     OW61210   8.731   6.081   9.805 -0.0351  0.2964  0.3634
19141SOL    HW161211   8.718   6.023   9.731  0.2765  0.3846  0.2379
19141SOL    HW261212   8.733   6.022   9.881  0.0066  0.1682  0.2641
19142SOL     OW61213   1.811   4.802   2.723 -0.2066  0.2730 -0.2650
19142SOL    HW161214   1.830   4.716   2.686  1.7246  0.2423  0.6601
19142SOL    HW261215   1.833   4.864   2.654 -0.6292  0.0634 -0.5885
19143SOL     OW61216   8.976   5.072   3.093 -0.2161 -0.3879  0.0366
19143SOL    HW161217   8.996   5.105   3.005 -1.0159  0.8508  0.3019
19143SOL    HW261218   8.966   4.977   3.081 -1.1726 -0.1373 -1.3735
19144SOL     OW61219  10.144   9.541   7.785  0.0211  0.3239  0.0468
19144SOL    HW161220  10.161   9.477   7.716  0.3076  0.6769 -0.2143
19144SOL    HW261221  10.221   9.535   7.842  0.7918  1.5322 -0.8334
19145SOL     OW61222   6.470   0.759   9.640  0.2003 -0.1573 -0.6213
19145SOL    HW161223   6.460   0.785   9.549 -1.5385 -1.2452 -0.7866
19145SOL    HW261224   6.424   0.676   9.647 -2.0088  1.0999  1.8061
19146SOL     OW61225   7.041   6.934   8.993  0.2928  0.5448  0.0936
19146SOL    HW161226   6.961   6.918   9.043  1.2754  0.5248  1.7404
19146SOL    HW261227   7.097   6.859   9.014  0.5565  0.2761 -1.4725
19147SOL     OW61228   0.771   8.566   9.291 -0.3769  0.9142 -0.1102
19147SOL    HW161229   0.730   8.529   9.212 -1.4203  1.8087 -0.0119
19147SOL    HW261230   0.741   8.509   9.362  0.1062  0.4418 -0.2796
19148SOL     OW61231   4.201   6.020   0.172 -0.2894 -0.3130 -0.1574
19148SOL    HW161232   4.280   6.065   0.202  0.5273 -2.3773  1.0183
19148SOL    HW261233   4.155   5.997   0.253 -0.6362 -1.6039 -0.7024
19149SOL     OW61234   5.487   3.971   6.573 -0.1790  0.1666  0.4582
19149SOL    HW161235   5.533   3.915   6.510 -1.8554  0.0126 -0.6823
19149SOL    HW261236   5.530   4.056   6.567  0.5281 -0.2164  0.0802
19150SOL     OW61237   1.446   8.128   3.271 -0.0724  0.3602  0.1560
19150SOL    HW161238   1.395   8.142   3.351 -0.5300 -0.1449 -0.0459
19150SOL    HW261239   1.529   8.091   3.302 -0.0480  0.6386  0.4349
19151SOL     OW61240   0.724   9.613   9.980 -0.0837  0.5658 -0.0953
19151SOL    HW161241   0.687   9.677   9.919  1.0073  0.1138 -1.2770
19151SOL    HW261242   0.756   9.543   9.924 -0.3265 -0.5509  1.1126
19152SOL     OW61243  10.299   2.942   1.662 -0.0246  0.1838 -0.4443
19152SOL    HW161244  10.385   2.929   1.702 -0.3144 -1.1234 -0.1867
19152SOL    HW261245  10.237   2.923   1.732 -0.5443 -2.2076 -1.4403
19153SOL     OW61246   0.696   2.172   6.707 -0.7430 -0.6698  0.3799
19153SOL    HW161247   0.743   2.255   6.709  0.0536 -0.8890 -3.1920
19153SOL    HW261248   0.603   2.197   6.707 -0.5791  0.0435  1.6285
19154SOL     OW61249   5.354  10.096   8.618  0.6004  0.0660  0.3267
19154SOL    HW161250   5.392  10.009   8.620  0.1080 -0.2054 -0.9021
19154SOL    HW261251   5.331  10.110   8.526 -1.8825  0.3769  0.9229
19155SOL     OW61252   4.491   8.534   1.622  0.2060  0.6014 -0.0494
19155SOL    HW161253   4.502   8.528   1.527  0.9820  0.8575  0.0154
19155SOL    HW261254   4.480   8.627   1.639  0.1771  0.5664  0.1278
19156SOL     OW61255   6.461   7.197   8.987 -0.4145  0.5178  0.1331
19156SOL    HW161256   6.511   7.219   8.908 -0.1977 -0.8596 -0.1428
19156SOL    HW261257   6.371   7.219   8.965 -0.4119 -0.1958 -0.6607
19157SOL     OW61258   4.868   6.668   5.345 -0.0083 -0.8138  0.3349
19157SOL    HW161259   4.832   6.645   5.431 -1.4083 -0.0055 -0.0103
19157SOL    HW261260   4.879   6.763   5.349  1.6480 -0.9728  0.2373
19158SOL     OW61261   5.522   3.907   2.696 -0.7356 -0.5542  0.1482
19158SOL    HW161262   5.459   3.977   2.712  0.4786  1.0620 -1.7048
19158SOL    HW261263   5.564   3.892   2.781 -0.5452  1.4832  0.4670
19159SOL     OW61264   0.589   5.985   9.712  0.4123 -0.5332 -0.2648
19159SOL    HW161265   0.545   6.031   9.640 -1.7944 -3.0816 -0.6874
19159SOL    HW261266   0.639   5.916   9.670  1.1156 -0.5193  0.5230
19160SOL     OW61267   1.161   2.295   7.409  0.1620 -0.0116 -0.3867
19160SOL    HW161268   1.121   2.212   7.437 -2.3097  1.6961  1.6200
19160SOL    HW261269   1.234   2.269   7.353  0.8854 -3.6066  1.9104
19161SOL     OW61270  10.154   0.797   5.409  0.0937  0.1892 -0.6475
19161SOL    HW161271  10.157   0.869   5.345  2.5118 -0.4866 -1.3981
19161SOL    HW261272  10.245   0.771   5.419 -0.5021 -1.3129  1.3230
19162SOL     OW61273   2.072   6.251   3.626  0.3056  0.4274  0.2067
19162SOL    HW161274   2.093   6.273   3.535 -0.2104  1.0545  0.2301
19162SOL    HW261275   1.992   6.301   3.645 -0.7795 -1.2822  0.3519
19163SOL     OW61276   1.490   7.462   3.883  0.7076  0.4573  0.2545
19163SOL    HW161277   1.411   7.479   3.831  0.7633  1.0172  0.3409
19163SOL    HW261278   1.521   7.377   3.853  1.1472  1.0834 -1.1752
19164SOL     OW61279   5.011   9.375   2.654  0.0468 -0.0891 -0.2203
19164SOL    HW161280   4.963   9.368   2.736  2.1039 -0.4402  1.0233
19164SOL    HW261281   5.029   9.285   2.628  0.2542  0.0398 -0.5366
19165SOL     OW61282   5.081   6.086   4.022  0.6689  0.7337 -0.4134
19165SOL    HW161283   5.107   6.066   4.112  1.4219 -0.9401 -0.9638
19165SOL    HW261284   4.987   6.106   4.028  0.1060 -1.8284  0.4597
19166SOL     OW61285   0.059   0.956   2.995 -0.7536 -0.1549  0.0856
19166SOL    HW161286   0.017   0.979   2.912  1.1768  1.1108 -0.6208
19166SOL    HW261287   0.074   1.040   3.038  1.5244 -0.4506  0.0041
19167SOL     OW61288   2.572   1.858   9.834  0.1765  0.6542 -0.0407
19167SOL    HW161289   2.647   1.798   9.828 -0.2031  0.2923 -2.2698
19167SOL    HW261290   2.563   1.893   9.745 -0.9606  2.3755  0.7114
19168SOL     OW61291   4.842  10.179   2.293  0.5336  0.2336  0.3668
19168SOL    HW161292   4.827  10.269   2.267 -1.8569 -0.5424 -1.3358
19168SOL    HW261293   4.919  10.152   2.244  1.0689  1.2285  0.6412
19169SOL     OW61294   7.788   3.066   2.697 -0.2990 -0.1782  0.3670
19169SOL    HW161295   7.850   3.139   2.689  0.6564 -0.9287  0.7518
19169SOL    HW261296   7.841   2.988   2.686 -1.0560 -0.8681  1.3898
19170SOL     OW61297   0.116   6.935   9.285  0.0679  0.1904  0.3429
19170SOL    HW161298   0.164   6.867   9.333  1.9254  0.6598 -0.7655
19170SOL    HW261299   0.080   6.889   9.209  0.6139  0.2609  0.0362
19171SOL     OW61300   6.070   1.553   4.424  0.5316 -0.6140 -0.2908
19171SOL    HW161301   6.005   1.621   4.436  0.5935 -0.3783 -1.2258
19171SOL    HW261302   6.069   1.504   4.506  0.2680  0.3141  0.2735
19172SOL     OW61303   7.936   9.309   3.956 -0.4771 -0.1729 -0.1367
19172SOL    HW161304   7.864   9.268   4.005 -1.7261 -0.5193 -2.1481
19172SOL    HW261305   7.979   9.236   3.912  0.6118  0.1380  0.3834
19173SOL     OW61306   8.012   2.833   0.632 -0.0921  0.3265 -0.3902
19173SOL    HW161307   7.937   2.777   0.614  0.9480 -1.1902 -0.2213
19173SOL    HW261308   8.083   2.772   0.655  1.4011  1.6297 -1.2629
19174SOL     OW61309   9.419   5.526   4.610  0.3084  0.4753  0.1502
19174SOL    HW161310   9.345   5.498   4.556  0.8375  0.7538 -0.7329
19174SOL    HW261311   9.494   5.482   4.571  0.6084  0.1517  1.0742
19175SOL     OW61312   5.746   6.195   2.632 -0.4726  0.0076  0.2097
19175SOL    HW161313   5.743   6.214   2.538  0.0528  0.0022  0.1889
19175SOL    HW261314   5.745   6.099   2.637  2.8643 -0.1499  0.0336
19176SOL     OW61315   8.976   3.264   8.450 -0.2165 -0.4275 -0.1585
19176SOL    HW161316   8.904   3.287   8.391 -0.8410 -0.5632  0.5389
19176SOL    HW261317   8.989   3.342   8.504  0.9197  0.0071 -1.0019
19177SOL     OW61318   5.918   8.716   8.046  0.1818 -0.1048 -0.1289
19177SOL    HW161319   5.849   8.675   7.994 -0.8504  0.1368  1.0122
19177SOL    HW261320   5.875   8.743   8.126  1.7768 -0.6494  0.9621
19178SOL     OW61321   8.574   9.184   6.545 -0.1535  0.3391  0.3566
19178SOL    HW161322   8.588   9.164   6.638 -1.1657 -2.1554  0.0357
19178SOL    HW261323   8.489   9.146   6.525  0.6335 -0.3492 -1.9207
19179SOL     OW61324   0.330   5.262   9.049  0.1002 -0.9799 -0.3888
19179SOL    HW161325   0.366   5.337   9.095  0.5598 -0.6705 -1.2273
19179SOL    HW261326   0.348   5.187   9.106 -0.3701 -0.4605  0.4551
19180SOL     OW61327   6.345   7.973   5.960  0.4616  0.0043  0.5856
19180SOL    HW161328   6.318   8.040   5.897 -1.8308 -1.5216 -0.1896
19180SOL    HW261329   6.339   8.017   6.045  1.8442  1.5718 -0.0593
19181SOL     OW61330   7.528   9.339   4.280  0.7031  0.0613  0.1562
19181SOL    HW161331   7.470   9.275   4.239  1.7253 -0.0055 -1.2557
19181SOL    HW261332   7.593   9.286   4.326 -0.5209  0.1351  2.0547
19182SOL     OW61333   8.695   0.663   1.781 -0.3516 -0.4404  0.5438
19182SOL    HW161334   8.616   0.649   1.832  1.0303 -0.5111  2.8208
19182SOL    HW261335   8.754   0.592   1.807  0.8102  0.1411 -0.3710
19183SOL     OW61336   6.477   4.943   4.185 -0.2374  0.7729 -0.3527
19183SOL    HW161337   6.509   5.032   4.201  1.0401  0.4258 -0.8195
19183SOL    HW261338   6.511   4.892   4.259 -0.3483  0.5402 -0.4624
19184SOL     OW61339   3.832   3.616   3.890 -0.4457  0.0835 -0.6383
19184SOL    HW161340   3.748   3.575   3.870  0.3527 -1.8756 -0.3213
19184SOL    HW261341   3.814   3.674   3.964 -1.2498 -1.6721  0.6330
19185SOL     OW61342   1.941   9.292   1.220 -0.1715 -0.2087  0.2372
19185SOL    HW161343   1.889   9.316   1.296 -0.6293  0.1674 -0.1838
19185SOL    HW261344   1.964   9.201   1.234 -1.9497 -0.7590 -0.1014
19186SOL     OW61345   0.799   4.132   6.404 -0.2458 -0.2919  0.0060
19186SOL    HW161346   0.812   4.046   6.363 -1.0062  0.1499 -1.1931
19186SOL    HW261347   0.871   4.185   6.370 -1.3565  0.3195 -1.5140
19187SOL     OW61348   8.239   1.468   5.240  0.1437  0.1198 -0.1139
19187SOL    HW161349   8.269   1.558   5.250  0.4512  0.2066 -1.5163
19187SOL    HW261350   8.287   1.436   5.163  0.9830 -1.6481  1.0760
19188SOL     OW61351   9.994   6.768   5.795 -0.3435  0.1752  0.1934
19188SOL    HW161352  10.090   6.768   5.796 -0.3415  0.6946  0.3484
19188SOL    HW261353   9.970   6.679   5.822  0.0969 -0.5143 -1.5887
19189SOL     OW61354   8.615   4.661   8.563  0.1493 -0.1063  0.3955
19189SOL    HW161355   8.675   4.691   8.494 -0.4349  0.6159  0.1963
19189SOL    HW261356   8.573   4.584   8.526 -1.4169  1.2436 -0.7602
19190SOL     OW61357   6.174  10.102   9.802  0.0281  0.0854 -0.6975
19190SOL    HW161358   6.132  10.106   9.888  0.8704  3.4815 -0.2964
19190SOL    HW261359   6.215  10.015   9.800 -2.0316 -1.0456  1.2564
19191SOL     OW61360   5.297   0.431   3.312 -0.1025  0.9591 -0.0568
19191SOL    HW161361   5.348   0.405   3.235 -0.4164  0.5245 -0.1253
19191SOL    HW261362   5.343   0.507   3.347  0.7305  0.4316  0.0216
19192SOL     OW61363   4.752   8.354   2.678 -0.2277 -0.0757 -0.1825
19192SOL    HW161364   4.744   8.448   2.664  1.0063  0.1154  0.2737
19192SOL    HW261365   4.774   8.345   2.771  0.1346 -0.7843 -0.3303
19193SOL     OW61366   2.167   3.385   8.021 -1.2389 -0.0530  0.2893
19193SOL    HW161367   2.129   3.412   8.105 -1.1623  0.3014  0.2102
19193SOL    HW261368   2.257   3.361   8.042 -2.0589 -3.0529  0.9047
19194SOL     OW61369   8.297   4.417   9.186  0.5527 -0.4133  0.3583
19194SOL    HW161370   8.321   4.344   9.242 -0.9774 -0.9033  0.4146
19194SOL    HW261371   8.214   4.391   9.147  0.4799  0.8782 -0.3990
19195SOL     OW61372   6.931   0.974   0.279 -0.1104  0.2870 -0.0832
19195SOL    HW161373   7.021   0.984   0.247  0.3035 -1.2915  0.5417
19195SOL    HW261374   6.933   1.008   0.368  0.4207 -1.7285  0.7170
19196SOL     OW61375   4.558   1.156  10.115  0.0748 -0.1323 -0.6204
19196SOL    HW161376   4.513   1.222  10.168  0.5059  0.0723 -0.4990
19196SOL    HW261377   4.651   1.170  10.134  0.1059 -2.9045  2.0398
19197SOL     OW61378   1.317   4.836   8.923 -0.4401  0.0271 -0.2225
19197SOL    HW161379   1.385   4.807   8.983 -1.4893  1.8425  1.9642
19197SOL    HW261380   1.252   4.766   8.925 -0.1129 -0.2679  0.1823
19198SOL     OW61381   6.104   1.781   8.743 -0.2650 -0.3830 -0.3901
19198SOL    HW161382   6.020   1.760   8.784  0.0301  0.2104  0.5505
19198SOL    HW261383   6.169   1.761   8.810  0.1897  1.1545 -0.3367
19199SOL     OW61384   2.133   0.856   8.847  0.4065 -0.0528  0.8646
19199SOL    HW161385   2.218   0.858   8.802  0.2555 -1.2800  0.4918
19199SOL    HW261386   2.121   0.764   8.871  0.0894  0.4294  2.6998
19200SOL     OW61387   7.589   9.779   4.171  0.2597  0.0544  0.2890
19200SOL    HW161388   7.644   9.764   4.094  1.6705  1.5129  0.9536
19200SOL    HW261389   7.609   9.705   4.229  0.8438  0.0886  0.1410
19201SOL     OW61390   1.987   4.551   5.032 -0.2747 -0.3309  0.4847
19201SOL    HW161391   2.044   4.606   4.979 -1.1825  1.0354  0.8604
19201SOL    HW261392   1.936   4.500   4.969 -0.5617  0.4605  0.0612
19202SOL     OW61393   5.353   9.792   9.526  0.4972 -0.1517  0.1287
19202SOL    HW161394   5.279   9.734   9.506 -0.5917  1.4284 -0.6313
19202SOL    HW261395   5.330   9.833   9.609  0.7335  0.0353  0.1031
19203SOL     OW61396   8.318   8.408   1.385 -0.2983  0.0282  0.7034
19203SOL    HW161397   8.260   8.453   1.446 -1.9777 -0.4871 -0.4315
19203SOL    HW261398   8.318   8.316   1.414 -0.4294 -0.0600  0.4281
19204SOL     OW61399   9.281   1.001   9.456 -0.6484  0.1289  0.5504
19204SOL    HW161400   9.284   1.066   9.526  0.9618 -0.2706  0.8913
19204SOL    HW261401   9.351   0.939   9.477 -1.8312 -1.4582 -0.0250
19205SOL     OW61402   4.691   7.901   3.156  0.3877  0.3735  0.2023
19205SOL    HW161403   4.679   7.890   3.062  0.4382  0.0792  0.2292
19205SOL    HW261404   4.614   7.949   3.185 -0.5995 -1.2375  0.3252
19206SOL     OW61405   8.998   4.066   9.275  0.0717  0.3456 -0.5339
19206SOL    HW161406   8.921   4.011   9.271 -2.0232  2.8107  1.8715
19206SOL    HW261407   8.983   4.133   9.209 -0.8367  1.8210  1.0739
19207SOL     OW61408   3.695   1.635   9.570 -0.0169  0.1008 -0.3333
19207SOL    HW161409   3.686   1.540   9.569 -0.6423  0.1283  0.7974
19207SOL    HW261410   3.691   1.659   9.663  1.8467  1.0942 -0.4616
19208SOL     OW61411   9.216   9.329  10.269 -0.4946 -0.5010 -0.4959
19208SOL    HW161412   9.287   9.275  10.235  1.0408  0.4882  0.9456
19208SOL    HW261413   9.234   9.416  10.235 -2.2832 -0.6153 -1.8552
19209SOL     OW61414   1.757   2.702   6.787 -0.9123  0.2476  0.1299
19209SOL    HW161415   1.797   2.661   6.864 -0.9538  0.7001  0.4016
19209SOL    HW261416   1.699   2.635   6.751 -2.5196  0.6880  1.7268
19210SOL     OW61417   9.628   1.979   4.953  0.1307  0.0800 -0.2121
19210SOL    HW161418   9.609   1.885   4.962  3.5697 -0.5607  1.8471
19210SOL    HW261419   9.676   1.986   4.871  0.6736 -0.1286  0.0853
19211SOL     OW61420   6.955   3.345   0.084 -0.5282 -0.5623  0.3216
19211SOL    HW161421   6.927   3.304   0.166 -0.0679 -0.5095  0.5095
19211SOL    HW261422   6.885   3.407   0.062  0.5443  1.3797  2.0816
19212SOL     OW61423   9.903   7.373   7.653  0.0608  0.1393  0.3966
19212SOL    HW161424   9.972   7.439   7.653 -0.4477  0.7049 -0.9738
19212SOL    HW261425   9.902   7.340   7.563 -2.1951  0.9597  0.0620
19213SOL     OW61426   4.480   1.717   0.199  0.0374 -0.0316  0.6959
19213SOL    HW161427   4.464   1.787   0.135  0.9264 -0.1025  0.3785
19213SOL    HW261428   4.423   1.738   0.273 -0.3738  0.5237  0.2309
19214SOL     OW61429   1.173   8.708   3.531  0.3541 -0.2594  0.0878
19214SOL    HW161430   1.162   8.778   3.466  1.7307  1.5795  1.7111
19214SOL    HW261431   1.267   8.687   3.527  0.0159 -1.8949 -0.1834
19215SOL     OW61432   4.633   5.006   4.539 -0.0700 -0.1365  0.3856
19215SOL    HW161433   4.557   4.982   4.593 -1.6622 -1.1773 -2.1214
19215SOL    HW261434   4.611   5.091   4.502  0.0577 -0.3354 -0.1680
19216SOL     OW61435   7.399   4.255   5.417 -0.3798  0.4085 -0.4296
19216SOL    HW161436   7.321   4.310   5.417 -0.6348  0.0474 -0.0981
19216SOL    HW261437   7.417   4.239   5.509  0.2007  0.6482 -0.4967
19217SOL     OW61438   4.744   8.901   0.462 -0.1127  0.6012  0.5008
19217SOL    HW161439   4.749   8.806   0.452  0.3053  0.3952  2.1987
19217SOL    HW261440   4.747   8.915   0.557 -2.6288  2.1918  0.4535
19218SOL     OW61441   9.150   7.993   0.754 -0.2509  0.1445  1.0082
19218SOL    HW161442   9.221   7.955   0.805 -0.3201  1.4772  2.1569
19218SOL    HW261443   9.184   8.077   0.723  0.2062 -1.0967 -2.2008
19219SOL     OW61444   0.702   9.174   4.471 -0.2561  0.2393 -0.5213
19219SOL    HW161445   0.792   9.152   4.498  0.2027  1.3040 -1.1330
19219SOL    HW261446   0.681   9.253   4.520  0.4914  2.0487 -2.9632
19220SOL     OW61447   0.238   4.695   9.863  0.3918 -0.4555  0.1587
19220SOL    HW161448   0.156   4.667   9.902  0.3580 -0.5101  0.0486
19220SOL    HW261449   0.265   4.771   9.915  0.4000 -0.5910  0.3511
19221SOL     OW61450   5.001   1.945   6.025  0.0805 -0.0071 -0.2591
19221SOL    HW161451   4.965   2.017   6.076  1.9908 -0.3770  1.7566
19221SOL    HW261452   5.086   1.977   5.994  0.1595 -0.7683 -0.8647
19222SOL     OW61453   6.544   8.436   3.246  0.2589  0.7747  0.1753
19222SOL    HW161454   6.497   8.500   3.299  0.4240  0.2518  0.9732
19222SOL    HW261455   6.481   8.410   3.178 -0.3691  0.6032  0.8132
19223SOL     OW61456   1.214   7.505   4.488 -0.0275  0.6809  0.7261
19223SOL    HW161457   1.209   7.576   4.423 -0.0123  0.3877  0.4005
19223SOL    HW261458   1.262   7.435   4.443 -0.8840  0.0932  0.6989
19224SOL     OW61459   7.943   0.416   8.594 -0.3911 -0.1228 -0.1308
19224SOL    HW161460   7.896   0.444   8.673  0.5519 -1.2243  0.8522
19224SOL    HW261461   7.924   0.323   8.586  0.0863 -0.1708 -0.8181
19225SOL     OW61462   3.044   8.881   3.176  0.3184 -0.6018 -0.1624
19225SOL    HW161463   3.096   8.921   3.107  1.0548 -0.9607  0.1684
19225SOL    HW261464   3.097   8.808   3.206 -1.1657 -2.1196 -1.0395
19226SOL     OW61465   8.162   8.476   9.544 -0.2449 -0.2592 -0.0525
19226SOL    HW161466   8.182   8.529   9.467  1.4812 -0.9584 -0.1363
19226SOL    HW261467   8.080   8.512   9.577 -0.2084  1.0812 -1.3019
19227SOL     OW61468   4.597   1.819   4.364 -0.2926 -0.3051 -0.4760
19227SOL    HW161469   4.607   1.767   4.444 -2.4220  0.4645  0.3590
19227SOL    HW261470   4.604   1.910   4.393 -0.8936 -0.0253 -1.1820
19228SOL     OW61471  10.063   6.424   2.040 -0.1007 -0.0854  0.1782
19228SOL    HW161472  10.137   6.458   1.990 -0.2779  1.2349  0.7750
19228SOL    HW261473  10.010   6.376   1.976  1.1030 -0.7932 -0.3107
19229SOL     OW61474   2.442   1.547   8.736 -0.6836  0.5545 -0.4713
19229SOL    HW161475   2.513   1.602   8.767  0.2070 -1.1921  0.7955
19229SOL    HW261476   2.368   1.568   8.793  0.2546 -0.9371  1.4100
19230SOL     OW61477   0.067   3.653   7.908  0.1792 -0.7618  0.1222
19230SOL    HW161478  -0.003   3.718   7.897  0.9807  0.1170  0.1316
19230SOL    HW261479   0.049   3.614   7.994  0.4786  0.4351  0.7516
19231SOL     OW61480   6.198   6.824   4.028  0.0736  0.1222  0.4917
19231SOL    HW161481   6.240   6.749   4.071 -1.0946  0.6492  2.7679
19231SOL    HW261482   6.260   6.896   4.039  0.2738 -0.0088  0.2374
19232SOL     OW61483   8.156   5.523   4.008  0.1505  0.2318 -0.1788
19232SOL    HW161484   8.124   5.487   4.090  0.1743  1.1097  0.2202
19232SOL    HW261485   8.138   5.617   4.013  0.0600  0.2907 -1.2133
19233SOL     OW61486   2.683   5.912   6.933  0.1917 -0.7217 -0.0725
19233SOL    HW161487   2.649   5.859   7.004 -0.5376 -0.5918 -0.3230
19233SOL    HW261488   2.640   5.997   6.943 -0.1362 -0.7909 -0.8356
19234SOL     OW61489   7.463   6.912   6.539  0.7557 -0.0645  0.4654
19234SOL    HW161490   7.430   6.994   6.502  1.0863 -0.2970 -0.3694
19234SOL    HW261491   7.403   6.893   6.611 -0.3746  0.0341 -0.4030
19235SOL     OW61492   1.037   3.080   9.562 -0.4512 -0.1001 -0.0008
19235SOL    HW161493   1.066   3.171   9.561 -1.4059  0.2101 -0.5416
19235SOL    HW261494   0.990   3.070   9.644 -0.6857  0.0094 -0.1209
19236SOL     OW61495   0.586   2.038   3.884  0.2363 -0.4673  0.3343
19236SOL    HW161496   0.544   2.009   3.803  0.3142 -1.1215  0.5209
19236SOL    HW261497   0.532   2.001   3.954 -0.0016  0.3447  0.5885
19237SOL     OW61498   6.665   7.208   0.001 -0.5654 -0.2895  0.3157
19237SOL    HW161499   6.712   7.129  -0.026  1.2471 -0.0303  2.3981
19237SOL    HW261500   6.655   7.258  -0.080  0.3109 -1.5993 -0.6610
19238SOL     OW61501   9.502   8.042  10.071  0.2438 -0.5729 -0.1272
19238SOL    HW161502   9.510   8.133  10.098  0.1713  0.0922 -2.2298
19238SOL    HW261503   9.417   8.037  10.028  0.7824 -1.3140 -1.1520
19239SOL     OW61504   5.380   6.503   7.893 -0.0560 -0.4363  0.1967
19239SOL    HW161505   5.400   6.513   7.986 -1.1127 -0.0127  0.3889
19239SOL    HW261506   5.325   6.426   7.888  1.4720 -1.5438 -0.3236
19240SOL     OW61507   7.455   3.758   7.635  0.0448 -0.7821 -0.2652
19240SOL    HW161508   7.525   3.759   7.700  0.5436  0.3097 -0.8076
19240SOL    HW261509   7.499   3.774   7.551 -0.9248  0.8409 -0.5141
19241SOL     OW61510   1.276   5.519   9.279  0.6024  0.2875  0.1549
19241SOL    HW161511   1.333   5.443   9.286  3.1084  1.9745 -0.7591
19241SOL    HW261512   1.289   5.551   9.190 -1.3220  1.1493  0.1220
19242SOL     OW61513   4.818   8.146   9.853  0.2770  0.2032  0.0327
19242SOL    HW161514   4.728   8.163   9.882  0.7814  2.0239  0.6975
19242SOL    HW261515   4.852   8.233   9.832  1.6354 -0.5487 -0.9814
19243SOL     OW61516   7.733   6.264   8.296  0.1548 -0.1294 -0.3751
19243SOL    HW161517   7.665   6.255   8.230  0.0781 -1.4734 -0.1547
19243SOL    HW261518   7.723   6.353   8.329 -1.4162 -0.2488 -0.4448
19244SOL     OW61519   8.152  10.061   4.588  0.1686  0.2163 -0.0144
19244SOL    HW161520   8.211  10.061   4.664  1.3178  0.3917 -0.8886
19244SOL    HW261521   8.099  10.140   4.599 -0.5060 -0.3583  1.2012
19245SOL     OW61522   4.174   3.793   8.647 -0.2210  0.3657  0.1757
19245SOL    HW161523   4.251   3.740   8.670 -0.4500 -0.1955 -0.3196
19245SOL    HW261524   4.211   3.874   8.613  0.2173 -0.4205 -1.3516
19246SOL     OW61525  10.055   4.480   0.036 -0.6168 -0.8120 -0.0112
19246SOL    HW161526  10.049   4.498  -0.057 -0.1635 -2.6304 -0.4327
19246SOL    HW261527  10.018   4.392   0.046  0.0230 -0.9501  1.3981
19247SOL     OW61528   0.083   6.583   9.697 -0.8403  0.3030 -0.0639
19247SOL    HW161529   0.008   6.635   9.672  0.0461  1.6381 -0.0439
19247SOL    HW261530   0.140   6.644   9.745  1.5749  0.1449 -2.4821
19248SOL     OW61531   6.819   8.228   7.164 -0.3644 -0.5319 -0.7222
19248SOL    HW161532   6.851   8.185   7.244  1.1261  0.0806 -0.9455
19248SOL    HW261533   6.727   8.246   7.182  0.5057  2.0474  2.0078
19249SOL     OW61534   6.377   3.361   1.064 -0.0995  0.5678 -0.0325
19249SOL    HW161535   6.467   3.392   1.053 -0.8137  2.6140 -0.7373
19249SOL    HW261536   6.362   3.304   0.988  0.2345  1.2094 -0.5928
19250SOL     OW61537   3.838   8.827   9.934  0.1481  0.4245 -0.0883
19250SOL    HW161538   3.801   8.905   9.975  0.5581  1.4846 -1.6548
19250SOL    HW261539   3.932   8.842   9.934  0.2880 -0.4263  0.2773
19251SOL     OW61540   3.496   1.143   9.729  0.3857 -0.1584  0.2628
19251SOL    HW161541   3.557   1.177   9.795 -0.6222 -0.5044  1.4292
19251SOL    HW261542   3.468   1.220   9.680  0.8615  0.1660  0.4864
19252SOL     OW61543   6.108   0.910   2.288  0.2752  0.3802  1.0595
19252SOL    HW161544   6.189   0.865   2.313  0.2033  0.3042  1.1571
19252SOL    HW261545   6.048   0.893   2.361  0.4164  1.0808  1.3492
19253SOL     OW61546   3.409   4.094   9.315 -0.3893 -0.6739  0.0412
19253SOL    HW161547   3.480   4.149   9.281 -1.3077  0.5688  0.0581
19253SOL    HW261548   3.408   4.018   9.257  0.2810 -0.2141 -0.5921
19254SOL     OW61549   6.581   4.270   0.072 -0.0359  0.2241 -0.6425
19254SOL    HW161550   6.496   4.245   0.111 -0.2197  1.3416 -0.2910
19254SOL    HW261551   6.643   4.206   0.108 -0.2628  0.9859  1.2620
19255SOL     OW61552   0.143   5.973   8.443  0.5361 -0.2175 -0.1911
19255SOL    HW161553   0.085   5.958   8.517  0.6501 -0.1003 -0.0745
19255SOL    HW261554   0.231   5.956   8.478  0.4580 -2.2517 -0.8615
19256SOL     OW61555   9.674   7.511   0.046 -0.0153  0.0182 -0.7222
19256SOL    HW161556   9.605   7.491   0.108  0.0241  0.8459 -0.3941
19256SOL    HW261557   9.735   7.437   0.053 -0.3391 -0.2097 -0.2584
19257SOL     OW61558   8.391   0.787   3.371  0.1938 -0.5654 -0.4642
19257SOL    HW161559   8.478   0.827   3.372  0.1041 -0.3656 -0.5339
19257SOL    HW261560   8.378   0.760   3.280  0.1809 -0.5869 -0.4561
19258SOL     OW61561   0.687   8.356   0.032  0.3407 -0.1036 -0.0320
19258SOL    HW161562   0.778   8.367   0.003  0.0237  0.7384 -0.7541
19258SOL    HW261563   0.676   8.420   0.102  0.7118 -1.2261  1.1106
19259SOL     OW61564   3.458   2.138   0.603  0.6807 -0.2273  0.6305
19259SOL    HW161565   3.444   2.138   0.698 -0.6572 -0.4146  0.4588
19259SOL    HW261566   3.494   2.052   0.584 -0.9626 -0.9792  0.7499
19260SOL     OW61567   7.559   5.872  10.053 -0.1722 -0.3777 -0.2030
19260SOL    HW161568   7.551   5.872   9.957  0.0353 -0.0357 -0.2222
19260SOL    HW261569   7.550   5.964  10.077 -0.5382 -0.5014  0.1350
19261SOL     OW61570   1.244   1.261   5.267  0.0908  0.1609 -0.1525
19261SOL    HW161571   1.325   1.260   5.216 -0.1271  0.3094 -0.5077
19261SOL    HW261572   1.186   1.201   5.220  0.0129  0.0133  0.1311
19262SOL     OW61573   8.099   6.803   0.080 -0.5106 -0.3506  0.4230
19262SOL    HW161574   8.188   6.834   0.094 -0.6945  0.1782  0.4236
19262SOL    HW261575   8.048   6.842   0.151 -0.6716 -0.9709  0.6598
19263SOL     OW61576   7.299   5.495   3.113  0.0320  0.0907 -0.2076
19263SOL    HW161577   7.283   5.446   3.032 -0.4630  1.9057 -1.2739
19263SOL    HW261578   7.245   5.573   3.104  1.1050  1.0382  1.2303
19264SOL     OW61579   5.274   4.852   7.994  0.4233 -0.5779  0.1038
19264SOL    HW161580   5.297   4.787   7.926 -1.2850  0.2952 -1.4094
19264SOL    HW261581   5.178   4.858   7.989  0.5244  1.9996  0.2339
19265SOL     OW61582  10.074   0.681   2.282 -0.0843  0.5903 -0.4151
19265SOL    HW161583  10.157   0.648   2.318  0.8002 -0.2730 -3.0046
19265SOL    HW261584  10.096   0.765   2.242 -0.7030  0.8503 -0.2235
19266SOL     OW61585   3.554  10.046   9.628  0.5365  0.3497  0.5570
19266SOL    HW161586   3.569  10.096   9.548 -0.4972  0.2309  0.2749
19266SOL    HW261587   3.628   9.986   9.633 -0.5664 -1.3180 -1.6239
19267SOL     OW61588   5.010   0.341   9.903  1.0106  0.1035  0.2343
19267SOL    HW161589   4.951   0.406   9.941  0.3402  0.6869 -1.7122
19267SOL    HW261590   4.999   0.263   9.958 -2.0895 -0.0376 -0.4196
19268SOL     OW61591   6.177   8.575   1.424  0.8326  0.2039 -0.0814
19268SOL    HW161592   6.207   8.544   1.338 -3.5045 -1.3465 -1.2872
19268SOL    HW261593   6.129   8.656   1.404  0.6959  0.4052  1.0348
19269SOL     OW61594   0.391  10.047   3.565  0.5026 -0.4019 -0.1103
19269SOL    HW161595   0.444  10.047   3.486  2.7443  0.6206  1.2952
19269SOL    HW261596   0.375  10.140   3.584 -2.0484 -0.6575 -0.5625
19270SOL     OW61597   5.745   5.614   7.794 -0.3256 -0.2565  0.0091
19270SOL    HW161598   5.728   5.531   7.838 -0.5875  0.3757  1.1308
19270SOL    HW261599   5.840   5.613   7.778 -0.1581 -0.3427  0.9376
19271SOL     OW61600   5.938   6.988   0.467  0.3066 -0.2463  0.0532
19271SOL    HW161601   5.918   7.062   0.523 -0.2455 -1.0124  0.9010
19271SOL    HW261602   5.929   6.912   0.525 -0.4231 -1.0716 -1.1133
19272SOL     OW61603   1.987   4.821   8.396 -0.1698 -0.6285  0.0428
19272SOL    HW161604   1.999   4.909   8.362 -0.5639 -0.2041  0.9770
19272SOL    HW261605   2.066   4.803   8.446  1.2438 -1.9423 -2.4371
19273SOL     OW61606   0.784   8.286   5.926  0.7891  0.2580 -0.1369
19273SOL    HW161607   0.769   8.268   6.019 -0.8408  1.2034 -0.1748
19273SOL    HW261608   0.825   8.372   5.925  0.6864  0.3045 -0.3009
19274SOL     OW61609   6.535   6.775   4.556 -0.2578  0.6284  0.8121
19274SOL    HW161610   6.597   6.767   4.483 -2.7527 -0.5471 -1.3300
19274SOL    HW261611   6.567   6.713   4.621 -0.8970 -2.6209 -1.6848
19275SOL     OW61612   3.000   4.981   7.026  0.3022 -0.1772  0.1757
19275SOL    HW161613   3.043   4.977   6.940  1.9220 -0.2829  0.9399
19275SOL    HW261614   2.927   5.041   7.014  0.6858  0.0406 -1.2051
19276SOL     OW61615   0.676  10.177   4.706  0.7520  0.3229 -0.1157
19276SOL    HW161616   0.614  10.146   4.772  0.1585  2.6854  0.5446
19276SOL    HW261617   0.761  10.143   4.734  0.0389 -1.5594 -0.1020
19277SOL     OW61618   8.179   1.146   0.654  0.5429 -0.0011 -0.9514
19277SOL    HW161619   8.178   1.200   0.576 -2.6228  0.5689 -0.6361
19277SOL    HW261620   8.120   1.190   0.715  1.9437 -1.0694  1.3352
19278SOL     OW61621   7.184   3.766   7.946 -0.6078 -0.4574 -0.3567
19278SOL    HW161622   7.123   3.706   7.903  0.8553 -2.2336 -0.0909
19278SOL    HW261623   7.271   3.729   7.928  0.2311  0.3775  1.6183
19279SOL     OW61624   0.265   1.104   2.389 -0.1511 -0.5334 -0.1319
19279SOL    HW161625   0.211   1.110   2.468 -3.0513 -0.2143 -1.9714
19279SOL    HW261626   0.247   1.017   2.354  1.8526 -1.0472 -0.0141
19280SOL     OW61627   4.478   7.563   9.483 -0.6699 -0.1049  0.6247
19280SOL    HW161628   4.573   7.558   9.484 -0.3791  2.8577 -0.9485
19280SOL    HW261629   4.450   7.503   9.553  2.2314 -1.7720  0.5333
19281SOL     OW61630   8.133   0.803   1.242 -0.2271  0.4330 -0.7741
19281SOL    HW161631   8.164   0.713   1.234  3.2585  1.5499 -1.6160
19281SOL    HW261632   8.149   0.826   1.333  0.3546  0.6488 -0.9267
19282SOL     OW61633   2.504   2.494   3.767 -0.0765 -0.0174 -0.5308
19282SOL    HW161634   2.420   2.451   3.753 -0.8434  2.0123 -2.8119
19282SOL    HW261635   2.500   2.527   3.857 -1.2723 -0.8293 -0.2692
19283SOL     OW61636   7.868   9.492  10.244 -0.8958  0.3741  0.5077
19283SOL    HW161637   7.837   9.482  10.154  2.2490 -0.2032 -0.6366
19283SOL    HW261638   7.807   9.442  10.297 -1.1608 -1.8065 -1.7049
19284SOL     OW61639   2.523   9.850  10.291 -0.0503  0.5273  0.0171
19284SOL    HW161640   2.506   9.935  10.250  0.8221 -0.3231 -2.2302
19284SOL    HW261641   2.559   9.872  10.377 -0.1814  2.4194 -0.3652
19285SOL     OW61642   9.407   3.176   3.474 -0.0905  0.2288  0.4152
19285SOL    HW161643   9.320   3.137   3.462 -0.0859  0.7029 -1.4466
19285SOL    HW261644   9.463   3.102   3.496 -0.5530 -0.4747 -0.6585
19286SOL     OW61645   1.719   6.253   7.447 -0.1216  0.2602  0.9065
19286SOL    HW161646   1.678   6.170   7.470 -1.5665  0.6174 -0.2255
19286SOL    HW261647   1.673   6.317   7.502 -1.4403  0.7127 -0.6387
19287SOL     OW61648   9.861   2.593   9.780 -0.0857 -0.6289  0.0332
19287SOL    HW161649   9.823   2.529   9.720  0.2599  0.2210 -1.1259
19287SOL    HW261650   9.789   2.652   9.801  0.0328 -0.3506 -0.3395
19288SOL     OW61651   4.769   7.521   1.969  0.0243 -0.4831 -0.1780
19288SOL    HW161652   4.855   7.508   2.010  0.0996  2.4911  0.8386
19288SOL    HW261653   4.739   7.432   1.949  1.3683 -1.9945  3.5158
19289SOL     OW61654   7.112   3.151   1.556  0.0860  0.9662 -0.4251
19289SOL    HW161655   7.059   3.116   1.485 -1.1448  0.9137  0.4856
19289SOL    HW261656   7.187   3.191   1.513 -0.7296  1.1016 -1.7628
19290SOL     OW61657   5.655   3.285   8.205 -0.2091 -0.3833  0.0625
19290SOL    HW161658   5.604   3.272   8.285  0.9754  0.5380  0.9977
19290SOL    HW261659   5.744   3.260   8.228  0.5174  1.5903 -0.3995
19291SOL     OW61660   1.098   0.585   6.025  0.3675 -0.3079  0.3102
19291SOL    HW161661   1.095   0.614   6.116 -2.9971 -0.7277  0.4702
19291SOL    HW261662   1.166   0.518   6.023  1.5593  0.7651  2.1290
19292SOL     OW61663   4.029   0.751   2.286  0.4449 -0.2268 -0.0694
19292SOL    HW161664   4.044   0.839   2.252 -0.5738 -0.5554 -1.4262
19292SOL    HW261665   4.098   0.697   2.246 -0.2295 -0.4439 -0.9701
19293SOL     OW61666   3.153   8.344   5.315 -0.2172 -0.0076  0.2086
19293SOL    HW161667   3.189   8.257   5.301  0.2615  0.5688 -2.7710
19293SOL    HW261668   3.080   8.350   5.253 -0.9545  1.3429  1.1517
19294SOL     OW61669   8.878   5.393   0.081  0.0239 -0.3684  0.1118
19294SOL    HW161670   8.839   5.327   0.138  0.5061 -0.4714  0.3294
19294SOL    HW261671   8.844   5.373  -0.007  0.0346 -0.7964  0.2052
19295SOL     OW61672   4.364   1.731   3.737 -0.0672 -0.0743  0.0729
19295SOL    HW161673   4.414   1.789   3.679  0.5496  1.3876  1.9604
19295SOL    HW261674   4.274   1.738   3.705  0.1691  1.1339 -0.4082
19296SOL     OW61675   7.587   0.496   5.357 -0.7328  0.2309  0.1974
19296SOL    HW161676   7.519   0.432   5.339 -0.7433  0.0013  1.0063
19296SOL    HW261677   7.584   0.508   5.452  0.7851 -0.2920  0.3427
19297SOL     OW61678   5.929   8.045   2.858  0.5056 -0.1622  0.2922
19297SOL    HW161679   5.910   8.002   2.941 -1.4203  1.9089  1.0198
19297SOL    HW261680   5.844   8.079   2.829  1.4838  0.8658 -1.5361
19298SOL     OW61681   3.538   7.196   2.240  0.0794  0.5988  0.4492
19298SOL    HW161682   3.613   7.179   2.297  0.7181 -0.1535 -0.5690
19298SOL    HW261683   3.544   7.129   2.172 -0.5160  1.6025 -0.6274
19299SOL     OW61684  10.185   0.852   3.597  0.1182 -0.6664  0.1976
19299SOL    HW161685  10.213   0.906   3.670  0.5440 -0.2947 -0.2376
19299SOL    HW261686  10.171   0.913   3.525 -1.6159 -0.8472  0.3230
19300SOL     OW61687   1.779   3.672   3.660  0.1657  0.0709 -0.3053
19300SOL    HW161688   1.842   3.708   3.723 -0.3224  3.1336 -1.3812
19300SOL    HW261689   1.829   3.665   3.578 -0.0227 -0.8331 -0.3519
19301SOL     OW61690   1.299   2.663   6.923  0.0706 -0.0738 -0.6295
19301SOL    HW161691   1.309   2.679   6.829  0.0735 -1.5921 -0.9177
19301SOL    HW261692   1.281   2.569   6.929  1.3985 -0.2655  0.9778
19302SOL     OW61693  10.214   0.098  10.010 -0.0465 -0.5343  0.3213
19302SOL    HW161694  10.277   0.140  10.069 -0.5433  1.8970 -0.7656
19302SOL    HW261695  10.268   0.046   9.951  0.7617 -0.1650  0.7120
19303SOL     OW61696   7.993   8.601   6.854  0.7056  0.0663 -0.0670
19303SOL    HW161697   7.925   8.641   6.908  0.8724  1.1891 -0.6595
19303SOL    HW261698   8.050   8.556   6.916  0.2930  0.4313  0.5854
19304SOL     OW61699   7.763   4.476   1.564 -0.0389 -0.0862 -0.0978
19304SOL    HW161700   7.763   4.569   1.589  3.8235  0.3188 -0.8880
19304SOL    HW261701   7.717   4.473   1.480  0.0473  1.1999 -0.2102
19305SOL     OW61702   5.178   4.987   1.949  0.8025  0.1876  0.5271
19305SOL    HW161703   5.231   5.028   2.018  0.0063 -0.6072  1.6428
19305SOL    HW261704   5.088   5.010   1.970  0.1510 -3.1629  2.0462
19306SOL     OW61705   5.411   5.136   4.452  0.2649  0.1685  0.6388
19306SOL    HW161706   5.481   5.074   4.471 -1.1360 -1.2500  1.4050
19306SOL    HW261707   5.443   5.219   4.488  1.9629 -0.1769  0.0509
19307SOL     OW61708   2.427   5.226   0.821 -0.0429 -0.4534 -0.2075
19307SOL    HW161709   2.469   5.142   0.801 -0.5847 -0.7865  0.0472
19307SOL    HW261710   2.464   5.251   0.906  0.1210 -0.4290 -0.2847
19308SOL     OW61711   2.064  10.192   1.297  0.2150 -0.5906 -0.4178
19308SOL    HW161712   2.019  10.108   1.292 -1.1805  0.2086 -2.4636
19308SOL    HW261713   2.086  10.213   1.206  0.8086  1.1168  0.0841
19309SOL     OW61714   4.445   5.599   8.056  0.5001 -0.1291  0.0342
19309SOL    HW161715   4.365   5.546   8.047  0.3578  0.2526 -1.3046
19309SOL    HW261716   4.418   5.674   8.108 -1.0511  1.7722 -3.1807
19310SOL     OW61717   6.155   2.603   7.220 -0.2552 -0.5890 -0.1152
19310SOL    HW161718   6.106   2.526   7.249 -0.2817 -0.9218 -1.0277
19310SOL    HW261719   6.135   2.611   7.127 -1.1000  1.1393  0.1648
19311SOL     OW61720   3.669   3.489   0.460  0.4186  0.2779  0.1594
19311SOL    HW161721   3.756   3.529   0.462  0.8093 -0.2482 -2.7708
19311SOL    HW261722   3.685   3.396   0.472  0.3528  0.1087 -0.9748
19312SOL     OW61723   6.979   6.405   4.036  0.0959 -0.9414 -0.3830
19312SOL    HW161724   7.013   6.380   3.950  0.2956 -0.0931 -0.5599
19312SOL    HW261725   6.969   6.322   4.083  1.2262 -1.3200 -0.7697
19313SOL     OW61726   8.404   0.892   5.819  0.3442 -0.1237 -0.3940
19313SOL    HW161727   8.407   0.796   5.823  3.1975 -0.1350 -0.7856
19313SOL    HW261728   8.350   0.917   5.894 -0.8514 -2.0165 -0.5529
19314SOL     OW61729   4.727   4.778   8.626  0.1457 -0.0491  0.0153
19314SOL    HW161730   4.818   4.751   8.626 -0.0843 -0.8510 -0.2856
19314SOL    HW261731   4.727   4.862   8.672  1.0064 -0.1179  0.1563
19315SOL     OW61732   2.200   5.460   9.291 -0.1565 -0.2684 -0.2874
19315SOL    HW161733   2.190   5.366   9.307 -1.2698 -0.3028 -1.0900
19315SOL    HW261734   2.146   5.502   9.358 -1.7121 -0.3020 -1.4632
19316SOL     OW61735   9.663   7.315   6.603 -0.1218  0.5713  0.1408
19316SOL    HW161736   9.586   7.288   6.653  0.6827  1.1095  1.7414
19316SOL    HW261737   9.676   7.244   6.539 -2.7997  1.1948 -1.2605
19317SOL     OW61738   5.805   2.034   0.947  0.1412  0.3756 -0.3026
19317SOL    HW161739   5.784   2.014   0.856  1.6422 -0.1940 -0.5534
19317SOL    HW261740   5.900   2.037   0.949  0.1279  0.3090  1.2665
19318SOL     OW61741   6.628   5.220   5.160 -0.1297  0.3721 -0.2724
19318SOL    HW161742   6.693   5.184   5.100  0.1329  0.7164 -0.1967
19318SOL    HW261743   6.553   5.160   5.153 -0.2589  0.6217 -1.2333
19319SOL     OW61744   6.106   7.356   2.885 -0.0582  0.4143 -0.2100
19319SOL    HW161745   6.062   7.422   2.938  1.0186  1.3364 -0.4519
19319SOL    HW261746   6.153   7.405   2.818  0.3227 -0.6221 -0.7334
19320SOL     OW61747   7.473   7.055   4.907 -0.0852 -0.0468 -0.3387
19320SOL    HW161748   7.391   7.022   4.870 -0.5800  0.4346  0.3161
19320SOL    HW261749   7.524   7.084   4.831 -1.9146  2.8497 -0.5815
19321SOL     OW61750   5.793   8.800   8.611 -0.1230 -0.2086 -0.0114
19321SOL    HW161751   5.734   8.876   8.617  1.2730  0.8367  1.1070
19321SOL    HW261752   5.765   8.742   8.682 -0.8721 -0.5251 -0.5530
19322SOL     OW61753   2.860   5.639   6.559  0.0283  0.0187 -0.1082
19322SOL    HW161754   2.822   5.672   6.640  1.0396  0.5530  0.1751
19322SOL    HW261755   2.790   5.589   6.517 -0.4611 -0.3829  1.1595
19323SOL     OW61756   0.757   4.297   2.399 -0.6950 -0.5532 -0.8919
19323SOL    HW161757   0.791   4.355   2.468 -0.9885 -0.3529 -0.9112
19323SOL    HW261758   0.774   4.344   2.318 -1.1035 -0.4034 -0.8949
19324SOL     OW61759   8.799   7.428   2.495 -0.0043 -0.3787 -0.0175
19324SOL    HW161760   8.889   7.403   2.517 -0.3951 -2.6826 -0.8116
19324SOL    HW261761   8.762   7.461   2.577  0.6797 -2.1779  1.0626
19325SOL     OW61762   9.492   7.703   9.355  0.2133 -0.5746  0.4181
19325SOL    HW161763   9.456   7.655   9.280 -1.3587  0.9861  0.1002
19325SOL    HW261764   9.494   7.794   9.325 -0.9622  0.1660  2.4214
19326SOL     OW61765   3.751   5.269   7.519  0.2190  0.0732 -0.3233
19326SOL    HW161766   3.783   5.244   7.606  0.7127 -0.7701 -0.7324
19326SOL    HW261767   3.749   5.186   7.470  2.1533  0.8362 -1.8172
19327SOL     OW61768   9.543   9.078   9.607 -0.3180  0.4405  0.2418
19327SOL    HW161769   9.572   8.989   9.624  1.7026  1.0224  0.0264
19327SOL    HW261770   9.496   9.072   9.523  1.7375 -0.0824 -0.9265
19328SOL     OW61771   2.054   8.435   9.495  0.4207  0.6326  0.3033
19328SOL    HW161772   2.021   8.461   9.409 -1.1346  1.1323  1.0116
19328SOL    HW261773   2.035   8.341   9.499  0.4183  0.6245  0.1342
19329SOL     OW61774   9.047   1.450   4.104  0.4210 -0.0345  0.3097
19329SOL    HW161775   8.968   1.444   4.051  0.3011 -0.8640  0.5686
19329SOL    HW261776   9.022   1.506   4.178 -0.2422 -1.1024  0.9189
19330SOL     OW61777   8.971   2.610   0.361 -0.0276 -0.1725 -0.0609
19330SOL    HW161778   8.940   2.700   0.369 -0.8181 -0.2482 -1.7462
19330SOL    HW261779   8.954   2.571   0.447 -2.0383  0.5868 -0.0559
19331SOL     OW61780   7.574   7.183  10.167 -0.6361 -0.2841  0.2999
19331SOL    HW161781   7.541   7.194  10.078  0.1481 -0.0809  0.0233
19331SOL    HW261782   7.530   7.104  10.199 -0.6571 -0.5678 -0.4050
19332SOL     OW61783   6.476   8.927   2.198  0.2574  0.3212 -0.0297
19332SOL    HW161784   6.406   8.929   2.132  0.2183  0.8609  0.0242
19332SOL    HW261785   6.512   9.016   2.197 -1.3445  1.1126  2.3806
19333SOL     OW61786   8.777   5.465   3.672 -0.3100 -0.1935 -0.4352
19333SOL    HW161787   8.747   5.429   3.589 -1.6801 -2.4335  0.9316
19333SOL    HW261788   8.750   5.401   3.738 -1.0199  2.3602  1.9890
19334SOL     OW61789   1.762   0.317   1.768 -0.2863 -0.2561  0.4160
19334SOL    HW161790   1.753   0.321   1.863 -0.0936 -1.6682  0.5106
19334SOL    HW261791   1.805   0.234   1.751  0.3594  0.3111 -0.8737
19335SOL     OW61792   5.945   1.415   7.182  0.2078 -0.1142 -0.1041
19335SOL    HW161793   5.994   1.490   7.148  0.3171  0.0264  0.3568
19335SOL    HW261794   6.007   1.369   7.238 -0.2348  0.1807  0.6498
19336SOL     OW61795   3.975   8.575   1.782 -0.1796 -0.0505  0.5335
19336SOL    HW161796   4.034   8.508   1.816  1.5185 -0.8371 -3.3871
19336SOL    HW261797   4.028   8.655   1.780 -0.4046  0.0906  0.1809
19337SOL     OW61798   0.372   9.665   6.665  0.0231  0.0815  0.0838
19337SOL    HW161799   0.332   9.597   6.611  1.0336 -0.9785  0.6360
19337SOL    HW261800   0.340   9.747   6.627 -0.6672 -0.6677 -1.0282
19338SOL     OW61801   0.162   4.394   7.936  0.3496  0.4757  0.1423
19338SOL    HW161802   0.195   4.480   7.910  1.5075 -0.6012 -2.2689
19338SOL    HW261803   0.183   4.337   7.862 -2.5593 -1.3956  0.6178
19339SOL     OW61804   3.866   5.147   9.628  0.0471  0.2936  0.2949
19339SOL    HW161805   3.950   5.136   9.583 -0.7569 -2.2842 -0.7341
19339SOL    HW261806   3.802   5.151   9.558 -0.8187  1.3026  1.1065
19340SOL     OW61807   0.452   1.612   7.750  0.2221  0.2335 -0.0681
19340SOL    HW161808   0.483   1.550   7.816  0.7510  0.8381  0.2660
19340SOL    HW261809   0.356   1.604   7.753  0.3047 -1.3872 -0.8631
19341SOL     OW61810   8.287   3.732   9.289  0.0302  0.1196  0.1321
19341SOL    HW161811   8.202   3.755   9.252 -1.1451 -2.1987  1.2180
19341SOL    HW261812   8.272   3.651   9.338  2.7038  0.0406  1.0192
19342SOL     OW61813   5.517   1.860   3.942  0.0821 -0.1624 -0.0482
19342SOL    HW161814   5.532   1.830   4.032  0.9777  0.6368  0.0831
19342SOL    HW261815   5.520   1.781   3.889 -2.3433 -0.9327  0.7952
19343SOL     OW61816   9.947   1.204   4.281 -0.6164  0.2606 -0.2876
19343SOL    HW161817   9.884   1.132   4.281 -1.1955  0.7442  0.7900
19343SOL    HW261818  10.032   1.162   4.296 -1.0069 -0.1550  0.7976
19344SOL     OW61819   4.293   0.893   4.661  0.1934  0.0512  0.2819
19344SOL    HW161820   4.210   0.933   4.684 -0.0265  0.4509 -1.1219
19344SOL    HW261821   4.350   0.911   4.735 -0.7621  0.3639  0.9579
19345SOL     OW61822   3.382   7.272   4.453 -0.0132 -0.5204  0.3050
19345SOL    HW161823   3.293   7.307   4.455  0.3720  0.5266 -0.0125
19345SOL    HW261824   3.429   7.324   4.519  0.4915 -0.6707  0.0652
19346SOL     OW61825   4.485   2.760   9.408  0.4829 -0.0823 -0.2791
19346SOL    HW161826   4.468   2.666   9.413  0.6660 -0.0711  0.6389
19346SOL    HW261827   4.401   2.800   9.431  0.6651 -0.0308  0.3255
19347SOL     OW61828   8.558   8.103   6.161  0.2578 -0.5926  0.3017
19347SOL    HW161829   8.502   8.098   6.084  1.3373  0.9034 -0.6414
19347SOL    HW261830   8.583   8.195   6.167  1.4363 -0.9554  1.5260
19348SOL     OW61831   3.847   6.213   2.218 -0.0686  0.4453  0.2042
19348SOL    HW161832   3.816   6.131   2.177 -0.2880  1.3038 -1.4193
19348SOL    HW261833   3.831   6.200   2.311 -1.5131 -0.7900 -0.1695
19349SOL     OW61834   1.851   6.317   2.299  0.3187  0.5717 -0.4117
19349SOL    HW161835   1.878   6.314   2.391 -0.1404 -3.3019 -0.2305
19349SOL    HW261836   1.761   6.349   2.302  1.0250  2.6768  0.1554
19350SOL     OW61837  10.308   6.427   6.303 -0.2650  0.3933 -0.6139
19350SOL    HW161838  10.254   6.349   6.311  0.3350  0.1142  0.9044
19350SOL    HW261839  10.253   6.489   6.253 -2.5047  0.5517  1.8475
19351SOL     OW61840   1.672   8.558   1.168  0.5062  0.1283 -0.1392
19351SOL    HW161841   1.657   8.542   1.075  1.8246  0.5013 -0.4408
19351SOL    HW261842   1.645   8.478   1.212 -1.7531  0.5542 -0.6419
19352SOL     OW61843   3.844   2.243   8.572  0.0297  0.7775  0.0453
19352SOL    HW161844   3.826   2.281   8.487 -0.0281 -1.2077 -0.8907
19352SOL    HW261845   3.850   2.149   8.556  2.9421  0.5340  1.7064
19353SOL     OW61846   8.598   3.228   5.050 -0.1217 -0.1072 -0.6019
19353SOL    HW161847   8.605   3.316   5.088 -0.3187  0.2424 -1.3619
19353SOL    HW261848   8.676   3.220   4.995 -0.4710 -0.1256 -1.1012
19354SOL     OW61849   9.487   8.717   3.399  0.2673  0.2645 -0.3223
19354SOL    HW161850   9.489   8.644   3.461 -0.3639 -0.1459 -0.7809
19354SOL    HW261851   9.408   8.703   3.347  0.6894  0.7117 -1.1017
19355SOL     OW61852   1.126  10.027   7.156 -0.7552 -0.4527  0.1770
19355SOL    HW161853   1.159   9.999   7.241 -0.9788  2.1132  1.2156
19355SOL    HW261854   1.034   9.998   7.155  0.0129 -3.1132 -0.5498
19356SOL     OW61855   1.280   0.026   4.475  0.0071 -0.3014  0.2077
19356SOL    HW161856   1.300  -0.003   4.386  0.4669  0.4608  0.0526
19356SOL    HW261857   1.329   0.107   4.485 -0.2688 -0.2322  1.0614
19357SOL     OW61858   3.134   8.347   4.188  1.0264  0.2955 -0.3398
19357SOL    HW161859   3.135   8.428   4.137 -0.2976  0.4281 -0.1904
19357SOL    HW261860   3.201   8.360   4.255  0.5073  1.4650 -0.0263
19358SOL     OW61861   3.030   2.644   7.876 -0.5563  0.4298 -0.3047
19358SOL    HW161862   3.039   2.599   7.792 -3.1135  0.3103 -0.5907
19358SOL    HW261863   3.090   2.597   7.934  0.1892 -0.4170 -1.6963
19359SOL     OW61864   2.538   7.441  10.340 -0.5656 -0.8172 -0.4467
19359SOL    HW161865   2.471   7.509  10.332  0.7649  0.6864  0.5262
19359SOL    HW261866   2.593   7.471  10.412  0.8574 -2.2654 -0.8905
19360SOL     OW61867   1.239   7.453   2.228 -0.4488  0.0617  0.5030
19360SOL    HW161868   1.260   7.543   2.202  0.0032 -0.6775 -1.9100
19360SOL    HW261869   1.281   7.442   2.313  1.8654  1.2941 -0.3906
19361SOL     OW61870   7.918   5.485   7.747 -0.2186 -0.3503 -1.1209
19361SOL    HW161871   7.858   5.525   7.810  0.1326  0.5576 -1.3558
19361SOL    HW261872   7.974   5.429   7.799 -0.9853 -0.8791 -0.8420
19362SOL     OW61873   3.299   0.910   3.822 -0.1117  0.5094 -0.9383
19362SOL    HW161874   3.322   0.866   3.740 -1.1117 -0.1245 -0.8980
19362SOL    HW261875   3.383   0.924   3.866  0.4047  0.5166 -1.8944
19363SOL     OW61876   4.143   8.287   2.610  0.0258  0.4947 -0.1481
19363SOL    HW161877   4.184   8.297   2.696 -1.1031  1.8714  0.2641
19363SOL    HW261878   4.207   8.238   2.559  1.5579  1.3254  0.8940
19364SOL     OW61879   8.316   4.480   3.390 -0.4517 -0.2722 -0.4973
19364SOL    HW161880   8.276   4.516   3.311  0.4510 -1.1694 -1.3796
19364SOL    HW261881   8.402   4.449   3.362 -0.4341 -1.3422  0.6542
19365SOL     OW61882   3.615   5.111   5.733  0.1017  0.5130 -0.4077
19365SOL    HW161883   3.627   5.098   5.639  1.1069  1.7407 -0.4772
19365SOL    HW261884   3.627   5.024   5.771  0.1200  0.0854 -1.3688
19366SOL     OW61885   3.980   7.234   5.875  0.0007 -0.4328  0.0293
19366SOL    HW161886   4.026   7.164   5.922 -1.0794 -0.4810  1.0523
19366SOL    HW261887   3.963   7.300   5.941 -0.2461  0.1729 -0.6279
19367SOL     OW61888   2.466   7.967   8.563 -0.1395  0.0697  0.0907
19367SOL    HW161889   2.409   8.005   8.496  4.0827  1.4467 -3.1780
19367SOL    HW261890   2.484   7.878   8.531  0.1628 -0.0409  0.5616
19368SOL     OW61891   2.546   7.838   1.591 -0.4917 -0.0454 -0.0850
19368SOL    HW161892   2.605   7.798   1.655  0.9172  0.1967 -1.1855
19368SOL    HW261893   2.499   7.764   1.552  1.5591 -0.6656 -1.5854
19369SOL     OW61894   0.931   3.755   1.660 -0.3554 -0.2790  0.5749
19369SOL    HW161895   0.855   3.720   1.707 -0.1333 -1.1712  0.2882
19369SOL    HW261896   0.998   3.688   1.671 -0.2641 -0.4667 -0.9243
19370SOL     OW61897   6.843   8.980   3.492 -0.0797 -0.3327 -0.0249
19370SOL    HW161898   6.778   8.972   3.561 -1.5381 -0.2990 -1.3202
19370SOL    HW261899   6.816   8.915   3.426  0.7731  0.1799 -0.9140
19371SOL     OW61900   9.776   4.344   2.584  0.1870  0.6832 -0.6223
19371SOL    HW161901   9.762   4.340   2.678 -1.7997 -2.2527 -0.9480
19371SOL    HW261902   9.863   4.305   2.571  0.3003  0.7461 -0.0884
19372SOL     OW61903   5.290   8.373   3.110  0.1023 -0.6758  0.0247
19372SOL    HW161904   5.359   8.314   3.080 -1.9805 -2.7331 -1.1615
19372SOL    HW261905   5.211   8.340   3.066 -1.6367  1.5161  1.3126
19373SOL     OW61906   6.626   4.075   7.938 -0.0473 -0.3757 -0.1369
19373SOL    HW161907   6.560   4.036   7.881  0.0451  0.4703 -0.8471
19373SOL    HW261908   6.704   4.021   7.926 -0.6896 -1.5997  0.9817
19374SOL     OW61909   5.477   6.608   5.878 -0.1381 -0.4795 -0.1812
19374SOL    HW161910   5.443   6.530   5.834 -0.0377 -1.7141  1.8156
19374SOL    HW261911   5.502   6.667   5.806 -0.6590 -2.0728 -1.7387
19375SOL     OW61912   7.829   6.242   1.041 -0.0902  0.2799 -0.1220
19375SOL    HW161913   7.747   6.288   1.023 -0.1675 -0.8933 -3.7114
19375SOL    HW261914   7.896   6.311   1.041 -0.2383  0.7847 -5.1049
19376SOL     OW61915   1.790   3.449   7.661 -0.0975  0.0006 -0.0956
19376SOL    HW161916   1.721   3.436   7.595 -0.3622 -2.0549  0.5140
19376SOL    HW261917   1.742   3.472   7.740 -0.1900 -1.9970  0.4752
19377SOL     OW61918   1.602   6.363   9.216  0.0576 -0.0741  0.0886
19377SOL    HW161919   1.509   6.384   9.228  0.1707  0.1337  0.5907
19377SOL    HW261920   1.646   6.404   9.290  0.5400 -0.2700 -0.0874
19378SOL     OW61921   8.705   5.517   4.547 -0.4977 -0.1442 -0.5249
19378SOL    HW161922   8.743   5.517   4.459 -0.6852  0.5665 -0.6117
19378SOL    HW261923   8.707   5.425   4.574  0.1170 -0.2879 -1.0272
19379SOL     OW61924   6.593   2.072   2.497  0.0416 -0.1853  0.5359
19379SOL    HW161925   6.559   2.059   2.408  0.1122  1.3070  0.2595
19379SOL    HW261926   6.625   2.162   2.497  0.7126 -0.4040  1.8694
19380SOL     OW61927   0.725   7.713   4.555  0.3708 -0.2049  0.4441
19380SOL    HW161928   0.805   7.673   4.522 -0.6762 -2.7184  0.7316
19380SOL    HW261929   0.739   7.722   4.649  0.4782 -0.2400  0.4311
19381SOL     OW61930   2.747   3.176   4.255 -0.0048  0.0263 -0.6898
19381SOL    HW161931   2.797   3.246   4.297  1.8121 -1.8313  0.4451
19381SOL    HW261932   2.657   3.191   4.283  0.4299  1.5266  0.0204
19382SOL     OW61933   7.631   6.901   1.741 -0.0809  0.4422 -0.0254
19382SOL    HW161934   7.622   6.985   1.787  1.4453  0.1669  0.8593
19382SOL    HW261935   7.722   6.874   1.758 -0.8718 -1.9887  0.7808
19383SOL     OW61936   9.295   5.750   6.669 -0.5702  0.3494  0.2769
19383SOL    HW161937   9.317   5.775   6.580 -2.0846  0.5944 -0.0503
19383SOL    HW261938   9.202   5.770   6.678 -0.6955 -0.6546  1.5676
19384SOL     OW61939   8.218   5.239   2.824  0.0551 -0.3477  0.1917
19384SOL    HW161940   8.180   5.193   2.749 -0.5065  1.5607 -0.7512
19384SOL    HW261941   8.307   5.205   2.830  1.7052  2.4349 -4.1740
19385SOL     OW61942   4.228   8.276   3.527  0.0732 -0.7971  0.3185
19385SOL    HW161943   4.136   8.263   3.506  0.1322  0.3436 -0.7659
19385SOL    HW261944   4.230   8.279   3.623 -1.7152  3.0984  0.4353
19386SOL     OW61945   9.060   5.730   1.261 -0.0135  0.2294 -0.2818
19386SOL    HW161946   9.037   5.823   1.257 -1.2409 -0.0890 -1.4036
19386SOL    HW261947   8.978   5.686   1.283  0.3969 -0.6407 -0.4397
19387SOL     OW61948   7.134   2.800   6.115  0.1541 -0.2295 -0.6659
19387SOL    HW161949   7.132   2.728   6.051 -0.1790 -0.6482 -0.1949
19387SOL    HW261950   7.186   2.766   6.188 -2.3920 -1.1503  0.8611
19388SOL     OW61951   6.409   0.456   0.135  0.2281 -0.1268  0.8021
19388SOL    HW161952   6.461   0.378   0.116  1.4762  0.6304  1.0081
19388SOL    HW261953   6.466   0.529   0.112 -0.8711  0.7367  0.7366
19389SOL     OW61954   0.995   3.896   6.550  0.9280  0.6213 -0.1217
19389SOL    HW161955   0.929   3.829   6.529  1.1332  0.0804  0.9140
19389SOL    HW261956   1.074   3.846   6.568  2.3062  1.3106 -3.4277
19390SOL     OW61957   6.090   7.500   8.859 -0.1465 -0.1595 -0.4735
19390SOL    HW161958   6.135   7.553   8.925 -0.9471 -1.7965  1.5251
19390SOL    HW261959   5.997   7.522   8.872 -0.2299  0.7475 -2.2887
19391SOL     OW61960   8.727   2.588   3.287 -0.0673  0.4453 -0.2681
19391SOL    HW161961   8.756   2.642   3.361  0.8065  1.8762 -1.5832
19391SOL    HW261962   8.673   2.647   3.235  1.3374  0.2709 -2.0305
19392SOL     OW61963   3.893   2.819   7.609  0.8374 -0.1196 -0.5311
19392SOL    HW161964   3.884   2.834   7.703 -1.2223  0.3242 -0.7574
19392SOL    HW261965   3.920   2.904   7.574 -0.1988  0.2077 -0.5475
19393SOL     OW61966   2.155   6.258   6.323  0.4807  0.2251 -0.7061
19393SOL    HW161967   2.069   6.229   6.295  0.3734 -0.5499  0.3460
19393SOL    HW261968   2.184   6.191   6.385  1.4202  0.9708 -0.3002
19394SOL     OW61969   8.046   5.898   4.689  0.4611  0.0617 -0.2948
19394SOL    HW161970   8.082   5.977   4.650  0.2823 -0.1204 -0.8302
19394SOL    HW261971   8.076   5.827   4.633  0.2860 -0.2128 -0.0474
19395SOL     OW61972   0.073   6.874   3.420 -0.0432  0.1197  0.0419
19395SOL    HW161973   0.126   6.923   3.358 -0.7233  0.0439 -0.6185
19395SOL    HW261974   0.111   6.786   3.421 -1.0242 -0.3711 -1.5724
19396SOL     OW61975   2.670   4.387   8.245 -0.0013  0.1327 -0.3957
19396SOL    HW161976   2.681   4.297   8.277 -1.6388  0.3827  1.0560
19396SOL    HW261977   2.756   4.428   8.257  0.0191 -0.4290  1.7915
19397SOL     OW61978   9.510   1.247   7.560 -0.2998 -0.1542  0.3525
19397SOL    HW161979   9.567   1.324   7.560  0.1315 -0.4682  0.9126
19397SOL    HW261980   9.546   1.189   7.493  0.7179 -0.8347  1.4568
19398SOL     OW61981   1.306   1.147   0.135  0.4725  0.2047 -0.1674
19398SOL    HW161982   1.232   1.197   0.102  0.5238  0.5447  0.2166
19398SOL    HW261983   1.335   1.196   0.212  1.2991  0.2626 -0.4962
19399SOL     OW61984   1.467   3.445   1.673 -0.0226  0.2230  0.1353
19399SOL    HW161985   1.450   3.372   1.732  1.2052 -0.0820  0.1290
19399SOL    HW261986   1.406   3.513   1.702 -0.5027 -0.4557  0.7621
19400SOL     OW61987   8.522   3.765   9.540 -0.3246  0.6373 -0.4646
19400SOL    HW161988   8.490   3.832   9.480  0.4214 -0.2402 -1.8815
19400SOL    HW261989   8.576   3.814   9.603  0.1293  1.3799 -1.4070
19401SOL     OW61990   2.106   2.446   7.956 -0.1883 -0.2782 -0.1034
19401SOL    HW161991   2.047   2.489   8.018  1.6209  1.2506  0.6464
19401SOL    HW261992   2.079   2.479   7.870  0.0311  1.0157  0.3042
19402SOL     OW61993   6.573   4.792   4.409  0.2261 -0.0612  0.0984
19402SOL    HW161994   6.560   4.791   4.503 -0.0500  1.4205  0.0976
19402SOL    HW261995   6.635   4.721   4.392  0.5034 -0.1507  1.4180
19403SOL     OW61996   0.028   2.590   1.495  0.3579 -0.5124 -0.5488
19403SOL    HW161997  -0.023   2.517   1.531  1.5306 -1.4717 -0.7669
19403SOL    HW261998   0.119   2.568   1.516  0.7747  0.6247 -1.1083
19404SOL     OW61999   4.727   4.153   0.403  0.8719  0.2387 -0.2417
19404SOL    HW162000   4.647   4.197   0.431 -0.0110 -1.1863 -0.4507
19404SOL    HW262001   4.766   4.213   0.339 -0.2149  0.7712 -0.4242
19405SOL     OW62002   3.075   0.326   6.202  0.0307 -0.4684  0.4488
19405SOL    HW162003   3.147   0.316   6.263 -0.1327  0.1764  0.7553
19405SOL    HW262004   3.055   0.420   6.203 -0.5119 -0.5712  0.0281
19406SOL     OW62005   8.961   8.504  10.246  0.4068  0.0304 -0.6844
19406SOL    HW162006   8.923   8.456  10.173  1.0087 -0.1505 -0.8826
19406SOL    HW262007   8.927   8.593  10.237  1.7390  0.4381 -2.1340
19407SOL     OW62008   7.086   6.537   6.990 -0.0474 -0.3191  0.1835
19407SOL    HW162009   7.075   6.606   7.055 -0.6755 -0.2272 -0.0143
19407SOL    HW262010   7.173   6.501   7.007 -0.7419 -1.2594  2.0212
19408SOL     OW62011   1.064   8.761   2.726  0.4176 -0.6435 -0.1967
19408SOL    HW162012   1.036   8.744   2.816  1.3352 -1.3990 -0.0368
19408SOL    HW262013   1.144   8.812   2.735  0.5572 -0.7904 -0.5894
19409SOL     OW62014  10.069   8.120   5.721  0.2302  0.0814  0.0923
19409SOL    HW162015  10.152   8.146   5.683  0.6910 -0.9565  0.3428
19409SOL    HW262016  10.004   8.178   5.681  0.7895 -0.4836 -1.7153
19410SOL     OW62017   4.638   0.222   7.736  0.3861  0.1648 -0.1030
19410SOL    HW162018   4.611   0.265   7.654  1.4728  0.0985 -0.5156
19410SOL    HW262019   4.619   0.286   7.804  1.6397  1.1957 -0.6749
19411SOL     OW62020   9.948   3.631   4.924  0.2255 -0.4546 -0.2936
19411SOL    HW162021  10.018   3.585   4.878 -1.9556 -1.3766 -2.9806
19411SOL    HW262022   9.909   3.565   4.981 -0.0295 -0.6607 -0.7036
19412SOL     OW62023   7.786   3.966   7.222  0.5841  0.0463 -0.0787
19412SOL    HW162024   7.736   3.999   7.147 -0.5864  1.8047  1.3845
19412SOL    HW262025   7.723   3.965   7.294  2.2510  0.7033  1.4480
19413SOL     OW62026   6.063   8.673   8.597 -0.7118 -0.5110 -0.0740
19413SOL    HW162027   5.997   8.734   8.564 -0.3217 -0.8138 -1.4721
19413SOL    HW262028   6.013   8.602   8.636 -1.1813  0.1665  0.5854
19414SOL     OW62029   1.220   2.792   6.415  0.2098  0.0353  0.4545
19414SOL    HW162030   1.129   2.780   6.444  0.4530 -1.4910  0.6505
19414SOL    HW262031   1.216   2.787   6.320  0.1574 -0.5860  0.4875
19415SOL     OW62032   8.754   9.249   0.458 -0.1487 -0.4396  0.0922
19415SOL    HW162033   8.677   9.271   0.511  0.0169 -1.3134  0.7122
19415SOL    HW262034   8.787   9.168   0.496  1.6338  0.3950  0.4247
19416SOL     OW62035   8.495   5.859   6.614 -0.1678 -0.0012 -0.0943
19416SOL    HW162036   8.518   5.893   6.527 -0.5377 -0.3831 -0.3489
19416SOL    HW262037   8.400   5.851   6.611 -0.1905  0.0979  0.3940
19417SOL     OW62038   5.687   7.729   2.100 -0.7319  0.7702 -0.1015
19417SOL    HW162039   5.656   7.804   2.049 -0.7074  1.0100  0.2284
19417SOL    HW262040   5.644   7.653   2.060 -1.0543  1.0029 -0.2024
19418SOL     OW62041   1.808   3.447   9.414  0.0855 -0.0916 -0.3695
19418SOL    HW162042   1.896   3.428   9.446  0.4635 -1.5886 -2.1045
19418SOL    HW262043   1.753   3.378   9.450  0.3199 -1.1741 -1.9578
19419SOL     OW62044  10.265   4.705   8.857  0.7173 -0.1742 -0.0218
19419SOL    HW162045  10.209   4.715   8.935  0.6833  0.1432 -0.0884
19419SOL    HW262046  10.353   4.693   8.893  0.6026 -0.7569  0.0882
19420SOL     OW62047   6.390   6.569   3.842 -0.5768 -0.1216 -0.3419
19420SOL    HW162048   6.444   6.631   3.793  1.0595  0.1903  1.6612
19420SOL    HW262049   6.316   6.550   3.785  0.4893  1.2390 -2.3011
19421SOL     OW62050   9.566   8.111   8.299  0.3744 -0.1191  0.3711
19421SOL    HW162051   9.504   8.184   8.293  0.5367 -0.0691 -1.1816
19421SOL    HW262052   9.642   8.140   8.249  0.3104 -1.4605 -0.5523
19422SOL     OW62053   8.029   2.264   7.115 -0.5535 -0.6177  0.6169
19422SOL    HW162054   8.073   2.300   7.038 -0.4825 -0.4617  0.7283
19422SOL    HW262055   8.080   2.186   7.138  0.5247  0.3318  1.5735
19423SOL     OW62056   5.802   9.579   9.004  0.0546  0.1687 -0.1460
19423SOL    HW162057   5.710   9.574   9.030 -0.0010  0.0920 -0.3582
19423SOL    HW262058   5.850   9.556   9.083 -0.1067  0.2428 -0.0248
19424SOL     OW62059   4.897   4.719   8.322 -0.4284 -0.4165 -0.0113
19424SOL    HW162060   4.944   4.636   8.325 -0.3627 -0.4806 -1.7923
19424SOL    HW262061   4.927   4.767   8.400  1.4828 -1.0223 -0.3420
19425SOL     OW62062   6.768   6.295   1.113 -0.0775  0.6814 -0.1437
19425SOL    HW162063   6.826   6.330   1.046 -0.4047  0.0573 -0.7637
19425SOL    HW262064   6.777   6.200   1.107  2.4633  0.5440  2.9844
19426SOL     OW62065   8.900   5.764   7.354 -0.5004 -0.2934  0.2920
19426SOL    HW162066   8.954   5.685   7.362 -0.8604 -0.4996  0.7153
19426SOL    HW262067   8.923   5.799   7.268  0.1095 -0.5233  0.3537
19427SOL     OW62068   0.268   0.811   8.787  0.2382 -0.1022  0.3441
19427SOL    HW162069   0.250   0.720   8.765 -0.5493 -0.0088  0.5577
19427SOL    HW262070   0.340   0.807   8.850  0.0492 -0.5883  0.5314
19428SOL     OW62071   6.573   5.906   8.398 -0.1525 -0.0610 -0.3054
19428SOL    HW162072   6.623   5.890   8.478  0.3361  0.1758 -0.5579
19428SOL    HW262073   6.559   5.819   8.360  0.1258 -0.1243 -0.2646
19429SOL     OW62074   7.319   7.097   5.223 -0.2651 -0.3355 -0.3554
19429SOL    HW162075   7.241   7.048   5.250 -1.3007  0.1654 -2.2548
19429SOL    HW262076   7.366   7.038   5.165 -0.2586  0.0727 -0.7663
19430SOL     OW62077   4.856   8.924   1.556  0.0093  0.0647 -0.5783
19430SOL    HW162078   4.762   8.943   1.550  0.2229  1.6695  0.3767
19430SOL    HW262079   4.887   8.982   1.626  1.4472 -1.5096  0.1690
19431SOL     OW62080   6.866   7.137   0.421 -0.6309  0.0112  0.1420
19431SOL    HW162081   6.959   7.114   0.423 -0.7666 -0.5107  0.7043
19431SOL    HW262082   6.858   7.209   0.484 -0.9952 -1.5203  1.9561
19432SOL     OW62083   3.005   0.348   6.806  1.0335  0.0643 -0.3088
19432SOL    HW162084   2.977   0.275   6.861 -0.8020  0.4046 -0.7156
19432SOL    HW262085   3.021   0.420   6.867  2.5886 -0.5694  0.0683
19433SOL     OW62086   7.540   6.936   7.600  0.3811 -0.7478  0.3197
19433SOL    HW162087   7.589   6.948   7.518  1.2487 -1.9885  0.6118
19433SOL    HW262088   7.601   6.965   7.668 -0.4324  0.5210  0.5338
19434SOL     OW62089   8.785   9.730   0.815  0.3878  0.3584  0.1464
19434SOL    HW162090   8.734   9.806   0.847 -0.6881  0.5015 -1.7627
19434SOL    HW262091   8.859   9.769   0.769  0.7085  0.2048  0.5316
19435SOL     OW62092   6.907   7.936   8.620 -0.0462 -0.2635 -0.5738
19435SOL    HW162093   6.933   7.855   8.575 -0.6138 -1.1256  0.6009
19435SOL    HW262094   6.886   7.908   8.709  0.0945  1.2483 -0.0396
19436SOL     OW62095   0.081   1.414   1.882 -0.0638 -0.0608  0.0299
19436SOL    HW162096   0.080   1.424   1.787  1.0469  1.2860  0.1306
19436SOL    HW262097  -0.011   1.400   1.905 -0.1514 -2.0567 -1.3671
19437SOL     OW62098   0.212   6.934   6.778  0.3323 -0.0795 -0.0311
19437SOL    HW162099   0.263   6.945   6.859  0.1974  0.5837 -0.0350
19437SOL    HW262100   0.156   7.011   6.774 -1.6643 -1.4105  0.6775
19438SOL     OW62101   7.483   2.738   2.254  0.3720  0.4177 -0.1497
19438SOL    HW162102   7.564   2.757   2.302  0.2034  2.3725 -0.5573
19438SOL    HW262103   7.514   2.709   2.168  0.6384 -0.1404  0.1261
19439SOL     OW62104   4.825   2.987   3.080  0.0223 -0.3636 -0.1380
19439SOL    HW162105   4.779   2.913   3.043 -0.0442  0.4373 -1.7194
19439SOL    HW262106   4.863   3.033   3.005  0.9969  0.5895  0.8846
19440SOL     OW62107   2.529   4.437   2.215 -1.1068  0.5012  0.4592
19440SOL    HW162108   2.583   4.513   2.194  1.2245 -0.7688  1.4125
19440SOL    HW262109   2.456   4.472   2.266 -0.8426  2.2253 -0.2807
19441SOL     OW62110   2.190   6.012   3.694  0.4380  0.5367  0.2006
19441SOL    HW162111   2.126   6.079   3.671 -1.8522 -1.3179  0.7814
19441SOL    HW262112   2.274   6.058   3.696 -0.6823  2.8719 -1.6383
19442SOL     OW62113   8.723   0.521   6.897 -0.2405  0.1327 -0.5431
19442SOL    HW162114   8.713   0.614   6.920  0.3030 -0.0592  0.5597
19442SOL    HW262115   8.635   0.491   6.876 -0.5838  0.6463  0.1230
19443SOL     OW62116   7.704   3.665   6.805 -0.3933  0.2507 -0.0799
19443SOL    HW162117   7.689   3.659   6.899  0.2309 -0.2134 -0.0066
19443SOL    HW262118   7.772   3.733   6.795 -1.9422  1.8482 -0.3641
19444SOL     OW62119   9.211   5.854   8.311  1.2290  0.3414  0.4236
19444SOL    HW162120   9.252   5.791   8.370  0.4657  1.3385  2.0864
19444SOL    HW262121   9.278   5.920   8.295  1.2010  0.4703  0.8218
19445SOL     OW62122   7.179   9.845   7.852  0.5843 -0.3048 -0.2913
19445SOL    HW162123   7.122   9.788   7.801 -1.3227  1.6902 -0.5267
19445SOL    HW262124   7.155   9.828   7.943  1.2531 -1.0665 -0.2403
19446SOL     OW62125   7.316   3.144   9.026 -0.2208 -0.5737  0.5905
19446SOL    HW162126   7.346   3.138   9.116 -1.0047 -0.0555  0.8963
19446SOL    HW262127   7.267   3.063   9.011  0.9865 -1.2575  0.2018
19447SOL     OW62128   0.559   8.437  10.009 -0.3575  0.2869  0.4312
19447SOL    HW162129   0.566   8.529   9.987 -2.7741  0.3215 -0.4941
19447SOL    HW262130   0.497   8.401   9.945  1.9756 -2.4587 -0.5402
19448SOL     OW62131   4.719   8.288   0.093 -0.0770 -0.1903 -0.1020
19448SOL    HW162132   4.653   8.353   0.068  0.1246  0.5698  1.1970
19448SOL    HW262133   4.802   8.324   0.061  0.2561  1.0471  1.9098
19449SOL     OW62134   5.253   0.409   6.253  0.1329  0.2671  0.6051
19449SOL    HW162135   5.303   0.332   6.279 -0.9947 -1.4301 -1.9165
19449SOL    HW262136   5.175   0.407   6.307 -0.9238 -1.6975 -0.8586
19450SOL     OW62137   9.892   2.754   3.956 -0.3813 -0.7773 -0.0144
19450SOL    HW162138   9.860   2.844   3.954  1.5190 -0.0337 -1.7807
19450SOL    HW262139   9.841   2.709   3.888  0.1947 -0.3874 -0.7278
19451SOL     OW62140   1.786   3.237   4.410  0.2755  0.1007 -0.2623
19451SOL    HW162141   1.702   3.202   4.379  0.6081 -0.1382 -0.9224
19451SOL    HW262142   1.850   3.202   4.349  0.8748  0.1935  0.3048
19452SOL     OW62143   7.156   0.535   3.399  0.4344  0.3203  0.0309
19452SOL    HW162144   7.216   0.492   3.460  0.4317 -2.6336 -1.8261
19452SOL    HW262145   7.097   0.586   3.454  0.7204 -1.7987  2.4914
19453SOL     OW62146  10.267   2.603   4.932  0.2675 -0.7611 -0.3147
19453SOL    HW162147  10.182   2.562   4.915  0.4777 -1.4890  0.3543
19453SOL    HW262148  10.260   2.639   5.020  0.7583 -1.1103 -0.1270
19454SOL     OW62149   2.592   7.218   5.629  0.4316  0.1926 -0.1943
19454SOL    HW162150   2.617   7.310   5.631 -0.8987  0.5654  2.2570
19454SOL    HW262151   2.661   7.173   5.678 -0.2362  0.2770  0.8422
19455SOL     OW62152   0.466  10.014   6.880  0.1132 -0.4676 -0.0203
19455SOL    HW162153   0.372  10.022   6.864 -0.0088  1.7479  1.4166
19455SOL    HW262154   0.505  10.015   6.792 -1.1145  0.2656 -0.5867
19456SOL     OW62155   5.563   1.737   0.562  0.8020  0.5026 -0.5219
19456SOL    HW162156   5.533   1.714   0.474 -0.3889  2.3300 -0.6400
19456SOL    HW262157   5.658   1.746   0.553  0.8952 -0.8481 -1.2273
19457SOL     OW62158   0.187   4.142   6.420  0.6530  0.0766 -0.3200
19457SOL    HW162159   0.245   4.185   6.483 -0.4642 -0.0205  0.8072
19457SOL    HW262160   0.159   4.211   6.361  1.5533  0.2105 -0.6046
19458SOL     OW62161   0.371   1.232   3.645 -0.2261 -0.8347 -0.3932
19458SOL    HW162162   0.390   1.159   3.704 -0.6459 -0.9167 -0.3547
19458SOL    HW262163   0.410   1.206   3.561  1.1885 -0.3022  0.0809
19459SOL     OW62164   1.239   8.071   6.060 -0.4833 -1.1208  0.1152
19459SOL    HW162165   1.179   8.146   6.049 -1.2787 -1.9054 -1.2352
19459SOL    HW262166   1.198   8.018   6.128 -0.3316 -0.7210  0.5217
19460SOL     OW62167   8.163   7.846   6.402  0.0057  0.3402 -0.4467
19460SOL    HW162168   8.205   7.822   6.485 -0.0845 -0.5042 -0.6318
19460SOL    HW262169   8.207   7.926   6.375 -0.5904  1.1526  0.8717
19461SOL     OW62170   0.542   9.661   9.326 -0.1221 -0.1325  0.2462
19461SOL    HW162171   0.450   9.683   9.312 -0.5784 -1.7832  0.3717
19461SOL    HW262172   0.588   9.700   9.253 -1.1336 -0.4727 -0.5995
19462SOL     OW62173   9.449   6.522   6.017  0.0023 -0.1667  0.0526
19462SOL    HW162174   9.366   6.496   6.056  0.0336 -0.3185  0.0191
19462SOL    HW262175   9.425   6.558   5.932 -0.2702  1.9525  0.9607
19463SOL     OW62176   2.752   3.229  10.055 -0.6165  0.6864 -0.0924
19463SOL    HW162177   2.739   3.309  10.107  0.3382  0.5368  0.3908
19463SOL    HW262178   2.790   3.260   9.973 -1.0122  0.8057 -0.2326
19464SOL     OW62179   0.696   2.778   0.415 -0.2733  0.1061  0.1173
19464SOL    HW162180   0.737   2.841   0.474 -0.7822  0.9953 -0.4598
19464SOL    HW262181   0.613   2.756   0.457  0.0456 -0.4345  0.4751
19465SOL     OW62182   2.872   8.602   1.573  0.3896 -0.2873 -0.2736
19465SOL    HW162183   2.807   8.565   1.513 -0.3590 -2.1207  1.5600
19465SOL    HW262184   2.927   8.527   1.597  1.8117  0.7914 -0.0606
19466SOL     OW62185   6.018   7.721   3.942  0.6137  0.4567 -0.7004
19466SOL    HW162186   6.054   7.642   3.901 -3.4648  0.0362 -4.1261
19466SOL    HW262187   6.023   7.702   4.036  7.6561  0.1201 -0.5608
19467SOL     OW62188   1.365   4.526   0.305  0.2011  0.3079  0.0936
19467SOL    HW162189   1.304   4.519   0.379  2.6208 -1.5148  2.0673
19467SOL    HW262190   1.333   4.461   0.242 -0.5802  0.2441  0.5400
19468SOL     OW62191  10.018   0.848   7.759  0.3207 -0.2095 -0.3285
19468SOL    HW162192   9.980   0.802   7.834  1.4425 -2.0936 -0.8458
19468SOL    HW262193  10.110   0.823   7.759  1.3748  3.1768  0.1061
19469SOL     OW62194   1.085   7.123   5.043  0.0700  0.0829  0.0516
19469SOL    HW162195   1.175   7.145   5.018  0.3668 -0.9681  0.1670
19469SOL    HW262196   1.035   7.132   4.961  0.3098  0.4650 -0.0569
19470SOL     OW62197   7.054   1.874   6.809 -0.2551  0.0290 -0.0358
19470SOL    HW162198   7.115   1.820   6.859 -0.9111 -0.9355 -0.2468
19470SOL    HW262199   6.970   1.863   6.854  0.0061  2.7939  1.3814
19471SOL     OW62200   4.030   6.634   9.192 -0.1526  0.3220  0.1254
19471SOL    HW162201   4.124   6.621   9.174  0.0878 -2.0897  2.3793
19471SOL    HW262202   4.016   6.587   9.274 -3.6410 -0.5316 -0.8241
19472SOL     OW62203   3.362   9.182   8.305  0.0068 -0.1914  0.2390
19472SOL    HW162204   3.287   9.210   8.357 -0.5512  0.5755 -0.9261
19472SOL    HW262205   3.374   9.090   8.327  0.1284  0.2348  2.0936
19473SOL     OW62206   6.004   7.114   9.330  0.1808 -0.2479 -0.0632
19473SOL    HW162207   5.930   7.161   9.292 -0.7507 -0.5984  1.2685
19473SOL    HW262208   6.020   7.043   9.267 -2.3347 -1.7502  0.8190
19474SOL     OW62209   6.765   4.044   9.167 -0.0407  0.5484  0.0283
19474SOL    HW162210   6.821   4.011   9.237  1.8459  0.9393 -1.2472
19474SOL    HW262211   6.724   3.965   9.130 -0.2662  0.2471  0.9058
19475SOL     OW62212   0.400   0.073   8.723 -0.3628  0.4156 -0.3864
19475SOL    HW162213   0.431   0.093   8.635  0.8551 -0.6826 -0.2363
19475SOL    HW262214   0.390   0.158   8.766  2.0587  0.8674 -0.5966
19476SOL     OW62215   8.621   5.457   5.133  0.4800  0.1140 -0.4325
19476SOL    HW162216   8.663   5.417   5.209 -2.0706 -1.0247  0.4726
19476SOL    HW262217   8.672   5.536   5.117  2.0001 -0.3824  1.5158
19477SOL     OW62218   3.629   0.014   6.101 -0.0433 -0.6902  0.5505
19477SOL    HW162219   3.560   0.055   6.154 -0.2208  0.2621 -0.3786
19477SOL    HW262220   3.703   0.006   6.160 -0.1904  0.4778  0.9141
19478SOL     OW62221   7.791   0.313   5.330 -0.5931 -0.4683  0.7187
19478SOL    HW162222   7.721   0.379   5.323 -0.3233 -0.1815  0.6943
19478SOL    HW262223   7.854   0.339   5.263 -0.0209 -0.1902  1.3543
19479SOL     OW62224   7.246   4.077   6.119  0.0220  0.0371  0.2630
19479SOL    HW162225   7.205   3.994   6.141 -0.0051 -0.7251 -2.3515
19479SOL    HW262226   7.311   4.055   6.051  0.6669  2.0103  0.1577
19480SOL     OW62227   9.409   0.826   8.267 -0.2814 -0.0363 -0.2461
19480SOL    HW162228   9.375   0.791   8.185 -1.3334 -2.2673  1.0503
19480SOL    HW262229   9.338   0.878   8.303  0.5843  1.9330 -1.2167
19481SOL     OW62230   4.292   0.735  10.214  0.3670  0.3276 -0.5950
19481SOL    HW162231   4.233   0.678  10.163 -0.5620  0.2625  0.5165
19481SOL    HW262232   4.300   0.692  10.299  1.9578  0.4021 -0.6861
19482SOL     OW62233   0.764   0.136  10.202  0.0006  0.3994  0.2136
19482SOL    HW162234   0.796   0.045  10.202  2.9448  1.3210  1.2195
19482SOL    HW262235   0.676   0.130  10.165  0.4057 -2.7463 -0.5592
19483SOL     OW62236   7.113   3.935   2.337 -0.0595 -0.2530  0.4457
19483SOL    HW162237   7.037   3.898   2.293 -0.1351  0.7600 -0.3126
19483SOL    HW262238   7.188   3.908   2.285  0.4866 -3.4453  2.5747
19484SOL     OW62239   4.085   6.214  10.270 -0.0997 -0.1564 -0.4889
19484SOL    HW162240   4.091   6.194  10.363  0.9012  1.3531 -0.1803
19484SOL    HW262241   4.172   6.194  10.235  0.0689  0.8809 -0.7168
19485SOL     OW62242   9.133   5.920   2.206  0.3416 -0.1733 -0.2361
19485SOL    HW162243   9.086   5.860   2.263  1.3403 -1.0055 -0.2480
19485SOL    HW262244   9.211   5.945   2.256 -0.7974  2.4019  0.4126
19486SOL     OW62245   1.108  10.129   0.561 -0.2486 -0.1923  0.3479
19486SOL    HW162246   1.065  10.105   0.643  2.1061 -1.4161  1.3409
19486SOL    HW262247   1.162  10.205   0.584 -0.4370  0.1711 -0.3854
19487SOL     OW62248   4.566   0.433   9.581  0.2488  0.1638  0.3723
19487SOL    HW162249   4.496   0.485   9.618 -0.6700 -1.2741  0.7443
19487SOL    HW262250   4.598   0.484   9.507 -1.0230  0.9634  0.3557
19488SOL     OW62251   2.248   2.444   3.723 -0.0097  0.0630  0.3233
19488SOL    HW162252   2.234   2.511   3.656  0.5488  0.3866  0.5182
19488SOL    HW262253   2.188   2.373   3.700  0.0954  0.2211 -0.4506
19489SOL     OW62254   8.325   5.950   9.119 -0.2699  0.0204 -0.9150
19489SOL    HW162255   8.287   6.038   9.125 -0.3528  0.0979 -2.3006
19489SOL    HW262256   8.332   5.920   9.210 -0.7236  1.2505 -0.4636
19490SOL     OW62257   3.042   8.060   2.644 -0.0948 -0.2763 -0.0583
19490SOL    HW162258   3.005   8.123   2.582  0.7799 -0.3913 -0.7071
19490SOL    HW262259   3.077   7.990   2.589 -2.3417 -2.0980  0.6804
19491SOL     OW62260   3.473   2.739   2.532 -0.5947  0.6356  0.1870
19491SOL    HW162261   3.526   2.677   2.481 -1.0944 -0.4431  0.9481
19491SOL    HW262262   3.528   2.759   2.608  1.0521  3.8551 -1.6559
19492SOL     OW62263  10.025   4.243   7.377 -0.2658 -0.2987 -0.9680
19492SOL    HW162264   9.962   4.287   7.433 -0.8332 -1.4939 -0.6348
19492SOL    HW262265  10.109   4.254   7.421 -0.5431 -0.3073 -0.4350
19493SOL     OW62266   6.118   6.789   1.231  0.2806 -0.3075  0.1582
19493SOL    HW162267   6.210   6.801   1.208 -0.0581 -0.7388 -1.5403
19493SOL    HW262268   6.078   6.753   1.152 -1.8427  2.0545  0.0305
19494SOL     OW62269   0.739   4.530   9.632 -0.1734  0.2482  0.4362
19494SOL    HW162270   0.820   4.485   9.655  1.1679  2.6453  0.7528
19494SOL    HW262271   0.670   4.479   9.673  1.4273 -0.2841  2.6293
19495SOL     OW62272   3.704   4.593   3.228  0.3962  0.5171 -0.1569
19495SOL    HW162273   3.627   4.555   3.186 -0.2486  0.7219  0.8145
19495SOL    HW262274   3.775   4.577   3.166 -0.5516  0.9786 -1.4047
19496SOL     OW62275   1.904   0.061   7.303 -0.6653  0.1095  0.0683
19496SOL    HW162276   1.949   0.137   7.340  0.0641  0.0194 -0.5852
19496SOL    HW262277   1.816   0.064   7.340 -0.6658  1.3037  0.0190
19497SOL     OW62278   9.583   5.990  10.167  0.3695  0.1816  0.6235
19497SOL    HW162279   9.531   6.067  10.188  1.3190  0.9391  0.2361
19497SOL    HW262280   9.521   5.917  10.173 -1.0768  1.1837 -1.1866
19498SOL     OW62281   8.699   1.879   8.210  0.1398 -0.0138 -0.3557
19498SOL    HW162282   8.779   1.827   8.202 -1.4812 -2.7279 -0.3178
19498SOL    HW262283   8.721   1.947   8.273  2.7598  0.1610 -1.3327
19499SOL     OW62284   8.346  10.172   9.527  0.7655 -0.0061 -0.2899
19499SOL    HW162285   8.410  10.144   9.592 -0.8623 -1.4672  0.7833
19499SOL    HW262286   8.299  10.245   9.568  2.2831  1.6861 -1.4433
19500SOL     OW62287   6.653   4.784   9.411  0.0528 -0.7687 -0.1341
19500SOL    HW162288   6.720   4.743   9.357 -0.8955 -0.4577 -1.6136
19500SOL    HW262289   6.578   4.725   9.404 -0.8591  0.4597 -1.1389
19501SOL     OW62290   3.608   5.967   3.946  0.6381  0.2151  0.2861
19501SOL    HW162291   3.531   5.912   3.937 -0.1475  1.0659  1.4559
19501SOL    HW262292   3.648   5.967   3.859 -2.0903  1.8012 -1.0975
19502SOL     OW62293   4.063   5.044   3.831  0.0132 -0.0379  0.2335
19502SOL    HW162294   4.045   5.128   3.790 -1.3627  0.2484  1.3308
19502SOL    HW262295   4.074   4.983   3.758 -0.2592  0.8454 -0.5616
19503SOL     OW62296   9.799   6.977   8.640 -0.2371 -0.0363  0.1583
19503SOL    HW162297   9.776   7.055   8.689 -0.3567 -0.1884  0.3421
19503SOL    HW262298   9.737   6.976   8.566  0.9364  1.0447 -0.8880
19504SOL     OW62299   2.796   7.294   6.001  0.4551  0.5188  0.5448
19504SOL    HW162300   2.733   7.242   5.951 -0.8103  0.6057  1.9655
19504SOL    HW262301   2.815   7.370   5.945 -0.1007  0.1020 -0.2278
19505SOL     OW62302   8.476   8.734   0.266  0.5215  0.5609  0.0743
19505SOL    HW162303   8.447   8.778   0.347  1.0467  1.8701 -0.4176
19505SOL    HW262304   8.562   8.697   0.288 -0.2071 -0.8262  0.6840
19506SOL     OW62305   1.180   2.424   6.945 -0.2011  0.5685  0.0707
19506SOL    HW162306   1.085   2.431   6.933 -0.2118 -0.4004 -0.4395
19506SOL    HW262307   1.194   2.335   6.976  0.5528  0.6961  0.1159
19507SOL     OW62308   8.810   0.432   3.632  0.1830  0.1533  0.1158
19507SOL    HW162309   8.874   0.482   3.684  0.0763 -0.0936  0.4907
19507SOL    HW262310   8.772   0.497   3.573 -0.8908  0.8260  1.4789
19508SOL     OW62311   2.292   5.466   6.972 -0.1293  0.2902 -0.3679
19508SOL    HW162312   2.242   5.391   7.002 -0.8688  1.1968  0.7001
19508SOL    HW262313   2.384   5.440   6.984 -0.3784  0.3930  2.1901
19509SOL     OW62314   4.239   4.589   4.169  0.1418  0.0183 -0.1272
19509SOL    HW162315   4.185   4.668   4.171  1.1144  0.8036 -1.9795
19509SOL    HW262316   4.179   4.518   4.190 -1.8143  0.7952 -2.5398
19510SOL     OW62317   7.313   4.049   9.920  0.6370 -0.0865  0.5296
19510SOL    HW162318   7.231   4.095   9.942 -0.6008 -1.1615 -1.5703
19510SOL    HW262319   7.320   3.980   9.987  0.2285  0.4621  1.1531
19511SOL     OW62320   4.921   2.537   4.569 -0.0338 -0.0293  0.2801
19511SOL    HW162321   4.841   2.561   4.617  1.0482 -0.6019  2.5144
19511SOL    HW262322   4.990   2.585   4.614  1.1260 -1.0226 -0.4068
19512SOL     OW62323   9.291   7.825   1.935  0.4856  0.3582  0.1683
19512SOL    HW162324   9.318   7.788   1.851  0.4563 -0.0913  0.3568
19512SOL    HW262325   9.220   7.769   1.965 -0.4040  1.2955 -0.1301
19513SOL     OW62326   2.191   1.433   8.398 -0.3759  0.4612  0.1080
19513SOL    HW162327   2.232   1.395   8.476  1.2288  2.6150  0.3882
19513SOL    HW262328   2.219   1.375   8.327  1.0697  0.4296  0.6674
19514SOL     OW62329   1.961   1.778   6.517  0.2619  0.1774  0.1072
19514SOL    HW162330   1.987   1.697   6.474 -1.5475 -0.7584  0.6854
19514SOL    HW262331   2.021   1.786   6.592  1.5736  0.3229 -0.9290
19515SOL     OW62332   9.111  10.126   1.484  0.1904  0.1318 -0.0533
19515SOL    HW162333   9.043  10.065   1.514  1.5178 -1.5696 -0.3725
19515SOL    HW262334   9.064  10.187   1.426 -1.2535 -0.2946  0.6232
19516SOL     OW62335   8.243   7.681   5.084  0.4579 -0.3176  0.2529
19516SOL    HW162336   8.314   7.632   5.042  1.0715 -0.5437  1.4960
19516SOL    HW262337   8.281   7.768   5.100  0.3132 -0.2994  0.5131
19517SOL     OW62338   7.183   5.778   4.139  0.2660 -0.5065  0.1904
19517SOL    HW162339   7.164   5.746   4.051 -0.4630 -3.1338  1.2061
19517SOL    HW262340   7.117   5.736   4.194  0.5508  1.2752  1.9680
19518SOL     OW62341   9.841   4.155   1.025 -0.0428 -0.0582 -0.1476
19518SOL    HW162342   9.846   4.067   0.989 -0.7670 -0.9830  1.8536
19518SOL    HW262343   9.747   4.173   1.032  0.0368 -0.2071  1.8041
19519SOL     OW62344   3.413   9.586   2.726  0.4395  0.2885  0.0942
19519SOL    HW162345   3.325   9.582   2.765 -1.0399  0.5611 -2.9219
19519SOL    HW262346   3.427   9.499   2.689  0.3925  0.8714 -1.3950
19520SOL     OW62347   5.709   1.726   8.674 -0.4027 -0.1275  0.2921
19520SOL    HW162348   5.634   1.676   8.705  0.5170 -0.9762  1.2541
19520SOL    HW262349   5.764   1.737   8.752  1.4987 -1.4244 -0.7732
19521SOL     OW62350   0.554   4.757   7.544  0.0690 -0.0926 -0.3895
19521SOL    HW162351   0.599   4.681   7.582 -1.7659 -1.4144 -0.7058
19521SOL    HW262352   0.559   4.743   7.449 -0.9436 -0.2674 -0.4333
19522SOL     OW62353   0.024   0.878   4.266 -0.3314  0.2729 -0.5708
19522SOL    HW162354   0.039   0.814   4.336 -2.3834  0.5072  0.1390
19522SOL    HW262355  -0.001   0.825   4.190  0.4886  0.1026 -0.7296
19523SOL     OW62356   2.198   0.644   0.430  0.1372  0.2254 -0.2150
19523SOL    HW162357   2.176   0.596   0.510  0.3090  1.0816  0.3519
19523SOL    HW262358   2.128   0.621   0.369 -0.3681  0.0909  0.4038
19524SOL     OW62359   6.536   4.050   6.828  0.1335 -0.4785 -0.0721
19524SOL    HW162360   6.528   3.956   6.814  0.4447 -0.5482  0.2025
19524SOL    HW262361   6.579   4.058   6.913 -1.6725 -0.0652  0.8489
19525SOL     OW62362   8.527   1.581   8.422  0.3222 -0.7174  0.3563
19525SOL    HW162363   8.568   1.553   8.504  0.7249 -0.9092  0.0928
19525SOL    HW262364   8.544   1.509   8.361 -0.2978 -0.7425  0.2030
19526SOL     OW62365   0.860   0.080   7.247  0.5175  0.1845 -0.2188
19526SOL    HW162366   0.773   0.040   7.249  1.3448 -1.8311  3.3767
19526SOL    HW262367   0.911   0.025   7.188 -0.0704  0.0121 -0.5682
19527SOL     OW62368   9.189   8.012   1.493  0.1106  0.1474 -0.4744
19527SOL    HW162369   9.272   8.055   1.473  1.1272 -2.1494 -1.5770
19527SOL    HW262370   9.167   7.964   1.413 -0.5875 -1.8390  0.8299
19528SOL     OW62371   5.876   0.553   9.877 -0.3382 -0.0758 -0.5434
19528SOL    HW162372   5.899   0.461   9.861  0.7951  0.2155 -0.6140
19528SOL    HW262373   5.810   0.549   9.947  0.2521 -0.8975 -0.0174
19529SOL     OW62374   7.774   7.558   4.407  0.2834  0.4116  0.8585
19529SOL    HW162375   7.714   7.494   4.370  0.2143  0.8972  0.1073
19529SOL    HW262376   7.732   7.588   4.488  0.9531 -1.4657  1.9603
19530SOL     OW62377   0.166   0.205   3.680 -0.1796 -0.4313 -0.5148
19530SOL    HW162378   0.123   0.253   3.610  0.2882 -0.7608 -1.0294
19530SOL    HW262379   0.247   0.253   3.698  0.6742 -1.4179 -1.5574
19531SOL     OW62380   0.941  10.123   9.681  0.7602 -0.1142  0.1415
19531SOL    HW162381   1.019  10.173   9.706 -0.2831  0.6717  2.1126
19531SOL    HW262382   0.974  10.036   9.659  2.2603  0.4307  0.0937
19532SOL     OW62383   2.507   2.296   5.738  0.6846 -0.1971  0.0742
19532SOL    HW162384   2.497   2.384   5.703  0.5736 -0.2168  0.0556
19532SOL    HW262385   2.467   2.239   5.671  0.3208 -0.2214  0.3108
19533SOL     OW62386   9.432   9.393   8.034  0.1421  0.2547  0.3207
19533SOL    HW162387   9.455   9.314   7.985 -4.2696 -0.3990 -1.2330
19533SOL    HW262388   9.430   9.462   7.968 -1.3148  0.4014  0.4835
19534SOL     OW62389   5.398   6.031   8.795  0.2516 -0.1833  0.1379
19534SOL    HW162390   5.478   5.986   8.767 -0.3264 -1.6579  0.7506
19534SOL    HW262391   5.418   6.124   8.784  1.2920 -0.5760 -1.7159
19535SOL     OW62392   0.278   6.801   3.919 -0.4049  0.1709  0.4160
19535SOL    HW162393   0.313   6.735   3.859 -2.0381  1.2190 -1.7955
19535SOL    HW262394   0.350   6.863   3.930 -0.2772  0.2974 -0.9946
19536SOL     OW62395   1.949   3.210   8.007  1.0399 -0.0726 -0.1164
19536SOL    HW162396   1.939   3.179   7.916 -0.2239  1.6108 -0.5922
19536SOL    HW262397   2.021   3.273   8.002  0.2361  0.8487 -0.1841
19537SOL     OW62398   7.415   9.409   1.600  0.3007 -0.4080 -0.0257
19537SOL    HW162399   7.415   9.341   1.532  1.0264  0.4914 -0.9724
19537SOL    HW262400   7.504   9.407   1.635  0.7165  0.8517 -0.9327
19538SOL     OW62401   0.352   9.233   6.075  0.7608  0.1976  0.0148
19538SOL    HW162402   0.282   9.184   6.032  0.1941 -0.6754  1.8330
19538SOL    HW262403   0.310   9.312   6.108  1.0206  0.4807 -0.3129
19539SOL     OW62404  10.311   4.567   5.089 -0.0029  0.3371 -0.0987
19539SOL    HW162405  10.258   4.616   5.152  1.2109  1.2294  0.2523
19539SOL    HW262406  10.282   4.600   5.004 -0.0277  0.8153  0.0910
19540SOL     OW62407  10.045  10.055   5.999  0.0233 -0.1920 -0.1915
19540SOL    HW162408   9.999  10.138   5.988 -0.0375 -0.0873  0.7556
19540SOL    HW262409  10.109  10.072   6.068  1.7693 -0.2209 -1.6914
19541SOL     OW62410   2.036   0.824   7.793 -0.4311  0.0896 -0.4365
19541SOL    HW162411   2.041   0.915   7.824  0.6827  0.0073 -0.3403
19541SOL    HW262412   1.963   0.824   7.731 -0.7512  0.9427 -0.0827
19542SOL     OW62413   7.806   6.411   8.045 -0.1687  0.4244 -0.2700
19542SOL    HW162414   7.839   6.337   8.096 -1.5318 -0.4696 -0.6378
19542SOL    HW262415   7.881   6.439   7.992  0.2857 -0.8971 -0.3563
19543SOL     OW62416   8.355   2.694   9.382  0.0687  0.1420  0.6011
19543SOL    HW162417   8.262   2.689   9.404  0.1612  1.2888  1.3136
19543SOL    HW262418   8.400   2.691   9.467  0.8096 -2.1741  0.2013
19544SOL     OW62419   5.734   1.064   1.467  0.0689 -0.0995 -0.3814
19544SOL    HW162420   5.817   1.049   1.512  0.8979  1.0639 -1.4780
19544SOL    HW262421   5.699   0.977   1.451  2.7131 -0.8181 -2.9028
19545SOL     OW62422   3.387   6.116   4.869 -0.8044 -0.4218 -0.3906
19545SOL    HW162423   3.350   6.186   4.815 -0.6774  0.1107  0.1937
19545SOL    HW262424   3.359   6.035   4.827  0.0969 -0.0249 -1.8012
19546SOL     OW62425   1.731   0.501   8.499  0.1381 -0.1743  0.1361
19546SOL    HW162426   1.643   0.482   8.465 -0.1162 -0.6139  1.0288
19546SOL    HW262427   1.746   0.435   8.566  0.7000  0.5888  0.7756
19547SOL     OW62428   1.287   2.949   3.215  0.0392 -0.0245  0.7730
19547SOL    HW162429   1.298   3.015   3.284  1.4698 -0.2521  0.7781
19547SOL    HW262430   1.272   2.868   3.263 -3.2478  0.4359  0.7826
19548SOL     OW62431   1.069   4.455   0.110 -0.1828  0.2106 -0.0644
19548SOL    HW162432   1.137   4.392   0.132 -2.0093 -1.1670  2.0948
19548SOL    HW262433   0.996   4.401   0.078 -0.7266  1.5297 -1.1777
19549SOL     OW62434   8.524   6.054   0.839  0.3761 -0.1167 -0.1220
19549SOL    HW162435   8.509   6.143   0.871  1.0375 -0.5500  1.5007
19549SOL    HW262436   8.439   6.011   0.846  0.3381  0.0264  0.3324
19550SOL     OW62437   4.356   1.882   7.344 -0.0244  0.3550  0.2912
19550SOL    HW162438   4.432   1.864   7.399  0.2747  1.2987  0.2039
19550SOL    HW262439   4.324   1.796   7.318  1.8577 -0.0501 -0.8157
19551SOL     OW62440   1.700   1.868   1.697 -0.0694  0.1720 -0.1269
19551SOL    HW162441   1.673   1.817   1.773  1.8330 -0.1045  0.4186
19551SOL    HW262442   1.701   1.805   1.625 -1.8656  0.4329 -0.4259
19552SOL     OW62443   6.689   2.977   3.124  0.3321 -0.2070 -0.1315
19552SOL    HW162444   6.676   3.005   3.034 -1.5862  1.6040  0.6338
19552SOL    HW262445   6.656   3.050   3.177 -0.9875 -2.2495  2.0268
19553SOL     OW62446   0.123  10.073   6.284  0.2118 -0.2678 -0.0706
19553SOL    HW162447   0.206  10.086   6.331 -0.2929  0.2442  0.7170
19553SOL    HW262448   0.075  10.009   6.338 -0.3773  0.3260  0.1280
19554SOL     OW62449   8.802   5.880   9.271  0.0086  0.0674 -0.2523
19554SOL    HW162450   8.802   5.852   9.362  0.6240  1.1245  0.0920
19554SOL    HW262451   8.760   5.966   9.271  1.1368  0.6596 -0.7381
19555SOL     OW62452   1.499   8.011   9.373  0.5855 -0.6528  0.1221
19555SOL    HW162453   1.486   7.976   9.461 -1.0397 -0.6060 -0.0794
19555SOL    HW262454   1.450   7.952   9.316 -0.4103  0.6891 -0.4605
19556SOL     OW62455   9.662   8.914   8.814  0.3798 -0.0046  0.2215
19556SOL    HW162456   9.574   8.943   8.838 -0.1163 -1.2765  0.0130
19556SOL    HW262457   9.649   8.828   8.773  1.6681  0.0137 -0.2750
19557SOL     OW62458   9.447   6.434   3.825  0.1031 -0.8454 -0.4534
19557SOL    HW162459   9.462   6.456   3.917 -2.1647 -1.2852  0.0743
19557SOL    HW262460   9.462   6.516   3.778 -1.7332  0.2316  0.7128
19558SOL     OW62461   2.725  10.207   3.168  0.4923  0.2775  0.2551
19558SOL    HW162462   2.662  10.177   3.233  0.9277 -0.1340  0.4954
19558SOL    HW262463   2.702  10.299   3.153 -2.0838 -0.5893 -1.9177
19559SOL     OW62464   1.576   8.292   9.608  0.0124 -0.7244 -0.8726
19559SOL    HW162465   1.515   8.341   9.664  1.2943 -0.1161  0.0326
19559SOL    HW262466   1.598   8.214   9.658  0.8926 -0.3510 -0.6517
19560SOL     OW62467   7.883   9.221   1.270  0.1586  0.1907  0.0934
19560SOL    HW162468   7.957   9.241   1.212  0.4736 -1.1856 -0.0150
19560SOL    HW262469   7.864   9.128   1.253 -1.9805  0.6624 -0.3188
19561SOL     OW62470   6.159   2.200   9.556  0.2382  0.0337 -0.0100
19561SOL    HW162471   6.150   2.110   9.525  1.7076  0.3660 -1.5457
19561SOL    HW262472   6.070   2.226   9.582  0.0647 -2.4226  2.2403
19562SOL     OW62473   9.321   4.927   3.587 -0.4904 -0.1711  0.3121
19562SOL    HW162474   9.387   4.980   3.633  0.8679 -2.0129  0.6069
19562SOL    HW262475   9.329   4.954   3.496 -0.4019  0.6980  0.5607
19563SOL     OW62476   6.670   4.385   4.087  0.0531 -0.2279  0.1960
19563SOL    HW162477   6.610   4.337   4.030 -0.9313  0.4655  0.6137
19563SOL    HW262478   6.625   4.468   4.104  3.0038  2.3685 -3.0850
19564SOL     OW62479   2.743   9.871   3.862 -0.1665 -0.0491 -0.2545
19564SOL    HW162480   2.685   9.942   3.889  1.4721  1.2739 -0.0279
19564SOL    HW262481   2.687   9.810   3.814 -1.5249  1.6583 -0.9188
19565SOL     OW62482   4.069   2.243   1.941 -0.0192  0.5263  0.9118
19565SOL    HW162483   4.130   2.290   1.884  0.1254 -0.0290  0.6035
19565SOL    HW262484   4.109   2.247   2.028  0.7569 -0.3367  0.6099
19566SOL     OW62485   8.269   5.525   0.443 -0.2100  0.2516 -0.1369
19566SOL    HW162486   8.265   5.619   0.421  0.9348  0.5287  0.7654
19566SOL    HW262487   8.362   5.503   0.437 -0.4884 -0.8996 -0.5476
19567SOL     OW62488   2.897   7.837   6.832 -0.0802  0.2667 -0.2233
19567SOL    HW162489   2.944   7.755   6.818  1.3546  1.1202 -0.6003
19567SOL    HW262490   2.816   7.827   6.782  0.2241 -0.7883 -0.5331
19568SOL     OW62491  10.068   1.161   0.368  0.4141 -0.1181  0.1218
19568SOL    HW162492  10.023   1.234   0.409 -0.3309 -0.1761 -0.5795
19568SOL    HW262493  10.000   1.096   0.353  1.0876 -1.0147  0.8413
19569SOL     OW62494   6.717   6.348   5.076 -0.4902  0.1642 -0.0189
19569SOL    HW162495   6.754   6.375   5.159  0.0138  0.2758 -0.2771
19569SOL    HW262496   6.790   6.352   5.014 -1.1067  1.2532 -0.7242
19570SOL     OW62497   6.944   5.674   9.877  0.6859  0.1029  0.3405
19570SOL    HW162498   6.949   5.659   9.783 -0.5136  3.3156 -0.3487
19570SOL    HW262499   6.878   5.612   9.907  1.0063 -0.8934 -0.9268
19571SOL     OW62500   3.164   7.994   4.591 -0.2475  0.4732 -0.4264
19571SOL    HW162501   3.178   8.073   4.643  1.4027  0.8884 -1.4346
19571SOL    HW262502   3.073   7.968   4.611 -0.2228  1.5578  1.3134
19572SOL     OW62503   3.927   0.573   0.133 -0.1316  0.1995  0.3440
19572SOL    HW162504   3.838   0.590   0.166  0.0440  0.7763  0.5298
19572SOL    HW262505   3.947   0.485   0.165 -1.0412 -0.3783 -0.5982
19573SOL     OW62506   5.281   1.930   4.198 -0.2331  0.1530 -0.3098
19573SOL    HW162507   5.252   1.965   4.282  0.6528  1.0889 -0.3711
19573SOL    HW262508   5.286   2.007   4.141  1.7364 -0.0527 -0.4726
19574SOL     OW62509   0.473   3.190   5.430 -0.0364  0.1234 -0.1808
19574SOL    HW162510   0.480   3.243   5.350 -1.0281  0.2584 -0.1927
19574SOL    HW262511   0.452   3.253   5.498 -2.9812 -0.3821 -0.4903
19575SOL     OW62512   9.747   4.782   6.334 -0.1533  0.3855  0.2194
19575SOL    HW162513   9.778   4.865   6.297 -0.7781  1.0507  1.1383
19575SOL    HW262514   9.824   4.725   6.335  0.1768  0.7891 -0.8538
19576SOL     OW62515   4.226   0.434   6.343 -0.1608 -0.5886 -0.4488
19576SOL    HW162516   4.163   0.374   6.383  0.6981 -1.2139  0.0074
19576SOL    HW262517   4.235   0.505   6.407 -1.2092  0.0654 -1.0074
19577SOL     OW62518   7.118   3.518   9.610  0.0327  0.2231  0.4625
19577SOL    HW162519   7.058   3.559   9.548  1.6263  0.4170 -1.0166
19577SOL    HW262520   7.162   3.591   9.653  1.5629  0.1378 -0.8673
19578SOL     OW62521   8.112   8.341   8.742  0.6229  0.2326  0.0689
19578SOL    HW162522   8.122   8.290   8.822 -1.3237  1.7328  1.3841
19578SOL    HW262523   8.047   8.292   8.691 -0.5175  0.8202  0.8944
19579SOL     OW62524   8.343   1.550   8.128 -0.3154 -0.4680 -0.3416
19579SOL    HW162525   8.374   1.640   8.123  1.2984 -1.0300 -2.1282
19579SOL    HW262526   8.423   1.498   8.139 -1.2748 -1.6720  1.3646
19580SOL     OW62527   6.225   2.528   3.858  0.2076  0.5220  0.4385
19580SOL    HW162528   6.148   2.515   3.914  0.8124  1.5645  1.5561
19580SOL    HW262529   6.278   2.593   3.905  1.2235  0.6734 -0.8718
19581SOL     OW62530   0.583   3.565   4.084 -0.4958 -0.2156  0.3753
19581SOL    HW162531   0.557   3.620   4.157  0.7251 -0.9523  1.3877
19581SOL    HW262532   0.542   3.480   4.102  1.2006 -0.9134  1.1516
19582SOL     OW62533   6.705   0.864   3.220 -0.6167  0.0935 -0.1515
19582SOL    HW162534   6.712   0.770   3.202 -0.3455  0.4298 -2.0689
19582SOL    HW262535   6.656   0.869   3.302  1.5386 -1.7803  1.4008
19583SOL     OW62536   0.929   2.884   6.394 -0.8906  0.2477  0.6784
19583SOL    HW162537   0.922   2.951   6.461 -0.8506  0.5239  0.4044
19583SOL    HW262538   0.839   2.854   6.381 -1.1111  1.2105 -0.1770
19584SOL     OW62539   0.333   7.012   5.702  0.4435 -0.1932 -0.3847
19584SOL    HW162540   0.342   7.104   5.679  0.5851 -0.2972 -0.7566
19584SOL    HW262541   0.291   7.013   5.788  0.8228  0.2244 -0.2000
19585SOL     OW62542   1.664   0.276   0.247  0.4595 -0.0040  0.3288
19585SOL    HW162543   1.613   0.336   0.193  0.6001  2.2223  2.5188
19585SOL    HW262544   1.754   0.291   0.221  0.5031  0.8634  0.9332
19586SOL     OW62545   4.479   4.071   6.700 -1.1321 -1.0072 -0.1170
19586SOL    HW162546   4.405   4.047   6.645 -0.9138 -3.0916  0.4074
19586SOL    HW262547   4.544   4.002   6.685 -0.4682 -0.7984  1.5772
19587SOL     OW62548  10.074   3.933   5.150 -0.0643 -0.9843  0.5473
19587SOL    HW162549  10.008   3.974   5.206 -0.2361 -0.7310  0.1708
19587SOL    HW262550  10.150   3.991   5.155 -0.8602  0.3310 -1.2675
19588SOL     OW62551  10.036   9.210   6.915 -0.3893 -0.3818 -0.4258
19588SOL    HW162552  10.027   9.143   6.847  1.9499 -1.3182  0.0938
19588SOL    HW262553  10.090   9.278   6.875 -2.6110  1.2216 -0.8933
19589SOL     OW62554   8.249   5.925   4.152 -0.0432  0.2079 -0.0602
19589SOL    HW162555   8.342   5.944   4.166 -0.1308  1.5279 -1.0167
19589SOL    HW262556   8.233   5.953   4.061 -0.8353 -2.2449 -0.7622
19590SOL     OW62557   6.657   1.266   1.999  0.8155 -0.1031  0.2111
19590SOL    HW162558   6.715   1.321   2.050 -0.0479 -0.0318  1.1391
19590SOL    HW262559   6.583   1.322   1.977  0.1363 -0.7497  0.7923
19591SOL     OW62560   2.014   1.811   4.078  0.3037  0.5033 -0.3908
19591SOL    HW162561   1.982   1.732   4.120 -1.0752  1.0014 -0.4604
19591SOL    HW262562   2.101   1.787   4.045  1.5065  0.0777  2.6770
19592SOL     OW62563   9.216   7.472   4.836 -0.4102 -0.7150 -0.3543
19592SOL    HW162564   9.222   7.557   4.878  0.4376 -1.0464  0.2083
19592SOL    HW262565   9.122   7.451   4.838 -0.5167 -0.2019  0.2983
19593SOL     OW62566   9.031   0.050   8.027  0.1819  0.4220  0.7605
19593SOL    HW162567   9.039   0.138   7.990  0.5204 -0.0457 -0.3216
19593SOL    HW262568   8.955   0.012   7.982  0.9467 -0.3607  0.0962
19594SOL     OW62569   0.585   5.687   6.285  0.1126 -0.6751 -0.3293
19594SOL    HW162570   0.527   5.757   6.257  0.1637 -1.1399 -1.6638
19594SOL    HW262571   0.542   5.649   6.361  0.6803  1.5531  1.2208
19595SOL     OW62572   9.504   7.415   7.473 -0.4771  0.1831 -0.1084
19595SOL    HW162573   9.443   7.483   7.501  0.7188  1.0150  0.6003
19595SOL    HW262574   9.469   7.334   7.509  0.3029  1.0218  2.8434
19596SOL     OW62575   2.228   1.516   6.304  0.0220  0.1709 -0.0876
19596SOL    HW162576   2.180   1.565   6.237 -0.4336  1.8058  1.3657
19596SOL    HW262577   2.292   1.578   6.339  1.5340 -1.2314 -0.2727
19597SOL     OW62578   7.018   2.918   0.344 -0.5886  0.1395  0.0072
19597SOL    HW162579   7.023   3.004   0.386 -0.6997  0.9099 -1.4916
19597SOL    HW262580   7.101   2.910   0.297  0.4931 -1.6725  2.0971
19598SOL     OW62581   9.380   2.922   8.958 -0.1060 -0.1658  0.6368
19598SOL    HW162582   9.350   2.995   8.905 -0.2071  0.0235  0.9516
19598SOL    HW262583   9.403   2.854   8.895  1.6869  0.7606  0.2276
19599SOL     OW62584   0.198   4.662   5.116 -0.1476  0.0050  0.0477
19599SOL    HW162585   0.221   4.611   5.038 -0.0115  0.4475 -0.2052
19599SOL    HW262586   0.106   4.641   5.132 -0.9512  1.7982 -1.7333
19600SOL     OW62587  10.012   6.692   6.465 -0.5552  0.0156 -0.5689
19600SOL    HW162588  10.005   6.721   6.374 -2.4258 -0.3247 -0.5716
19600SOL    HW262589  10.095   6.645   6.469 -0.6796 -0.4052 -2.2272
19601SOL     OW62590   9.696   2.496   7.749 -0.2494 -0.3692 -0.0983
19601SOL    HW162591   9.644   2.546   7.685  0.8818  0.3337 -0.5054
19601SOL    HW262592   9.786   2.525   7.734  0.1353 -0.7729  1.3070
19602SOL     OW62593   8.415   4.665  10.240  0.3082  0.1605  0.0843
19602SOL    HW162594   8.335   4.688  10.193 -1.6171  1.4677  3.5862
19602SOL    HW262595   8.463   4.748  10.249  1.7450 -0.4675 -1.3040
19603SOL     OW62596   1.412   5.131   7.127 -0.1015  0.0443 -0.2815
19603SOL    HW162597   1.318   5.118   7.126 -0.2274  0.4938  1.8670
19603SOL    HW262598   1.429   5.182   7.206  2.0637 -0.9915 -0.0018
19604SOL     OW62599   5.452   8.340   3.610 -0.1163  0.3912  0.5183
19604SOL    HW162600   5.363   8.325   3.639 -0.2687  0.5206  0.1305
19604SOL    HW262601   5.462   8.284   3.532  0.2201  0.1899  0.7017
19605SOL     OW62602   7.251   0.709   2.544 -0.1973 -0.2467  0.0239
19605SOL    HW162603   7.292   0.670   2.467  0.0219  0.0005  0.0111
19605SOL    HW262604   7.212   0.790   2.511 -0.8713 -0.5746 -0.0029
19606SOL     OW62605   5.247   3.023   3.536  0.0194  0.0682 -0.5689
19606SOL    HW162606   5.289   2.937   3.538  0.7756  0.4368 -0.1796
19606SOL    HW262607   5.207   3.028   3.449 -0.0883 -0.6932 -0.5772
19607SOL     OW62608   3.740   0.615   7.237 -0.1087 -0.1970 -0.1046
19607SOL    HW162609   3.653   0.584   7.264 -0.7575  0.3837 -1.4295
19607SOL    HW262610   3.789   0.536   7.217 -1.1657 -0.4700 -1.7435
19608SOL     OW62611   2.700   4.644   5.204  0.4829  0.1477 -0.6036
19608SOL    HW162612   2.776   4.644   5.262  0.3662 -0.1176 -0.4529
19608SOL    HW262613   2.643   4.576   5.238 -0.2688  0.9860 -0.1465
19609SOL     OW62614   8.173   8.651   6.670  0.0980 -0.5446  0.3182
19609SOL    HW162615   8.100   8.626   6.727  0.0539  0.9074  0.9584
19609SOL    HW262616   8.200   8.737   6.704  2.4402 -1.2729  0.4220
19610SOL     OW62617   1.037   3.591   1.883  0.3175 -0.9873 -0.3125
19610SOL    HW162618   0.944   3.602   1.900  0.2697  2.5988 -1.9659
19610SOL    HW262619   1.080   3.621   1.963  0.0545 -0.3992 -0.3911
19611SOL     OW62620   6.251   2.858   4.474  0.2000 -0.0281  0.4809
19611SOL    HW162621   6.272   2.787   4.535 -1.2513  1.0663  2.3677
19611SOL    HW262622   6.336   2.894   4.449  0.9939 -2.6362 -0.8554
19612SOL     OW62623   6.067   3.880   5.772 -0.0199 -0.1175 -0.4467
19612SOL    HW162624   6.146   3.876   5.826 -0.9596 -1.7009  0.9247
19612SOL    HW262625   6.080   3.813   5.705 -0.3853 -0.7297  0.0840
19613SOL     OW62626   5.322   8.649   4.703 -0.0424 -0.7040  0.0226
19613SOL    HW162627   5.334   8.672   4.611 -0.4012  0.7889  0.3253
19613SOL    HW262628   5.407   8.615   4.731  0.5562  0.3854 -0.4398
19614SOL     OW62629   3.883   0.635   7.470  0.5034  0.2274 -0.8185
19614SOL    HW162630   3.957   0.687   7.439  0.8562 -0.0266 -0.4071
19614SOL    HW262631   3.850   0.591   7.391  1.6728 -0.7693 -0.7829
19615SOL     OW62632   5.317  10.067  10.111 -0.2912  0.7370  0.1697
19615SOL    HW162633   5.290   9.977  10.094 -0.0993  0.7311 -0.1118
19615SOL    HW262634   5.402  10.076  10.067 -0.3222  1.0629  0.1688
19616SOL     OW62635   5.949   5.521   2.015 -0.2076  0.5548 -0.2692
19616SOL    HW162636   6.009   5.547   2.085  0.9344  0.1533 -1.0707
19616SOL    HW262637   5.940   5.426   2.025  0.0079  0.4872 -0.6869
19617SOL     OW62638   7.800   8.995   2.159 -0.0904  0.4017 -0.0157
19617SOL    HW162639   7.815   9.078   2.203 -2.1512  0.7395  0.1239
19617SOL    HW262640   7.708   8.996   2.136  0.0604 -1.4492 -0.8741
19618SOL     OW62641   1.993   0.991   3.524  0.3426  0.0280  0.0381
19618SOL    HW162642   1.983   0.899   3.551 -0.5776 -0.3962 -1.6278
19618SOL    HW262643   2.041   0.986   3.441 -0.1108  1.0341 -0.2904
19619SOL     OW62644   2.608   4.075   8.801  0.3679  0.3167  0.0487
19619SOL    HW162645   2.699   4.046   8.810  0.7628  1.3571 -0.4352
19619SOL    HW262646   2.613   4.171   8.800 -0.6698  0.3791 -0.5887
19620SOL     OW62647   4.283   1.795   9.302  0.0347  0.1756 -0.1061
19620SOL    HW162648   4.269   1.707   9.338 -2.7218  0.7259  0.3519
19620SOL    HW262649   4.292   1.851   9.379  0.1492  0.5442 -0.3835
19621SOL     OW62650   0.603   1.024   0.747  0.3066 -0.0052 -0.1353
19621SOL    HW162651   0.597   0.941   0.701  1.2575  0.6701 -1.5765
19621SOL    HW262652   0.513   1.047   0.770  0.1933 -2.5567  2.5049
19622SOL     OW62653   0.717   2.583   4.893  0.4328  0.1647 -0.6478
19622SOL    HW162654   0.677   2.654   4.842  1.9537  0.4236 -1.5434
19622SOL    HW262655   0.715   2.615   4.983 -0.3403  0.6450 -0.8232
19623SOL     OW62656   2.504   8.971  10.018  0.4417  0.0551  0.1004
19623SOL    HW162657   2.437   8.927  10.070 -0.9893 -0.7900 -2.2707
19623SOL    HW262658   2.462   9.050   9.985  0.9297  0.0392 -0.6000
19624SOL     OW62659   4.913   8.077   3.193 -0.2558  0.0587 -0.0206
19624SOL    HW162660   4.832   8.027   3.187  0.0473 -0.7252  1.7728
19624SOL    HW262661   4.926   8.090   3.287  0.9250  1.4650 -0.3399
19625SOL     OW62662   2.178   2.088   1.010  0.2311  0.6310  0.7729
19625SOL    HW162663   2.167   2.001   0.973  2.5673  0.8430 -0.6313
19625SOL    HW262664   2.089   2.125   1.011 -0.6131 -1.2474  0.1650
19626SOL     OW62665   2.991   9.214   4.462 -0.2946  0.5670  0.3683
19626SOL    HW162666   2.948   9.286   4.416 -0.0954  0.5006  0.0709
19626SOL    HW262667   3.084   9.225   4.441 -0.4581 -0.9328 -1.3395
19627SOL     OW62668   9.296   6.942   9.822 -0.1247 -0.0348 -0.9192
19627SOL    HW162669   9.204   6.968   9.830 -0.4985 -0.6221 -2.8485
19627SOL    HW262670   9.293   6.851   9.793  0.9827  0.5989 -3.2461
19628SOL     OW62671   0.496   1.303   2.686 -0.3850  0.1897 -0.2034
19628SOL    HW162672   0.591   1.308   2.678 -0.2663 -0.5615  0.5914
19628SOL    HW262673   0.477   1.209   2.685 -0.8999  0.2300  1.9058
19629SOL     OW62674   6.220   7.738   1.552  0.3566  0.1481 -0.3107
19629SOL    HW162675   6.290   7.784   1.506  1.1073  0.8321  1.4407
19629SOL    HW262676   6.177   7.686   1.484  2.8487 -0.6789 -1.3731
19630SOL     OW62677   7.288   1.028   0.508  0.0053  0.4128  0.0337
19630SOL    HW162678   7.351   1.054   0.574  2.0672  1.0355 -2.0269
19630SOL    HW262679   7.211   1.083   0.524  1.0473  1.6656  0.9259
19631SOL     OW62680   3.185   7.208   2.649  0.0260  0.6755  0.2215
19631SOL    HW162681   3.196   7.302   2.665  1.4136  0.7445 -0.9151
19631SOL    HW262682   3.120   7.180   2.713 -1.5270  2.6985 -0.3814
19632SOL     OW62683   6.540   3.064   1.493 -0.0590  0.0535  0.4005
19632SOL    HW162684   6.504   3.091   1.578  0.4105 -0.4916  0.7811
19632SOL    HW262685   6.626   3.105   1.489 -0.2843  0.4842 -0.0357
19633SOL     OW62686   8.622   7.493   7.294 -0.1940  0.4072 -0.2679
19633SOL    HW162687   8.660   7.510   7.380 -0.1875  0.2898 -0.2476
19633SOL    HW262688   8.553   7.559   7.285 -0.7334 -0.0760  0.1740
19634SOL     OW62689   4.372   3.696   4.598 -0.0278  0.3861 -0.0104
19634SOL    HW162690   4.462   3.729   4.595 -0.5060  1.7259 -0.3075
19634SOL    HW262691   4.379   3.604   4.575  1.3043  0.4160  0.2300
19635SOL     OW62692   5.221   0.152   2.671 -0.2652  0.1783  0.2399
19635SOL    HW162693   5.196   0.232   2.625 -1.8413 -1.0109 -1.1021
19635SOL    HW262694   5.310   0.135   2.643  0.1074  1.4690  0.5749
19636SOL     OW62695   2.764   9.107  10.104 -0.2952 -0.3372  0.0248
19636SOL    HW162696   2.764   9.119  10.199  0.8474  0.0697 -0.0237
19636SOL    HW262697   2.679   9.066  10.086 -0.9728  0.5440  1.0907
19637SOL     OW62698   6.199   6.226   1.351 -0.2249 -0.0216 -0.7119
19637SOL    HW162699   6.163   6.221   1.263  0.2465 -0.0545 -0.9074
19637SOL    HW262700   6.139   6.174   1.405  0.2990 -1.2710 -1.2879
19638SOL     OW62701   9.428   1.534   5.964  0.8056  0.1841 -0.3950
19638SOL    HW162702   9.352   1.535   5.907  0.9127 -0.8642 -0.5805
19638SOL    HW262703   9.398   1.572   6.047  0.2630  0.3813 -0.6847
19639SOL     OW62704   0.047   0.773   1.062 -0.0320 -0.0951  0.0100
19639SOL    HW162705   0.096   0.700   1.024  2.3179  0.9840  0.7571
19639SOL    HW262706   0.099   0.850   1.040 -1.3483  1.1323  1.0247
19640SOL     OW62707   1.734   8.532   7.045 -0.1344 -0.7455 -0.0803
19640SOL    HW162708   1.730   8.554   7.138 -1.2010 -0.4594 -0.1841
19640SOL    HW262709   1.771   8.610   7.003 -2.7756  0.4992 -0.2916
19641SOL     OW62710   8.575   8.969   8.976  0.5544 -0.1797  0.2313
19641SOL    HW162711   8.561   9.063   8.985 -1.6266 -0.3568 -0.5954
19641SOL    HW262712   8.557   8.950   8.884 -0.1518 -1.5364  0.6199
19642SOL     OW62713   0.369   6.132   9.079 -0.7758 -0.1342 -0.2446
19642SOL    HW162714   0.312   6.188   9.026 -1.4650 -1.3858 -0.8717
19642SOL    HW262715   0.442   6.109   9.022 -0.7431 -0.2672 -0.1512
19643SOL     OW62716   7.188   1.715   7.048  0.1040 -0.1786 -0.0191
19643SOL    HW162717   7.219   1.624   7.046  0.3380 -0.0872 -0.9103
19643SOL    HW262718   7.265   1.766   7.073 -0.2485 -0.2879  1.4352
19644SOL     OW62719   9.601   0.715   0.998 -0.2636 -0.5877  0.4885
19644SOL    HW162720   9.506   0.727   1.000 -0.1033  0.8779  1.1523
19644SOL    HW262721   9.614   0.621   1.005 -1.6986 -1.0056 -1.4773
19645SOL     OW62722  10.001   2.025   1.497  0.9448 -1.0109 -1.0048
19645SOL    HW162723   9.994   2.119   1.481  1.0026 -0.3707  2.0766
19645SOL    HW262724  10.087   2.001   1.461  1.2473  0.2935 -1.1915
19646SOL     OW62725   3.135   4.246   2.904  0.6957  0.2273  0.0485
19646SOL    HW162726   3.170   4.159   2.924  0.9045 -0.0203 -1.2442
19646SOL    HW262727   3.207   4.292   2.862  0.4248  0.8339  0.2439
19647SOL     OW62728   4.640   4.993   0.574  0.2524 -0.3722  0.2701
19647SOL    HW162729   4.596   5.013   0.491 -0.1717 -0.8930  0.3595
19647SOL    HW262730   4.679   5.076   0.601 -0.5879  0.0822  0.1232
19648SOL     OW62731   2.720   4.478  10.334  0.2700 -0.2200 -0.1214
19648SOL    HW162732   2.713   4.554  10.393  0.5846  0.1274 -0.5290
19648SOL    HW262733   2.771   4.414  10.384  0.5036  0.0580 -0.0036
19649SOL     OW62734   9.351   4.939   7.185  0.3155 -0.1114  0.5109
19649SOL    HW162735   9.444   4.929   7.205  0.8492  0.6446 -1.3774
19649SOL    HW262736   9.339   4.894   7.101 -0.6584  1.2168 -0.0996
19650SOL     OW62737   1.213   6.841   7.427  0.0486  0.0400 -0.3602
19650SOL    HW162738   1.227   6.926   7.386 -1.1108  0.5249  0.1977
19650SOL    HW262739   1.171   6.861   7.511 -0.7318 -1.0934 -0.4454
19651SOL     OW62740   6.314  10.176   5.940 -0.1064 -0.1113 -0.0299
19651SOL    HW162741   6.294  10.269   5.945  0.8222  0.0516  1.1400
19651SOL    HW262742   6.410  10.173   5.940 -0.1286 -1.0890  0.5020
19652SOL     OW62743   8.479   1.770   8.044 -0.6138  0.2205 -0.4395
19652SOL    HW162744   8.447   1.849   8.000 -2.4170 -0.8539 -1.1501
19652SOL    HW262745   8.517   1.802   8.126  0.0924  1.9657 -1.3964
19653SOL     OW62746   9.480   1.318   2.498 -0.1294 -0.3950  0.4229
19653SOL    HW162747   9.575   1.318   2.507 -0.0961 -1.1814  0.1757
19653SOL    HW262748   9.453   1.233   2.534 -0.9307  0.6067  2.3433
19654SOL     OW62749   2.853   7.572   4.986 -0.2111 -0.0921 -0.1582
19654SOL    HW162750   2.892   7.606   4.905 -1.0170  1.7592  0.1871
19654SOL    HW262751   2.761   7.596   4.980 -0.3837 -0.3760  1.0865
19655SOL     OW62752   7.365   0.035   1.497  0.9593  0.4065  0.3625
19655SOL    HW162753   7.386  -0.051   1.459  0.7537  0.4881  0.0625
19655SOL    HW262754   7.440   0.090   1.474  0.7800  0.4878 -0.0298
19656SOL     OW62755   5.359   5.481   8.819  0.7307  0.2518 -0.1786
19656SOL    HW162756   5.415   5.554   8.792  0.4088  0.4735 -0.2534
19656SOL    HW262757   5.418   5.419   8.861  0.8199  1.1131  1.0078
19657SOL     OW62758   2.967   4.691   6.902  0.3886  0.2421  0.1046
19657SOL    HW162759   3.006   4.768   6.943  0.0597  0.3620  0.1906
19657SOL    HW262760   2.908   4.727   6.835  0.7699  0.0543 -0.3408
19658SOL     OW62761   0.744   7.461   3.201  0.3756  0.0599 -0.3018
19658SOL    HW162762   0.804   7.387   3.209  0.2578 -0.0604 -0.5313
19658SOL    HW262763   0.696   7.445   3.119  1.2276  1.0272 -1.0187
19659SOL     OW62764   4.539   7.155   2.293  0.1953 -0.5174  0.2860
19659SOL    HW162765   4.542   7.233   2.238 -0.9021 -0.9079 -0.3568
19659SOL    HW262766   4.493   7.185   2.372 -1.3231 -0.7626 -0.4552
19660SOL     OW62767   3.428   5.543   7.297  0.1123 -0.5741  0.2768
19660SOL    HW162768   3.471   5.490   7.230  0.0138 -0.4208  0.0911
19660SOL    HW262769   3.350   5.577   7.253 -0.2543 -0.9355  0.6391
19661SOL     OW62770   9.506   8.245   5.512  0.0737 -0.8131 -0.1522
19661SOL    HW162771   9.589   8.202   5.534  0.3652 -0.7709 -1.1236
19661SOL    HW262772   9.511   8.260   5.418 -0.1118  1.1695  0.1188
19662SOL     OW62773   9.138   2.697   9.238 -0.2649 -0.1558  0.3686
19662SOL    HW162774   9.054   2.736   9.215  1.2402  2.1767 -1.7276
19662SOL    HW262775   9.129   2.605   9.213 -2.2270 -0.0057  0.3714
19663SOL     OW62776  10.295   1.185   2.776 -0.6970 -0.4434  0.1443
19663SOL    HW162777  10.250   1.167   2.694 -1.4600  1.3402  0.1346
19663SOL    HW262778  10.233   1.236   2.828  0.4013 -0.0303  1.1142
19664SOL     OW62779   6.582   3.881   4.357 -0.1533  0.1365 -0.0100
19664SOL    HW162780   6.635   3.806   4.382  2.6063  2.7447  3.0407
19664SOL    HW262781   6.519   3.890   4.428 -0.7124  0.4844 -0.5432
19665SOL     OW62782   4.614   7.284   1.896 -0.0959 -0.1915 -0.1662
19665SOL    HW162783   4.652   7.197   1.885  0.2407  0.0793 -1.3535
19665SOL    HW262784   4.530   7.279   1.850  0.6253  0.5283 -1.6597
19666SOL     OW62785   9.266   5.763   3.114 -0.0028 -0.2981 -0.0993
19666SOL    HW162786   9.290   5.705   3.042  1.0063 -1.0641  0.8130
19666SOL    HW262787   9.290   5.851   3.084  0.2442 -0.5878 -0.7618
19667SOL     OW62788   6.681   6.736   8.176  0.1629  0.1811 -0.2939
19667SOL    HW162789   6.663   6.662   8.117 -2.6394 -0.1644  0.8607
19667SOL    HW262790   6.746   6.702   8.237 -0.5104 -1.0983 -0.2581
19668SOL     OW62791  10.057   2.686   8.755  0.2744  0.0725 -0.4593
19668SOL    HW162792  10.104   2.610   8.721  2.0733  0.9132  0.0144
19668SOL    HW262793   9.970   2.654   8.776  1.2461 -2.0697  0.5296
19669SOL     OW62794   6.792   2.884   2.202  0.1496 -0.0450 -0.3277
19669SOL    HW162795   6.768   2.974   2.226  1.4196  0.7993 -1.9894
19669SOL    HW262796   6.775   2.833   2.281  1.2509  2.0025  1.3513
19670SOL     OW62797   0.633   2.376   9.871  0.4494  0.2122 -0.3123
19670SOL    HW162798   0.626   2.434   9.795 -0.1254 -1.4075 -1.5545
19670SOL    HW262799   0.597   2.293   9.841  3.3798 -1.5316  0.6357
19671SOL     OW62800   3.316   9.333   2.658 -0.2563 -0.1840  0.0422
19671SOL    HW162801   3.245   9.355   2.718 -0.2575 -3.0675  1.2780
19671SOL    HW262802   3.275   9.328   2.572 -1.2950 -0.5707  0.5483
19672SOL     OW62803   1.323   8.393   9.695  0.3386 -0.4622  0.2440
19672SOL    HW162804   1.329   8.469   9.754  1.7145 -0.1157 -0.2864
19672SOL    HW262805   1.289   8.429   9.613 -1.0003 -0.8325  0.6121
19673SOL     OW62806   8.932   7.319   8.067  0.2071  0.4108  0.1085
19673SOL    HW162807   8.860   7.280   8.116 -0.0096  0.8256  0.1314
19673SOL    HW262808   8.929   7.412   8.091  0.6873  0.4484  0.0302
19674SOL     OW62809   5.050   2.560   5.359 -0.0906 -0.0718 -0.6065
19674SOL    HW162810   5.114   2.567   5.430 -1.0754  1.0685  0.2367
19674SOL    HW262811   5.098   2.524   5.285  0.8689 -1.7546  0.7662
19675SOL     OW62812   5.816   2.543   0.147  0.4158  0.1850  0.0701
19675SOL    HW162813   5.833   2.494   0.227  0.3659 -0.8064 -0.5137
19675SOL    HW262814   5.795   2.477   0.081  1.6246  0.8780 -1.0789
19676SOL     OW62815  10.293   9.451   4.748 -0.0794 -0.0726  0.1454
19676SOL    HW162816  10.358   9.383   4.731  0.2472  0.0472  0.8731
19676SOL    HW262817  10.344   9.525   4.779 -0.5149  0.2319  0.1349
19677SOL     OW62818   1.514   1.418   3.977  0.0006 -0.1064  0.3793
19677SOL    HW162819   1.424   1.432   4.006  0.4571  0.9301  1.3710
19677SOL    HW262820   1.518   1.326   3.954 -1.7848  0.1926 -1.4261
19678SOL     OW62821   7.517   3.043   5.133  0.1290  0.2193  0.1992
19678SOL    HW162822   7.547   2.953   5.146  0.1312  0.5455  3.1748
19678SOL    HW262823   7.540   3.063   5.042  2.4571 -1.9144  0.1937
19679SOL     OW62824   1.739   6.829   7.531  0.3392 -0.3339  0.5733
19679SOL    HW162825   1.699   6.915   7.547  3.8191  1.6756 -0.5573
19679SOL    HW262826   1.667   6.767   7.546 -2.0691  2.6089  2.6433
19680SOL     OW62827   7.971   0.217   9.344 -0.0352 -0.0952 -0.5085
19680SOL    HW162828   7.947   0.138   9.394 -0.1666  0.2963  0.0585
19680SOL    HW262829   7.940   0.289   9.398  0.6124  0.3633 -0.7462
19681SOL     OW62830   2.336   3.160   5.858 -0.1635 -0.0492 -0.0810
19681SOL    HW162831   2.289   3.190   5.780 -0.2511 -1.4536 -0.5962
19681SOL    HW262832   2.273   3.169   5.929  0.1264  1.8582 -0.0267
19682SOL     OW62833   1.483   4.595   5.911 -0.1563 -0.4799 -0.4777
19682SOL    HW162834   1.415   4.557   5.967 -0.4443 -1.6048 -1.5562
19682SOL    HW262835   1.493   4.532   5.839  0.5818  0.6666 -1.4110
19683SOL     OW62836   5.457   7.518   2.194  0.2359 -0.1466  0.5189
19683SOL    HW162837   5.398   7.579   2.237 -0.1253 -1.0730  1.4001
19683SOL    HW262838   5.429   7.516   2.103 -0.6210 -0.0234  0.7729
19684SOL     OW62839   1.344   0.266   8.089 -0.3536  0.2861 -0.4637
19684SOL    HW162840   1.427   0.248   8.134 -0.5584  2.5039  0.9668
19684SOL    HW262841   1.370   0.297   8.003  0.1610 -1.3107 -0.9312
19685SOL     OW62842   0.567   0.142   8.033 -0.3523  0.1369 -0.0767
19685SOL    HW162843   0.636   0.107   8.090  1.3366  0.9624 -1.5196
19685SOL    HW262844   0.613   0.173   7.955 -2.3255  1.1383 -0.9267
19686SOL     OW62845   8.403   1.831   1.299  0.1529  0.6346  0.2353
19686SOL    HW162846   8.459   1.864   1.229  1.4491 -0.1341  0.8798
19686SOL    HW262847   8.462   1.812   1.371 -0.9600 -0.0494  1.0080
19687SOL     OW62848   8.216   1.779   5.909  0.1160  0.0003 -0.0161
19687SOL    HW162849   8.293   1.832   5.928 -0.9158  1.6230 -0.1037
19687SOL    HW262850   8.238   1.692   5.940  1.7126  0.5768  0.5806
19688SOL     OW62851   8.946   5.275   1.017 -0.7341  0.3740 -0.3751
19688SOL    HW162852   8.967   5.362   1.049 -0.8161  0.3069 -0.1384
19688SOL    HW262853   8.893   5.289   0.939 -1.2793  0.5311  0.0180
19689SOL     OW62854   3.638   0.586   5.244  0.3465  0.1667  0.3602
19689SOL    HW162855   3.724   0.613   5.278  0.9401  2.5362 -2.6333
19689SOL    HW262856   3.658   0.521   5.177 -0.2861 -0.0054  0.3327
19690SOL     OW62857   6.609   0.710   5.668  0.1652  0.5217 -0.2725
19690SOL    HW162858   6.612   0.733   5.575  3.8517  2.0201  0.0524
19690SOL    HW262859   6.601   0.794   5.713 -0.4949 -0.1100  0.8393
19691SOL     OW62860   3.490   0.161   6.686  0.0856 -0.3599  0.2447
19691SOL    HW162861   3.465   0.241   6.731 -0.0436 -0.3445  0.1476
19691SOL    HW262862   3.563   0.187   6.630 -0.0733 -0.2679  0.0779
19692SOL     OW62863   8.154   7.611   6.257 -0.4986  0.3424  0.1153
19692SOL    HW162864   8.168   7.698   6.294  0.0381 -0.4119  1.7732
19692SOL    HW262865   8.161   7.552   6.331 -1.6013 -1.0759 -0.8487
19693SOL     OW62866   7.212   9.405   1.971 -0.3734  0.2096  0.5984
19693SOL    HW162867   7.194   9.434   1.881 -1.2734  1.5574  1.1803
19693SOL    HW262868   7.129   9.371   2.003 -0.4140  0.9432  1.3301
19694SOL     OW62869   9.541   7.278   7.975 -0.0561 -0.1185  0.1945
19694SOL    HW162870   9.606   7.208   7.980  0.8190  0.4949 -1.7056
19694SOL    HW262871   9.581   7.344   7.918 -0.8793  1.9181  1.8575
19695SOL     OW62872   2.972   5.771   5.997 -0.4390 -0.6851 -0.6685
19695SOL    HW162873   2.883   5.755   6.026 -0.2684 -1.5598 -0.6024
19695SOL    HW262874   2.966   5.848   5.940 -0.8315  0.8995  1.4023
19696SOL     OW62875   3.988   5.224   6.395 -0.5924  0.1981 -0.2359
19696SOL    HW162876   4.003   5.152   6.333 -0.4382  0.6635 -0.7487
19696SOL    HW262877   4.018   5.302   6.348 -1.2563  0.6672  0.1137
19697SOL     OW62878   6.373   9.455   8.025 -0.0078  0.2610 -0.6897
19697SOL    HW162879   6.349   9.397   8.097 -0.3523  1.2102 -0.0191
19697SOL    HW262880   6.434   9.404   7.972  0.5097 -0.3468  0.4510
19698SOL     OW62881   4.305   1.845   6.862  0.2054 -0.0196 -0.2253
19698SOL    HW162882   4.256   1.801   6.792 -2.0299 -1.2458  1.9581
19698SOL    HW262883   4.334   1.774   6.919 -0.2961  1.0601  1.4413
19699SOL     OW62884   7.763   3.476   2.416 -0.4224  0.2343  0.1445
19699SOL    HW162885   7.727   3.402   2.367 -0.1594 -0.6981  1.3064
19699SOL    HW262886   7.790   3.538   2.349 -2.6149  0.2317 -0.8315
19700SOL     OW62887   3.160   9.050   1.636  0.0584 -0.4761 -0.2469
19700SOL    HW162888   3.173   8.970   1.586  0.7852 -0.9579  0.6917
19700SOL    HW262889   3.081   9.033   1.688  1.9083 -1.8910  2.3404
19701SOL     OW62890   1.417   6.093   9.375  0.7265  0.2437  0.2273
19701SOL    HW162891   1.477   6.121   9.443 -1.6404  2.5748  1.5321
19701SOL    HW262892   1.402   6.171   9.322 -2.3413  0.2768  0.9725
19702SOL     OW62893   8.453   5.717   2.612  0.0483 -0.0667  0.4965
19702SOL    HW162894   8.372   5.766   2.625 -0.1464 -0.2010 -0.1369
19702SOL    HW262895   8.426   5.625   2.615  0.3759 -0.1446  1.4641
19703SOL     OW62896   2.487   3.282  10.237 -0.1367 -0.1210 -0.4541
19703SOL    HW162897   2.484   3.326  10.322 -0.6431  0.8133 -0.9328
19703SOL    HW262898   2.566   3.316  10.195 -1.3238  1.6069 -1.4448
19704SOL     OW62899   5.538   9.531   0.800  0.5101  0.3995 -0.1340
19704SOL    HW162900   5.613   9.589   0.793 -0.4840  1.8272  0.6215
19704SOL    HW262901   5.522   9.523   0.894 -1.5997  1.9426 -0.2773
19705SOL     OW62902   8.086   3.174   9.730 -0.1828 -0.2769 -0.3187
19705SOL    HW162903   8.123   3.112   9.792  2.0670  1.3050  0.0555
19705SOL    HW262904   8.134   3.160   9.649  0.9364  1.4227 -0.0027
19706SOL     OW62905   7.167   3.486   3.914  0.4898  0.0905 -0.0431
19706SOL    HW162906   7.253   3.464   3.877  0.6671  0.0111  0.4129
19706SOL    HW262907   7.181   3.485   4.008 -0.2482 -0.9186  0.0691
19707SOL     OW62908   9.604   3.362   1.723  0.3092 -0.0792  0.2592
19707SOL    HW162909   9.693   3.386   1.749  1.5385 -2.1940 -1.6258
19707SOL    HW262910   9.567   3.443   1.688  1.3072  0.9423  1.4485
19708SOL     OW62911   0.716   3.193   5.143  0.2240  0.5495  0.3534
19708SOL    HW162912   0.648   3.250   5.179 -0.2369 -0.1716  0.6341
19708SOL    HW262913   0.759   3.247   5.076  0.7820  1.7331  1.6206
19709SOL     OW62914   3.590   0.732   9.517 -0.0171 -0.3140  0.5276
19709SOL    HW162915   3.629   0.814   9.549 -0.2423  0.3714 -0.8742
19709SOL    HW262916   3.545   0.696   9.594  1.2159  0.1799  1.5140
19710SOL     OW62917   3.328   8.707   2.122 -0.3008  0.0834 -0.5255
19710SOL    HW162918   3.263   8.645   2.153 -1.2106  1.9365  1.5406
19710SOL    HW262919   3.280   8.762   2.059  0.5951 -1.4157 -2.6371
19711SOL     OW62920   8.630   1.926   6.276 -0.0431 -0.0730 -0.1458
19711SOL    HW162921   8.674   1.874   6.209 -1.0976 -0.5307 -0.5019
19711SOL    HW262922   8.603   2.006   6.231 -0.0509 -0.0322 -0.0688
19712SOL     OW62923   7.250   8.769   4.432  0.1701  0.1597  0.0828
19712SOL    HW162924   7.159   8.792   4.411  0.3813 -0.0050 -1.0986
19712SOL    HW262925   7.275   8.707   4.364  1.4443  0.8659 -0.1341
19713SOL     OW62926   8.608   3.294   9.265 -0.3130  0.3996 -0.1562
19713SOL    HW162927   8.614   3.366   9.202  2.0197 -0.1640 -0.6640
19713SOL    HW262928   8.591   3.337   9.349  2.0359  1.7305 -0.2543
19714SOL     OW62929   5.474   2.019   6.627  0.3238 -0.2174  0.2451
19714SOL    HW162930   5.510   1.933   6.607 -0.4144 -0.2934 -0.8366
19714SOL    HW262931   5.478   2.066   6.544 -0.3573  0.3986  0.5549
19715SOL     OW62932   8.878   9.748   4.508  0.1689 -0.1626 -0.0723
19715SOL    HW162933   8.916   9.676   4.458  2.3094  1.3944 -0.8503
19715SOL    HW262934   8.934   9.755   4.585 -0.9581 -0.2667  0.7792
19716SOL     OW62935   9.290   1.964   7.390 -0.1966  0.0187  0.2051
19716SOL    HW162936   9.301   1.891   7.451 -1.0407 -1.6465 -1.5561
19716SOL    HW262937   9.347   1.943   7.316 -0.8754  0.8678 -0.5851
19717SOL     OW62938   5.201   4.335   4.889 -0.2468 -0.1961 -0.2350
19717SOL    HW162939   5.287   4.362   4.921 -0.7683  1.7222 -0.3547
19717SOL    HW262940   5.155   4.303   4.967  0.1750 -0.1184  0.0459
19718SOL     OW62941   9.912   8.854   2.713  1.1004  0.0447  0.1790
19718SOL    HW162942   9.962   8.778   2.743 -0.0547 -1.3939 -1.3383
19718SOL    HW262943   9.821   8.834   2.736  0.7591  0.9307 -0.3358
19719SOL     OW62944   3.381   7.193   8.323 -0.1382 -0.1231 -0.3365
19719SOL    HW162945   3.427   7.164   8.402  1.1866 -1.0745 -1.4104
19719SOL    HW262946   3.313   7.253   8.355  1.1304  0.4483  1.4113
19720SOL     OW62947   0.713   7.476   1.008 -0.1340  0.1689  0.2019
19720SOL    HW162948   0.786   7.433   0.966 -0.4889  1.8133 -2.3283
19720SOL    HW262949   0.752   7.523   1.082  0.5908 -2.4219  1.5592
19721SOL     OW62950   9.972   8.726   8.236  0.4344 -0.7377 -0.0449
19721SOL    HW162951  10.063   8.736   8.209  0.3381 -0.6049 -0.3299
19721SOL    HW262952   9.976   8.703   8.328  0.8835 -3.2821 -0.6188
19722SOL     OW62953   9.191   2.214   3.166 -0.5496 -0.0575  0.0060
19722SOL    HW162954   9.102   2.179   3.173 -0.7591  0.4283 -0.1707
19722SOL    HW262955   9.180   2.308   3.178  0.1834 -0.1736  2.0811
19723SOL     OW62956   1.728  10.273   0.960 -0.2951 -0.3533  0.4210
19723SOL    HW162957   1.677  10.354   0.960 -1.9875 -1.3461  1.3187
19723SOL    HW262958   1.704  10.230   0.879  0.3546 -0.1126  0.0970
19724SOL     OW62959   2.513   7.388   8.384 -0.4130 -0.5483  0.0419
19724SOL    HW162960   2.574   7.399   8.457 -0.6286  0.8349  0.0460
19724SOL    HW262961   2.531   7.301   8.351  1.6005 -0.1794  0.0158
19725SOL     OW62962   9.477   7.982   8.052  0.6388 -0.2637 -0.1858
19725SOL    HW162963   9.385   8.005   8.039  0.9841  0.5551 -1.3046
19725SOL    HW262964   9.495   8.009   8.142  0.1344  0.8182 -0.3932
19726SOL     OW62965   3.559   5.564   5.664 -0.1216  0.0637  0.5962
19726SOL    HW162966   3.618   5.489   5.654  0.0938  0.0826  1.6311
19726SOL    HW262967   3.509   5.544   5.743 -1.0347  0.3747  0.1136
19727SOL     OW62968  10.261   7.186   2.147  0.1290  0.1434  0.1816
19727SOL    HW162969  10.346   7.155   2.118  0.7048  1.8795 -0.1133
19727SOL    HW262970  10.277   7.226   2.232  0.0354  2.1448 -0.6757
19728SOL     OW62971   7.215   8.031   9.212 -0.3162  0.9799  0.1936
19728SOL    HW162972   7.217   8.090   9.288  0.7037  0.4555  0.6026
19728SOL    HW262973   7.210   7.944   9.251 -1.6124  0.7732 -0.3997
19729SOL     OW62974   8.537   1.777   5.397  0.3512 -0.0621  0.1354
19729SOL    HW162975   8.620   1.823   5.396 -0.2283  1.0187  0.5427
19729SOL    HW262976   8.538   1.727   5.479 -0.0626  1.2189  0.9415
19730SOL     OW62977   4.017   2.364   9.613  0.2565 -0.2635  0.0830
19730SOL    HW162978   4.004   2.457   9.596 -0.1745 -0.3981 -0.3538
19730SOL    HW262979   3.985   2.351   9.703  1.2912  0.1996  0.5237
19731SOL     OW62980   2.792   0.473   9.584  0.2499  0.5049  0.3741
19731SOL    HW162981   2.822   0.429   9.663  1.0535 -0.7373 -0.5958
19731SOL    HW262982   2.700   0.448   9.575  0.0399  0.9783  1.1082
19732SOL     OW62983   9.216   9.015   3.645  0.9446  0.3227 -0.3861
19732SOL    HW162984   9.129   8.981   3.666  1.5291 -0.7821  0.3552
19732SOL    HW262985   9.227   9.092   3.701  1.1253 -0.5779  0.8631
19733SOL     OW62986   9.323   9.808   7.676 -0.2121 -0.0361 -0.1945
19733SOL    HW162987   9.230   9.807   7.698 -0.1439  1.2370  0.2324
19733SOL    HW262988   9.339   9.897   7.646  0.7867 -0.3621 -0.6439
19734SOL     OW62989   0.205   8.913   8.255 -0.4092  0.0161  0.4889
19734SOL    HW162990   0.277   8.893   8.195  0.1899  1.4356  0.6903
19734SOL    HW262991   0.127   8.882   8.210  0.2470 -0.9241 -0.0500
19735SOL     OW62992   2.458   5.783   9.748 -0.1606 -0.0785  0.2887
19735SOL    HW162993   2.488   5.695   9.728  0.1600  0.0349  0.2628
19735SOL    HW262994   2.363   5.774   9.763  0.2026 -0.7984  2.4490
19736SOL     OW62995   9.296   7.801   1.673  0.0653 -0.1756  0.8111
19736SOL    HW162996   9.361   7.812   1.604  0.1780  1.8958  1.1927
19736SOL    HW262997   9.237   7.875   1.663 -1.0992 -0.9302  1.7189
19737SOL     OW62998   1.798   0.348   5.867  0.7495 -0.2065  0.0929
19737SOL    HW162999   1.853   0.406   5.814  0.3800  1.0990  1.1002
19737SOL    HW263000   1.787   0.270   5.812  0.2722  1.1288 -1.8129
19738SOL     OW63001   8.093   7.346   7.864  0.0246 -0.1782  0.1520
19738SOL    HW163002   8.113   7.289   7.789  1.9567  1.5580 -0.7560
19738SOL    HW263003   8.178   7.381   7.890 -1.0646  2.2431  0.7002
19739SOL     OW63004  10.086   5.327   4.116 -0.8615 -0.3106  0.0515
19739SOL    HW163005  10.049   5.404   4.159 -1.0195  0.0282 -0.6690
19739SOL    HW263006  10.144   5.363   4.049  1.9158 -0.8102  2.0182
19740SOL     OW63007   6.125   9.258   3.791  0.5530 -0.1674  0.2430
19740SOL    HW163008   6.072   9.182   3.768 -0.0736  0.8708 -2.0068
19740SOL    HW263009   6.063   9.330   3.797  1.1827  0.2809  1.9852
19741SOL     OW63010   7.547   0.631   1.040  0.1327  0.2387 -0.0763
19741SOL    HW163011   7.580   0.562   1.097  1.1890  0.3106 -0.5853
19741SOL    HW263012   7.452   0.631   1.056 -0.0045 -1.8137 -0.5814
19742SOL     OW63013   6.042   0.287   7.351 -0.1781  0.1135 -0.7722
19742SOL    HW163014   5.998   0.326   7.426 -0.4663 -0.6021 -0.5634
19742SOL    HW263015   5.974   0.239   7.305  0.1034  0.1294 -1.2135
19743SOL     OW63016   6.272   4.935   1.775  0.2617  0.0484 -0.7596
19743SOL    HW163017   6.212   4.904   1.707 -0.2709  0.5287 -0.5269
19743SOL    HW263018   6.337   4.866   1.784  0.0198 -0.2656 -1.3697
19744SOL     OW63019   1.753   1.786   1.407 -0.4994  0.5188 -0.1586
19744SOL    HW163020   1.818   1.720   1.431 -1.7100 -0.9567 -0.7603
19744SOL    HW263021   1.752   1.785   1.312 -1.4748  0.4190 -0.1601
19745SOL     OW63022   2.430   2.767   6.866  0.0179  0.4294  0.0936
19745SOL    HW163023   2.364   2.759   6.798  0.7831 -0.2952 -0.5858
19745SOL    HW263024   2.423   2.858   6.895 -1.2668  0.3626  0.0425
19746SOL     OW63025   8.507   7.992   9.312  0.0428  0.2391  0.2021
19746SOL    HW163026   8.418   8.027   9.313  0.0154  0.3357 -1.8132
19746SOL    HW263027   8.559   8.059   9.357 -0.9991 -0.2457  2.2247
19747SOL     OW63028   1.675   9.832   2.264 -0.3631  0.5377  0.4942
19747SOL    HW163029   1.635   9.898   2.321 -1.4177  1.6276 -1.4037
19747SOL    HW263030   1.672   9.871   2.176  2.1187 -0.6486 -0.1975
19748SOL     OW63031   7.347   0.299   1.647 -0.3334  0.5337 -0.1147
19748SOL    HW163032   7.422   0.335   1.601  0.1749 -1.0046 -0.5517
19748SOL    HW263033   7.349   0.206   1.626 -1.5654  0.2364  0.9871
19749SOL     OW63034   7.622   7.378   4.223  0.6270  0.3253 -0.3367
19749SOL    HW163035   7.608   7.420   4.138  1.0388  0.1361 -0.5017
19749SOL    HW263036   7.717   7.363   4.227  0.6375  0.5155  0.2400
19750SOL     OW63037   8.631   8.381   3.059  0.3183 -0.5804  0.2589
19750SOL    HW163038   8.697   8.451   3.055  0.3745 -0.6693 -0.5503
19750SOL    HW263039   8.669   8.316   3.118  1.0258 -0.6825 -0.2813
19751SOL     OW63040   5.392   3.822   8.031  0.0511 -0.3795 -0.1718
19751SOL    HW163041   5.377   3.733   8.063 -1.9728 -0.4409 -1.1619
19751SOL    HW263042   5.415   3.872   8.109 -1.5584 -1.1973  0.8752
19752SOL     OW63043   0.001   0.662   5.066  0.6069 -0.2775 -0.3078
19752SOL    HW163044  -0.038   0.576   5.082  1.0995 -0.3668  0.4566
19752SOL    HW263045  -0.047   0.696   4.990 -0.1806 -0.8531 -0.0829
19753SOL     OW63046   8.257   2.125   0.023 -0.6882 -0.4984  0.7215
19753SOL    HW163047   8.209   2.146  -0.057  0.2972 -1.6553 -0.2248
19753SOL    HW263048   8.203   2.061   0.068 -0.4224 -1.2316  0.0344
19754SOL     OW63049   2.850   0.998   6.462  0.6195  0.1659 -0.2823
19754SOL    HW163050   2.922   1.056   6.439  2.3934 -0.8894  2.2653
19754SOL    HW263051   2.886   0.910   6.453 -0.3261 -0.3855  1.0390
19755SOL     OW63052   8.501   4.557   5.911  0.0426  0.2190  0.1878
19755SOL    HW163053   8.408   4.545   5.891 -0.2780 -1.2062  2.1379
19755SOL    HW263054   8.507   4.647   5.943 -0.7595  0.2166  0.3852
19756SOL     OW63055   8.128   5.425   0.646 -0.0165  0.0328 -0.2597
19756SOL    HW163056   8.189   5.453   0.577 -0.3858  0.9344 -0.2388
19756SOL    HW263057   8.110   5.334   0.626 -1.1678  0.6240 -2.1866
19757SOL     OW63058   1.109   4.910   4.514  0.3669 -0.3441  0.2007
19757SOL    HW163059   1.073   4.831   4.473  1.2808 -0.9241  0.4687
19757SOL    HW263060   1.046   4.930   4.584  0.2596 -0.9995  0.3056
19758SOL     OW63061   6.879   6.935   8.415 -0.1714 -0.2187  0.3281
19758SOL    HW163062   6.964   6.914   8.377  0.4009 -0.1104  1.4966
19758SOL    HW263063   6.858   7.021   8.379  0.4801 -0.0025  0.4427
19759SOL     OW63064   8.478   1.759   6.419 -0.0487 -0.2624  0.4596
19759SOL    HW163065   8.555   1.785   6.367 -0.2334 -0.4799  0.0750
19759SOL    HW263066   8.443   1.842   6.451  1.1359 -0.2339  1.7962
19760SOL     OW63067   8.354   4.750   9.193 -0.1729  0.3285 -0.1025
19760SOL    HW163068   8.349   4.770   9.286 -0.4324 -0.2904  0.0236
19760SOL    HW263069   8.267   4.715   9.172  0.4786 -1.4004 -0.1219
19761SOL     OW63070   7.883   9.577   4.475  0.3085  0.4436 -0.6360
19761SOL    HW163071   7.903   9.595   4.567 -1.0495 -1.9138  0.2117
19761SOL    HW263072   7.946   9.509   4.449 -0.3767 -0.0862 -0.9306
19762SOL     OW63073   2.857   6.940   8.794  0.0318  0.4217  0.3772
19762SOL    HW163074   2.937   6.968   8.837 -0.2591  0.1320  1.1263
19762SOL    HW263075   2.809   7.020   8.777  0.6216  0.6263 -0.3788
19763SOL     OW63076   0.861   0.936  10.106  0.4160 -0.2788 -0.1480
19763SOL    HW163077   0.936   0.913  10.051  0.4243 -1.7066  0.4132
19763SOL    HW263078   0.876   0.887  10.187 -1.0630 -0.4875  0.0183
19764SOL     OW63079   1.787   0.975   2.221 -0.4576  0.3464  0.7303
19764SOL    HW163080   1.830   1.045   2.269 -1.8857  1.5900  0.2695
19764SOL    HW263081   1.696   1.004   2.213 -0.6737 -0.7076 -1.0514
19765SOL     OW63082   9.094   9.773   0.401 -0.0967 -0.3630  0.3282
19765SOL    HW163083   9.032   9.819   0.345  1.7879  0.3000 -1.3143
19765SOL    HW263084   9.135   9.709   0.343  0.0070 -1.5450  1.6543
19766SOL     OW63085   5.335   4.966   6.352 -0.1478  0.3950 -0.7801
19766SOL    HW163086   5.426   4.938   6.363  0.3434  2.4874  1.1678
19766SOL    HW263087   5.313   4.942   6.262  1.4652 -2.4336 -0.5480
19767SOL     OW63088   4.089  10.148   9.405 -0.2636  0.4732 -0.1071
19767SOL    HW163089   4.085  10.211   9.477  1.3415  1.3665 -0.7515
19767SOL    HW263090   4.078  10.201   9.326  1.7046  0.0680 -0.6955
19768SOL     OW63091   8.274   9.430   4.758  0.2420  0.1018  0.2824
19768SOL    HW163092   8.305   9.506   4.807  3.7020 -0.1494 -1.2283
19768SOL    HW263093   8.238   9.372   4.826 -0.5917  2.1873  1.7125
19769SOL     OW63094   4.234   0.084   8.949 -0.3637  0.1136 -0.7864
19769SOL    HW163095   4.255   0.137   8.873 -3.9390  2.5336 -0.2978
19769SOL    HW263096   4.230   0.146   9.022 -0.2891 -1.6111  0.7759
19770SOL     OW63097   3.909   4.913   1.094  0.4285  0.2148  0.0787
19770SOL    HW163098   3.967   4.985   1.070 -0.2703  1.2063  1.2445
19770SOL    HW263099   3.823   4.940   1.061  0.0443  0.2070  1.0521
19771SOL     OW63100   1.706   5.799   8.447 -0.0875  0.0734  0.1033
19771SOL    HW163101   1.630   5.822   8.394  0.5297  0.2968 -0.6995
19771SOL    HW263102   1.685   5.832   8.535 -0.0929  1.9250 -0.5538
19772SOL     OW63103   8.357   2.802   9.999  0.2984  0.1856  0.5133
19772SOL    HW163104   8.307   2.868   9.950 -1.0427  0.1359  1.7446
19772SOL    HW263105   8.380   2.736   9.933  0.5595  1.2415 -0.4868
19773SOL     OW63106   1.483   8.085   4.630 -0.5883  0.0129 -0.1698
19773SOL    HW163107   1.412   8.058   4.571 -0.5201  0.0927 -0.2907
19773SOL    HW263108   1.444   8.087   4.717 -0.6462 -0.2765 -0.1890
19774SOL     OW63109   8.309   7.269   8.738 -0.0891 -0.1402  0.1914
19774SOL    HW163110   8.260   7.194   8.771  0.2750  0.5820  2.6034
19774SOL    HW263111   8.400   7.241   8.738 -0.0913 -0.1512 -0.2804
19775SOL     OW63112   8.851   1.647   2.931  0.1238 -0.5723  0.1078
19775SOL    HW163113   8.793   1.596   2.987 -2.1951  2.3228  0.5697
19775SOL    HW263114   8.843   1.607   2.844  0.1812 -2.2807  0.8517
19776SOL     OW63115   9.725   3.372   7.351  0.1626  0.3538 -0.1945
19776SOL    HW163116   9.674   3.451   7.366  2.6240  1.9335  0.4108
19776SOL    HW263117   9.730   3.363   7.256 -0.1142  0.9207 -0.2620
19777SOL     OW63118   2.822   2.937   9.355 -0.9052 -0.4666  0.2039
19777SOL    HW163119   2.873   2.859   9.378 -1.0965 -0.1944  1.5895
19777SOL    HW263120   2.832   2.996   9.429 -0.3733  1.0585 -1.0287
19778SOL     OW63121   5.738   1.573   9.740 -0.4057  0.4297 -0.1854
19778SOL    HW163122   5.825   1.602   9.769 -0.2532  0.1498 -0.3521
19778SOL    HW263123   5.688   1.654   9.730  0.3450  0.7368 -1.7328
19779SOL     OW63124   7.351   6.313   0.707  0.0924  0.1381  0.5372
19779SOL    HW163125   7.379   6.221   0.715  0.2580  0.1593  0.2264
19779SOL    HW263126   7.303   6.315   0.624  1.8800  0.7703 -0.5405
19780SOL     OW63127   6.415   3.100   4.010 -0.0724  0.5210 -0.0489
19780SOL    HW163128   6.369   3.119   4.092  0.9316 -0.8011  0.8639
19780SOL    HW263129   6.350   3.053   3.958 -0.5184  0.8011  0.2373
19781SOL     OW63130  10.080   3.386   6.159 -0.3913  0.0877 -0.8002
19781SOL    HW163131  10.149   3.327   6.191  0.2533  0.7659 -0.9209
19781SOL    HW263132  10.003   3.363   6.211 -0.0286 -0.5530 -0.5341
19782SOL     OW63133   0.438   7.090   2.974  0.2693  0.0410 -0.4020
19782SOL    HW163134   0.462   7.120   2.886  0.8357  1.0469  0.0839
19782SOL    HW263135   0.518   7.049   3.008  0.0826 -0.2498 -0.3127
19783SOL     OW63136   7.261   0.732  10.128  0.2569  0.4482 -0.6058
19783SOL    HW163137   7.274   0.652  10.078 -3.0451  0.0992 -1.1820
19783SOL    HW263138   7.255   0.801  10.062 -0.5569  0.5401 -0.4569
19784SOL     OW63139   3.241   1.505   7.848 -0.1627  0.2594  0.5029
19784SOL    HW163140   3.244   1.447   7.924 -1.8140  1.0257  1.2065
19784SOL    HW263141   3.148   1.518   7.831  0.1691  1.3335 -0.7089
19785SOL     OW63142   3.620   4.428   5.511 -0.0948 -0.3895 -0.1821
19785SOL    HW163143   3.675   4.456   5.584 -0.8511 -0.5383  0.4436
19785SOL    HW263144   3.680   4.377   5.456  1.6701  3.1905 -1.9566
19786SOL     OW63145   7.318   1.391   2.135  0.0255 -0.4806 -0.2020
19786SOL    HW163146   7.272   1.472   2.155 -0.8611 -1.0127 -0.0477
19786SOL    HW263147   7.307   1.380   2.040  2.5889  1.0365 -0.7824
19787SOL     OW63148   0.581   4.509   8.461 -0.2455  0.0164 -0.4466
19787SOL    HW163149   0.600   4.603   8.463  0.8847 -0.1763 -0.8928
19787SOL    HW263150   0.627   4.474   8.537 -1.7942 -0.0120  0.5090
19788SOL     OW63151   9.235   3.291   8.123 -0.1840 -0.3510  0.6293
19788SOL    HW163152   9.252   3.372   8.074  1.1396 -1.3897 -0.7039
19788SOL    HW263153   9.190   3.234   8.061 -1.1223 -0.6680  1.5617
19789SOL     OW63154  10.196   4.198   5.188 -0.1008  0.4049  0.2322
19789SOL    HW163155  10.215   4.282   5.230  1.6520  0.5292 -0.7333
19789SOL    HW263156  10.114   4.214   5.141  0.3234  1.6555 -0.1234
19790SOL     OW63157   8.460   4.074   9.497 -0.9352  0.4800 -0.0369
19790SOL    HW163158   8.539   4.066   9.550 -1.4807  2.0553  1.1210
19790SOL    HW263159   8.393   4.102   9.560 -2.2549 -0.1504 -1.1101
19791SOL     OW63160   3.445   2.773   9.479  0.3723  0.3170  0.4980
19791SOL    HW163161   3.465   2.811   9.393 -1.7472 -0.4349 -0.4175
19791SOL    HW263162   3.399   2.843   9.525 -1.2290 -0.2080 -0.2103
19792SOL     OW63163   7.525   5.396   3.749  0.1327 -0.7408 -0.0630
19792SOL    HW163164   7.432   5.375   3.748  0.2386 -1.3337  0.8715
19792SOL    HW263165   7.538   5.445   3.830  0.5160 -0.0360 -0.5369
19793SOL     OW63166   0.513  10.154   7.115  0.3994  0.0554 -0.1972
19793SOL    HW163167   0.498  10.097   7.039 -0.5453  0.2723 -0.1940
19793SOL    HW263168   0.471  10.237   7.092  0.7668  0.3740  0.2558
19794SOL     OW63169   8.840   8.280   8.480  0.3616  0.3678 -0.0506
19794SOL    HW163170   8.750   8.312   8.485  0.3433  0.2401  0.5999
19794SOL    HW263171   8.889   8.338   8.538  1.0402  1.4896 -1.6663
19795SOL     OW63172   7.417   5.853   5.577  0.0979 -0.1140 -0.1053
19795SOL    HW163173   7.460   5.852   5.663  1.8791 -0.4232 -0.9436
19795SOL    HW263174   7.463   5.921   5.528 -1.0943  0.2608 -0.7384
19796SOL     OW63175   3.984   1.185   4.997  0.1644 -0.2581 -0.0189
19796SOL    HW163176   3.889   1.176   5.001 -0.1026  1.5137 -1.4537
19796SOL    HW263177   4.010   1.202   5.088 -0.5533 -2.9880  0.7928
19797SOL     OW63178   2.068   1.788   7.818 -0.0927  0.0194 -0.2822
19797SOL    HW163179   2.000   1.844   7.856  1.0891  2.0573 -1.0739
19797SOL    HW263180   2.149   1.838   7.827  1.7490 -3.0622  2.2640
19798SOL     OW63181   8.849   3.348   6.454  0.1840 -0.2711 -0.3415
19798SOL    HW163182   8.785   3.282   6.428 -1.5621  1.3567 -0.4539
19798SOL    HW263183   8.900   3.365   6.375 -1.4583  0.7158 -1.2506
19799SOL     OW63184   2.277   0.015   6.381  0.1344 -0.0108 -0.1683
19799SOL    HW163185   2.220   0.013   6.459 -0.2448 -1.1667 -0.4512
19799SOL    HW263186   2.363  -0.009   6.414 -0.2488 -1.6031 -0.2512
19800SOL     OW63187   1.046   4.390   9.953  0.3440 -0.0391 -0.1680
19800SOL    HW163188   0.991   4.420  10.025 -0.5472 -2.1784  0.1241
19800SOL    HW263189   1.118   4.342   9.996  0.1202 -0.8313 -0.6566
19801SOL     OW63190   3.674   6.450   6.983  0.0933  0.3336  0.4722
19801SOL    HW163191   3.647   6.374   6.931 -0.7896  0.6593  0.4265
19801SOL    HW263192   3.770   6.448   6.981  0.1032  0.5319 -1.4901
19802SOL     OW63193   1.376   4.704   1.692 -0.3487 -0.3885  0.7006
19802SOL    HW163194   1.364   4.643   1.618 -0.7739  2.1831 -1.5107
19802SOL    HW263195   1.380   4.790   1.651  1.4708  1.0393  3.5700
19803SOL     OW63196   1.895   0.527   1.175 -0.2463 -0.0030  0.4766
19803SOL    HW163197   1.987   0.543   1.155  0.1799 -2.1957  0.3648
19803SOL    HW263198   1.891   0.526   1.271 -0.1351  0.0172  0.4815
19804SOL     OW63199   1.275   0.509   7.638 -0.3640  0.2441  0.5330
19804SOL    HW163200   1.200   0.458   7.669  0.6369 -0.3072  2.1743
19804SOL    HW263201   1.236   0.586   7.597 -1.9069 -1.5516 -1.6132
19805SOL     OW63202   6.708   7.297   2.404 -0.1619  0.8811  0.0840
19805SOL    HW163203   6.627   7.277   2.451 -0.0915  1.6008  0.5282
19805SOL    HW263204   6.774   7.305   2.472  0.5151 -0.6748 -0.3460
19806SOL     OW63205   9.291   1.667   9.544 -0.2262  0.7979 -0.3075
19806SOL    HW163206   9.323   1.747   9.502  2.4193  0.5713  1.0902
19806SOL    HW263207   9.319   1.596   9.485  2.2402  0.5835  1.0183
19807SOL     OW63208   1.092   9.884   3.884  0.8422 -0.2271 -0.8002
19807SOL    HW163209   1.118   9.852   3.798 -0.4067  0.4343 -1.4507
19807SOL    HW263210   1.065   9.806   3.932  0.4495 -0.4775 -1.4147
19808SOL     OW63211   0.283   5.859   9.831 -0.4338  0.2370  0.2721
19808SOL    HW163212   0.255   5.939   9.874  0.1466  0.5721  0.0394
19808SOL    HW263213   0.377   5.871   9.817 -0.6409  0.2488 -1.3258
19809SOL     OW63214   3.796   8.180   3.770 -0.1944 -0.2004 -0.2909
19809SOL    HW163215   3.758   8.258   3.729 -1.1502 -0.4792  0.0296
19809SOL    HW263216   3.720   8.127   3.795  0.4335 -1.0359 -0.1220
19810SOL     OW63217   5.401   1.245   1.723 -0.2436  0.0517  0.0867
19810SOL    HW163218   5.401   1.326   1.775 -1.2239 -1.4295  2.5649
19810SOL    HW263219   5.313   1.240   1.687 -0.9644 -0.9874  1.8655
19811SOL     OW63220   9.382   0.292   3.616  0.3855  0.6998  0.1675
19811SOL    HW163221   9.383   0.225   3.685  0.8107  1.4003  0.8561
19811SOL    HW263222   9.441   0.258   3.549 -1.2016 -0.7307 -0.6155
19812SOL     OW63223  10.063   9.886   6.490  0.0566 -0.2612  0.1832
19812SOL    HW163224  10.035   9.803   6.529 -0.7739  0.5159  1.2928
19812SOL    HW263225   9.988   9.945   6.503 -0.3913 -0.0255 -2.8871
19813SOL     OW63226   7.675   6.205   4.974  0.3309  0.2705  0.5672
19813SOL    HW163227   7.609   6.189   5.041  0.9268  0.9053  1.3230
19813SOL    HW263228   7.646   6.154   4.898 -1.6914  1.5037  0.4471
19814SOL     OW63229   7.292   7.382   6.903 -0.6729 -0.5944 -0.4257
19814SOL    HW163230   7.344   7.382   6.983  1.5269  1.1682 -1.7245
19814SOL    HW263231   7.216   7.327   6.923 -0.4967  0.2110  2.9989
19815SOL     OW63232   7.592  10.079   4.600  0.0083  0.2310 -0.3299
19815SOL    HW163233   7.671  10.027   4.616 -0.5647 -0.6461 -0.2685
19815SOL    HW263234   7.527  10.015   4.571 -0.6902  0.9357 -0.3524
19816SOL     OW63235   6.949   0.575   5.482 -0.0638 -0.1668 -0.2069
19816SOL    HW163236   6.944   0.572   5.577  1.5776 -0.4187 -0.0908
19816SOL    HW263237   6.969   0.666   5.462 -2.1760  0.2903 -0.4698
19817SOL     OW63238   8.592   7.075   5.564 -0.3959  0.1177  0.7483
19817SOL    HW163239   8.676   7.060   5.520  0.3758  1.0916  1.8445
19817SOL    HW263240   8.585   7.004   5.628 -0.2411  0.2390  0.8996
19818SOL     OW63241   0.574   7.847   2.471  0.0989 -0.1999 -0.2966
19818SOL    HW163242   0.504   7.821   2.532  0.3222 -1.2476 -0.4598
19818SOL    HW263243   0.651   7.859   2.526 -0.0664  0.3998 -0.1873
19819SOL     OW63244   7.801   8.273   8.281  0.0597 -0.2549  0.2101
19819SOL    HW163245   7.745   8.293   8.206  0.4665 -1.3956 -0.4235
19819SOL    HW263246   7.861   8.347   8.287 -0.3222  0.0978 -0.2569
19820SOL     OW63247   8.028   9.216   7.196  0.4130 -0.5621  0.1859
19820SOL    HW163248   7.970   9.282   7.158 -1.1488 -0.1981  2.9116
19820SOL    HW263249   8.082   9.265   7.259  2.0433 -1.2932 -0.5989
19821SOL     OW63250  10.022   5.775   6.041  0.1026 -0.0246 -0.3634
19821SOL    HW163251  10.051   5.686   6.063  0.4237  0.1907  0.0997
19821SOL    HW263252  10.056   5.790   5.953 -0.2564 -0.4912 -0.5820
19822SOL     OW63253   3.367   8.932   8.445  0.0997 -0.1345  0.2911
19822SOL    HW163254   3.367   8.845   8.486  0.3549 -0.7065 -0.8819
19822SOL    HW263255   3.342   8.991   8.515 -1.0264 -1.2717  0.8997
19823SOL     OW63256   5.640   5.496  10.353  0.7367  0.8017 -0.0745
19823SOL    HW163257   5.715   5.451  10.317 -0.5042 -1.1210 -0.3895
19823SOL    HW263258   5.621   5.566  10.290  0.5983 -0.4298 -1.4425
19824SOL     OW63259   2.230   5.918   1.366 -0.4545 -0.1547  0.4779
19824SOL    HW163260   2.232   6.007   1.331  0.0888 -0.2004  0.3849
19824SOL    HW263261   2.147   5.882   1.333  0.3725 -0.4516 -1.4328
19825SOL     OW63262   0.050   2.911   8.805 -0.6854  0.1864  0.3718
19825SOL    HW163263   0.004   2.958   8.735 -0.0393 -1.2251 -1.0700
19825SOL    HW263264   0.143   2.929   8.789 -0.4547 -1.1360  0.0608
19826SOL     OW63265   5.428   8.323   7.552  0.5926 -0.5540 -0.0473
19826SOL    HW163266   5.469   8.347   7.635  1.0511  0.5510 -0.5644
19826SOL    HW263267   5.474   8.376   7.487 -1.1837  0.1923 -0.7460
19827SOL     OW63268   9.752   5.853   1.917  0.8552  0.2381 -0.0784
19827SOL    HW163269   9.743   5.846   1.822  0.6528  1.6166 -0.1740
19827SOL    HW263270   9.731   5.765   1.949  2.0927 -0.5701 -1.3767
19828SOL     OW63271   1.192   5.517   7.822  0.2288 -0.1799 -0.2043
19828SOL    HW163272   1.241   5.513   7.739  0.5858 -0.3831  0.0158
19828SOL    HW263273   1.143   5.598   7.816 -0.1650 -0.4530 -0.8550
19829SOL     OW63274   4.417  10.018   3.791  0.6699 -0.3468 -0.1321
19829SOL    HW163275   4.360   9.970   3.851 -0.8515  0.1432 -1.1339
19829SOL    HW263276   4.441   9.953   3.725 -0.4693 -0.0606 -0.8615
19830SOL     OW63277   8.662   2.614   5.181 -0.6111 -0.0423 -0.5253
19830SOL    HW163278   8.608   2.613   5.103 -0.8227  0.0332 -0.3813
19830SOL    HW263279   8.637   2.694   5.227 -0.6687 -0.2108 -0.2561
19831SOL     OW63280   3.262   4.956   8.800  0.2565  0.6465  0.1362
19831SOL    HW163281   3.258   4.958   8.896 -0.8986  1.2257  0.0851
19831SOL    HW263282   3.191   5.012   8.771 -1.1461 -1.6099 -1.0854
19832SOL     OW63283   8.883   8.179   8.182  0.1522 -0.7098 -0.2891
19832SOL    HW163284   8.817   8.229   8.134  2.2915  2.7247  0.0270
19832SOL    HW263285   8.891   8.224   8.266  2.5586 -1.2466 -0.1460
19833SOL     OW63286   5.940   0.427   6.232  0.4044  0.5879  0.1371
19833SOL    HW163287   5.966   0.475   6.311  1.6236  0.4262 -0.1335
19833SOL    HW263288   5.928   0.495   6.166  1.2494  0.6060 -0.0138
19834SOL     OW63289  10.282   7.063   4.370 -0.1126 -0.3545  0.1639
19834SOL    HW163290  10.252   6.988   4.318 -0.8284  0.3368 -0.4515
19834SOL    HW263291  10.376   7.049   4.380 -0.5587 -2.5344  2.0541
19835SOL     OW63292   3.149   2.818   8.193  0.3870 -0.6929  0.1774
19835SOL    HW163293   3.106   2.849   8.113 -0.7375  0.2350  1.0951
19835SOL    HW263294   3.237   2.795   8.166 -0.1355 -0.9225 -1.4326
19836SOL     OW63295   7.764   9.651   7.770 -0.3519  0.3423  0.2911
19836SOL    HW163296   7.851   9.660   7.731 -0.5741  1.1759 -0.0259
19836SOL    HW263297   7.737   9.740   7.790 -1.8390  0.2815 -1.1969
19837SOL     OW63298   9.264   1.887   4.807 -0.2182  0.0707  0.2593
19837SOL    HW163299   9.204   1.871   4.734 -0.4176 -1.9270  0.8014
19837SOL    HW263300   9.261   1.807   4.859  1.9284  0.4242  1.0428
19838SOL     OW63301   3.223   9.235   1.900 -0.1376 -0.5128 -0.4491
19838SOL    HW163302   3.314   9.204   1.903 -1.0243 -3.3056  0.4383
19838SOL    HW263303   3.208   9.258   1.808  0.3891 -3.7250 -1.4417
19839SOL     OW63304   8.040  10.265   6.788  0.2580 -0.1847 -0.2475
19839SOL    HW163305   8.088  10.234   6.712  2.7111  0.3119  1.0054
19839SOL    HW263306   8.067  10.356   6.799  0.0656 -0.2827  1.2946
19840SOL     OW63307   6.597   2.529   0.077  0.1522 -0.3021  0.8830
19840SOL    HW163308   6.557   2.473   0.011  0.2119 -1.5710  1.8941
19840SOL    HW263309   6.682   2.489   0.095  0.3059  0.2518  1.4544
19841SOL     OW63310   0.047  10.058   3.858 -0.3734  0.4785 -0.1529
19841SOL    HW163311  -0.026  10.001   3.883 -0.2268  0.3338 -0.0542
19841SOL    HW263312   0.008  10.120   3.796 -0.2828 -0.4643 -1.1819
19842SOL     OW63313   4.701   9.777   1.098  0.1574 -0.0676  0.0693
19842SOL    HW163314   4.766   9.846   1.100 -0.4264  0.4829  0.8743
19842SOL    HW263315   4.631   9.808   1.156 -1.2921 -0.1759 -1.5292
19843SOL     OW63316   4.453   5.983   7.314 -0.3604 -0.1754  0.3727
19843SOL    HW163317   4.390   5.979   7.242 -0.4430  1.9705  0.2421
19843SOL    HW263318   4.400   6.002   7.391 -0.0970 -0.6996  0.6839
19844SOL     OW63319   3.636   1.817   5.158 -0.0009 -0.1652  0.1521
19844SOL    HW163320   3.691   1.804   5.081 -0.0620  0.2175  0.0408
19844SOL    HW263321   3.549   1.788   5.131 -0.3899  1.4582 -0.4588
19845SOL     OW63322   0.874   4.799   0.789  0.2493 -0.5668  0.1898
19845SOL    HW163323   0.823   4.879   0.780 -0.9121 -1.3472 -0.4290
19845SOL    HW263324   0.963   4.829   0.810 -0.5763  0.7917  1.9633
19846SOL     OW63325   0.889   1.241   9.110  0.2168  0.1792  0.2397
19846SOL    HW163326   0.938   1.324   9.102  1.8805 -0.7723  0.1007
19846SOL    HW263327   0.905   1.213   9.200 -0.0444 -0.1578  0.1822
19847SOL     OW63328   2.509   7.661   3.543  0.3994 -0.5017 -0.5397
19847SOL    HW163329   2.539   7.693   3.629  0.3928 -0.2973 -0.6143
19847SOL    HW263330   2.568   7.702   3.480  0.7784 -1.1124 -0.5922
19848SOL     OW63331   6.378  10.140   0.389 -0.0703  0.0072 -0.2029
19848SOL    HW163332   6.418  10.072   0.336 -0.3342 -1.7321  1.7149
19848SOL    HW263333   6.353  10.096   0.470 -1.1185  2.1905  0.7450
19849SOL     OW63334   0.141   8.329   5.186 -0.3571 -0.3957  0.1117
19849SOL    HW163335   0.154   8.367   5.099 -0.0898  0.3181  0.4595
19849SOL    HW263336   0.060   8.369   5.218  0.7447  1.1415  1.1235
19850SOL     OW63337   7.995   9.737   4.264 -0.2312 -0.0787 -0.2461
19850SOL    HW163338   7.933   9.705   4.329  2.0110 -3.8346  0.3681
19850SOL    HW263339   7.977   9.685   4.185 -1.5084  2.9189 -2.1437
19851SOL     OW63340   5.639   4.480   6.619  0.7088 -0.0705  0.2881
19851SOL    HW163341   5.733   4.490   6.603  0.7442 -0.2666  0.3755
19851SOL    HW263342   5.604   4.569   6.618  0.6800 -0.0731 -1.1096
19852SOL     OW63343   9.795   9.331   5.774 -0.1008  0.0106  0.1206
19852SOL    HW163344   9.863   9.326   5.842  0.4585  0.0909 -0.4189
19852SOL    HW263345   9.740   9.255   5.790 -0.3022  0.3322  1.0023
19853SOL     OW63346   4.477   5.852   8.453  0.1527 -0.1248  0.3454
19853SOL    HW163347   4.448   5.874   8.365  0.0159 -1.3176  0.0696
19853SOL    HW263348   4.510   5.934   8.489 -0.1767  0.4685 -0.6599
19854SOL     OW63349   2.198   3.226   5.599  0.7523  0.0287  0.3783
19854SOL    HW163350   2.242   3.305   5.629 -1.9038  1.1557  1.6957
19854SOL    HW263351   2.249   3.196   5.524  2.3003  2.5328  0.3296
19855SOL     OW63352   1.238   1.901   8.575  0.2783 -0.2451 -0.3830
19855SOL    HW163353   1.182   1.977   8.561 -1.3079 -1.1051  0.8715
19855SOL    HW263354   1.212   1.838   8.507  0.2055 -0.3779 -0.2343
19856SOL     OW63355   9.463   0.795   3.291  0.8173  0.2508  0.0989
19856SOL    HW163356   9.426   0.776   3.205  0.6826 -2.5488  0.7036
19856SOL    HW263357   9.397   0.850   3.334 -1.4280 -2.2943  0.1241
19857SOL     OW63358   2.381   4.497   0.716  0.0854  0.0429  0.0677
19857SOL    HW163359   2.377   4.593   0.716 -0.9749  0.0260 -0.9787
19857SOL    HW263360   2.327   4.471   0.791 -1.6110  0.2552 -1.0274
19858SOL     OW63361   2.640   8.413   6.073  0.0501 -0.0719  0.3138
19858SOL    HW163362   2.657   8.376   6.160  0.6480  0.7374  0.5458
19858SOL    HW263363   2.591   8.493   6.089 -1.3737 -0.8023 -0.2004
19859SOL     OW63364   8.277   0.529   8.748 -0.4510  0.4413  0.2206
19859SOL    HW163365   8.238   0.485   8.824 -0.4571  2.7253  1.6461
19859SOL    HW263366   8.369   0.540   8.771 -0.5174  1.4330  0.0620
19860SOL     OW63367   4.431   3.319   9.347 -0.4555 -0.2188  0.0236
19860SOL    HW163368   4.425   3.225   9.326  0.6188 -0.3269  0.1716
19860SOL    HW263369   4.524   3.339   9.340 -0.8720  1.3255 -2.0226
19861SOL     OW63370   6.848   0.678   3.862  0.1276  0.2000  0.0146
19861SOL    HW163371   6.886   0.591   3.848 -0.6946 -0.2196  0.3153
19861SOL    HW263372   6.849   0.689   3.957  1.3169  1.0294 -0.0801
19862SOL     OW63373   4.461   0.685   4.184  0.3626  0.0233 -0.4488
19862SOL    HW163374   4.486   0.777   4.194  0.6348 -0.1809  0.8821
19862SOL    HW263375   4.370   0.688   4.153 -0.4065  0.7777  1.6834
19863SOL     OW63376   7.237   5.222   3.989  0.2060  0.3310  0.1228
19863SOL    HW163377   7.154   5.225   4.036  0.3427 -1.3470  0.5671
19863SOL    HW263378   7.301   5.195   4.056  0.7010 -0.4790 -0.6447
19864SOL     OW63379   1.722   1.651   1.146 -0.6661  0.2978 -0.2334
19864SOL    HW163380   1.661   1.724   1.140 -1.1366  0.3481  3.3185
19864SOL    HW263381   1.668   1.576   1.169  0.2904 -0.2060  0.4456
19865SOL     OW63382   3.764  10.172   2.675 -0.5972 -0.3329 -0.1549
19865SOL    HW163383   3.701  10.118   2.723  0.8156 -0.2340  1.9449
19865SOL    HW263384   3.799  10.113   2.608 -0.6737 -1.3542  0.6722
19866SOL     OW63385   0.847   7.544   4.272  0.0696  0.9197  0.4181
19866SOL    HW163386   0.878   7.523   4.360 -0.6204 -2.7587 -0.0695
19866SOL    HW263387   0.920   7.520   4.215  0.5562  3.3889 -0.1347
19867SOL     OW63388   8.744   5.222   0.229 -0.5024  0.3766 -0.9363
19867SOL    HW163389   8.771   5.163   0.298 -1.6386 -0.3325 -1.0669
19867SOL    HW263390   8.648   5.218   0.230 -0.6950  3.0494 -0.2371
19868SOL     OW63391   5.041   0.183   4.603  0.1995 -0.8824  0.2662
19868SOL    HW163392   5.032   0.158   4.511  1.2420 -0.3738  0.0055
19868SOL    HW263393   5.040   0.278   4.602  3.9863 -0.6878  0.2448
19869SOL     OW63394   1.314  10.344   9.460  0.4976 -0.1454 -0.3378
19869SOL    HW163395   1.282  10.356   9.549  1.1673  1.2668 -0.2501
19869SOL    HW263396   1.403  10.311   9.470  0.6314  0.1663 -0.4697
19870SOL     OW63397   1.634   3.810   4.807  1.0533 -0.2725  0.0064
19870SOL    HW163398   1.639   3.846   4.718 -1.6364  0.2551 -0.0188
19870SOL    HW263399   1.626   3.716   4.794  2.4227 -0.3744 -0.2006
19871SOL     OW63400   6.402   4.390   4.156  0.3521  0.3990  0.1143
19871SOL    HW163401   6.414   4.431   4.242 -0.7020  2.2718 -0.5732
19871SOL    HW263402   6.434   4.300   4.168  3.6544  1.5697  1.5054
19872SOL     OW63403   2.151   7.695   5.254 -0.1868 -0.2123  0.4606
19872SOL    HW163404   2.091   7.623   5.232 -0.0910 -0.0136 -0.5241
19872SOL    HW263405   2.237   7.654   5.259  0.1855  0.0813 -2.0533
19873SOL     OW63406   8.619   2.598   8.518 -0.2660 -0.6034 -0.4828
19873SOL    HW163407   8.669   2.675   8.493  0.8096 -1.1737 -0.1524
19873SOL    HW263408   8.630   2.537   8.444  1.0239 -1.4069  0.3304
19874SOL     OW63409   9.248   4.778   4.123  0.4927 -0.3831  0.0667
19874SOL    HW163410   9.333   4.815   4.097 -0.0686 -0.6831 -2.4616
19874SOL    HW263411   9.253   4.686   4.096 -1.2687  0.0368 -1.9581
19875SOL     OW63412   3.693   0.580   8.430  0.0434  0.1461 -0.3109
19875SOL    HW163413   3.727   0.610   8.346 -0.9381  1.0597 -0.4010
19875SOL    HW263414   3.655   0.658   8.470 -0.6897 -0.5449  0.3796
19876SOL     OW63415   8.222   1.126   2.362  0.7805  0.0672  0.2127
19876SOL    HW163416   8.220   1.030   2.356 -1.4044 -0.0679  1.9499
19876SOL    HW263417   8.140   1.149   2.404  0.8890  2.8147 -0.8931
19877SOL     OW63418   3.239   8.816   4.403  0.1051 -0.1422  0.5605
19877SOL    HW163419   3.276   8.857   4.482  1.2230  0.1312 -0.0779
19877SOL    HW263420   3.150   8.850   4.397  0.7518  1.6563  0.4575
19878SOL     OW63421   1.861   4.855   0.232 -0.8494 -0.1964  0.1126
19878SOL    HW163422   1.924   4.791   0.266 -0.9534  0.7307  2.2234
19878SOL    HW263423   1.777   4.809   0.233 -0.7732 -0.3360  0.7401
19879SOL     OW63424   3.447   4.100   1.430  0.2603  0.3207  0.3881
19879SOL    HW163425   3.400   4.182   1.421 -0.2916 -0.0211  0.0785
19879SOL    HW263426   3.412   4.060   1.510 -2.3949 -1.4332 -1.4907
19880SOL     OW63427   4.071   3.271  10.151 -0.3541  0.0417 -0.0258
19880SOL    HW163428   4.144   3.287  10.211 -1.1865  1.6933  0.6157
19880SOL    HW263429   3.996   3.254  10.207 -0.6167 -1.0142 -0.6705
19881SOL     OW63430   3.282   4.094   9.960  0.1535  0.5756 -0.6145
19881SOL    HW163431   3.364   4.058   9.994 -0.8765 -1.2983  0.0283
19881SOL    HW263432   3.223   4.018   9.954 -2.2790  2.1558  1.1884
19882SOL     OW63433   7.318   1.139   6.169 -0.1226 -0.2284  0.7374
19882SOL    HW163434   7.341   1.050   6.143  0.3219 -0.3954  1.6687
19882SOL    HW263435   7.394   1.170   6.219 -0.4184  0.5449  0.7217
19883SOL     OW63436   2.140   9.012   3.862  0.0308  0.1057 -0.0448
19883SOL    HW163437   2.119   8.948   3.930 -4.5835 -0.3839 -1.5321
19883SOL    HW263438   2.129   9.097   3.904 -1.2720 -0.1965  0.2881
19884SOL     OW63439   8.242   4.609   1.855  0.0835 -0.0657  0.1485
19884SOL    HW163440   8.326   4.605   1.901  0.1224  0.0742  0.0896
19884SOL    HW263441   8.220   4.517   1.838  0.6921 -0.0645 -0.6821
19885SOL     OW63442   9.859   7.290  10.353 -0.0392 -0.0336 -0.8799
19885SOL    HW163443   9.807   7.212  10.372 -0.3406 -0.1647 -2.1107
19885SOL    HW263444   9.843   7.307  10.260 -0.2988  1.7397 -0.5586
19886SOL     OW63445   2.615   9.841   0.484 -0.2157  0.0299 -0.0968
19886SOL    HW163446   2.581   9.879   0.565  1.4881 -1.8148  1.6256
19886SOL    HW263447   2.691   9.895   0.463  0.7387 -0.8380  0.9501
19887SOL     OW63448   5.135   5.778   0.955  0.0546  0.9443  0.0196
19887SOL    HW163449   5.105   5.819   0.874  0.7315 -0.5968 -1.0665
19887SOL    HW263450   5.186   5.845   0.999  1.2747  1.2633 -1.7680
19888SOL     OW63451   7.181  10.140   4.115  0.1447 -0.1500 -0.2652
19888SOL    HW163452   7.205  10.128   4.207  0.6675 -2.9858 -0.6585
19888SOL    HW263453   7.136  10.058   4.092  1.5368 -0.2603 -2.9296
19889SOL     OW63454   6.524   8.121   7.759  0.5104 -0.1974 -0.0445
19889SOL    HW163455   6.531   8.061   7.833  0.3331  1.6354  1.5235
19889SOL    HW263456   6.593   8.185   7.773 -0.6813  1.2350 -0.4624
19890SOL     OW63457   6.032   1.570   9.080 -0.1482 -0.0861  0.1338
19890SOL    HW163458   5.939   1.549   9.089 -0.0600  0.1163  1.9505
19890SOL    HW263459   6.071   1.491   9.043 -0.9576 -0.3413 -0.1930
19891SOL     OW63460   9.523   9.693   9.328 -0.7102 -0.4800 -0.0946
19891SOL    HW163461   9.597   9.634   9.321 -1.2314 -1.1689  0.0617
19891SOL    HW263462   9.450   9.644   9.289 -1.3766 -0.3430  0.9434
19892SOL     OW63463   1.520   7.203   1.378 -0.5746 -0.3612 -0.2058
19892SOL    HW163464   1.461   7.190   1.452 -1.6376  2.3020 -0.4964
19892SOL    HW263465   1.492   7.138   1.313 -0.8538 -1.4530  0.9605
19893SOL     OW63466   7.097   7.804   9.587  0.4399  0.4547  0.0231
19893SOL    HW163467   7.020   7.839   9.631  0.4876  0.1396  0.3645
19893SOL    HW263468   7.101   7.712   9.614  2.2784  1.0131  1.9967
19894SOL     OW63469   0.446   5.937   2.243  0.3406  0.1890  0.0972
19894SOL    HW163470   0.426   5.844   2.251 -0.4625  0.4590  1.3843
19894SOL    HW263471   0.487   5.944   2.156 -0.4212 -1.2031 -0.4235
19895SOL     OW63472   9.584   6.283   1.093 -0.0790 -0.0435 -0.1423
19895SOL    HW163473   9.649   6.248   1.032  1.5862  1.6606  0.5636
19895SOL    HW263474   9.630   6.352   1.140 -2.6426  1.8463 -0.1866
19896SOL     OW63475   0.786   1.298   4.002  0.0914  0.1324  0.3273
19896SOL    HW163476   0.862   1.347   4.031  0.2940  1.7381 -2.5309
19896SOL    HW263477   0.822   1.222   3.956 -0.0776  0.0957  0.2528
19897SOL     OW63478   5.988   9.882   3.123 -0.0716  0.5228 -0.2717
19897SOL    HW163479   5.950   9.913   3.040 -0.9766  0.1411 -0.0152
19897SOL    HW263480   5.932   9.920   3.191  0.7645  0.9689  0.1838
19898SOL     OW63481   7.797   2.055   9.362 -0.3813  0.7804 -0.2639
19898SOL    HW163482   7.779   2.038   9.269 -0.3117 -0.5301 -0.0492
19898SOL    HW263483   7.892   2.045   9.369 -0.6834 -2.3830  0.5392
19899SOL     OW63484   5.379   3.630   6.680 -0.2687 -0.0566  0.3662
19899SOL    HW163485   5.352   3.708   6.631 -0.0619  0.0326  0.3945
19899SOL    HW263486   5.456   3.598   6.634 -1.6519 -1.5772 -1.0330
19900SOL     OW63487   7.340   9.223   2.194 -0.2812 -0.0318 -0.3834
19900SOL    HW163488   7.277   9.259   2.257  0.2902  0.0065  0.1757
19900SOL    HW263489   7.292   9.219   2.112 -1.8054 -2.2113  0.5189
19901SOL     OW63490   2.580   3.993   0.855 -0.5205 -0.4643  0.7357
19901SOL    HW163491   2.619   3.966   0.938 -0.0072 -1.0425  0.3155
19901SOL    HW263492   2.653   4.024   0.802 -0.8932  0.2396  0.6229
19902SOL     OW63493   8.366   1.217   4.064  0.3231 -0.2841 -0.6604
19902SOL    HW163494   8.289   1.160   4.065  0.6318 -0.7060 -0.1827
19902SOL    HW263495   8.429   1.172   4.007  0.8281 -0.7904  0.2761
19903SOL     OW63496   2.695   9.100   7.425  0.2672  0.6708  0.4128
19903SOL    HW163497   2.729   9.188   7.407  1.1263  0.3884  0.6379
19903SOL    HW263498   2.666   9.104   7.516  0.4246  0.6844  0.4627
19904SOL     OW63499   8.558   4.908  10.152  0.0048 -0.2618 -0.4422
19904SOL    HW163500   8.649   4.921  10.177  0.1801 -0.1484 -1.1179
19904SOL    HW263501   8.562   4.878  10.061 -0.6068 -0.7775 -0.3081
19905SOL     OW63502   4.361   3.331   3.299 -0.0906 -0.1517  0.4359
19905SOL    HW163503   4.277   3.367   3.326 -0.5348 -0.3443 -0.6249
19905SOL    HW263504   4.407   3.313   3.381 -0.5266  1.2310  1.0119
19906SOL     OW63505   8.221   7.181   5.592  1.0024 -0.3880  0.5766
19906SOL    HW163506   8.291   7.161   5.529  1.2452  0.6124  0.5036
19906SOL    HW263507   8.222   7.108   5.654  1.9650 -0.5018  0.4417
19907SOL     OW63508   4.264   4.442  10.147 -0.6087  0.4468 -0.2562
19907SOL    HW163509   4.304   4.379  10.207 -2.4761 -1.2990 -0.7341
19907SOL    HW263510   4.171   4.437  10.166 -0.9718  1.8349 -1.5019
19908SOL     OW63511   3.296   1.844   3.306 -0.2581  0.3009 -0.1810
19908SOL    HW163512   3.317   1.771   3.248  0.1573  0.6148 -0.4288
19908SOL    HW263513   3.358   1.912   3.283 -2.5503  1.8880 -2.0817
19909SOL     OW63514   8.284   5.248   5.274 -0.0434 -0.2290  0.1103
19909SOL    HW163515   8.302   5.244   5.368 -0.6967 -1.1332  0.2059
19909SOL    HW263516   8.261   5.340   5.258  0.1225 -0.0581  0.8272
19910SOL     OW63517   1.740   4.777   1.507 -0.1106  0.0122  0.8137
19910SOL    HW163518   1.750   4.866   1.473  0.3007 -0.4094 -0.1891
19910SOL    HW263519   1.724   4.789   1.601 -0.6820  1.1640  0.5789
19911SOL     OW63520  10.187   6.272   7.005  0.0454  0.2162 -0.1874
19911SOL    HW163521  10.145   6.235   7.083 -1.0050 -1.4617 -1.4663
19911SOL    HW263522  10.232   6.350   7.036 -2.6700  1.2167  1.6172
19912SOL     OW63523   7.330   1.510   2.556  0.7378 -0.3830 -0.3859
19912SOL    HW163524   7.397   1.512   2.624  0.2324  0.8006  0.1252
19912SOL    HW263525   7.360   1.574   2.491  0.7623 -0.8395 -0.8345
19913SOL     OW63526   3.688   4.414   6.514 -0.4686  0.4955  0.2221
19913SOL    HW163527   3.749   4.488   6.515  0.6752 -0.4272  1.5230
19913SOL    HW263528   3.605   4.451   6.541  0.0413  1.3492  0.6628
19914SOL     OW63529   3.860   5.130   0.295 -0.1473  0.2530 -0.3619
19914SOL    HW163530   3.822   5.196   0.237  2.3894  0.1088 -2.3943
19914SOL    HW263531   3.926   5.178   0.345  3.0066 -0.7915 -3.1265
19915SOL     OW63532   4.522   0.773   8.304 -0.3289 -0.2224 -0.0007
19915SOL    HW163533   4.427   0.768   8.294 -0.4744  1.0957  0.4015
19915SOL    HW263534   4.537   0.761   8.398 -0.3145  1.4446  0.2569
19916SOL     OW63535   2.057   2.936   3.343 -0.3001 -0.4640  0.1738
19916SOL    HW163536   2.076   2.938   3.437 -2.8106  1.8023  0.7620
19916SOL    HW263537   2.135   2.975   3.303 -0.0718  0.5944  1.5492
19917SOL     OW63538   2.580   9.902   0.962 -0.2908 -0.3692  0.7913
19917SOL    HW163539   2.604   9.853   0.883 -1.6819  0.1458  0.0082
19917SOL    HW263540   2.662   9.912   1.011  0.9842  0.8120 -1.4238
19918SOL     OW63541   1.403   1.888   4.731  0.2686 -0.1566 -0.0951
19918SOL    HW163542   1.452   1.807   4.741  1.1830  0.3177 -0.5904
19918SOL    HW263543   1.469   1.957   4.733 -0.4798  0.5782  0.2152
19919SOL     OW63544   6.963   7.750   4.070 -0.4317 -0.6441  0.6033
19919SOL    HW163545   6.984   7.835   4.033 -2.1747 -0.6248 -0.4855
19919SOL    HW263546   7.044   7.720   4.110 -0.4315  2.7908  3.6846
19920SOL     OW63547   6.245   3.182   7.241  0.3055 -0.8470 -0.1123
19920SOL    HW163548   6.227   3.108   7.183  1.2575 -0.0347 -1.4945
19920SOL    HW263549   6.160   3.224   7.255  0.1013 -0.9185 -1.1169
19921SOL     OW63550   9.636   3.908   6.071 -0.2134  0.7773 -0.4760
19921SOL    HW163551   9.562   3.848   6.086  0.6340 -0.3591 -0.7240
19921SOL    HW263552   9.685   3.908   6.153  0.4169  0.2337 -0.8483
19922SOL     OW63553   2.088   1.295   6.695  0.5870  0.0491 -0.7671
19922SOL    HW163554   1.993   1.308   6.694  0.4163 -0.9510  0.6446
19922SOL    HW263555   2.111   1.280   6.603 -0.9671 -2.0502 -0.8655
19923SOL     OW63556   7.489   6.594   6.631 -0.3931  0.0237 -0.6905
19923SOL    HW163557   7.397   6.617   6.618 -0.9850 -1.3405  0.7011
19923SOL    HW263558   7.508   6.622   6.720  0.7214  0.7689 -1.1502
19924SOL     OW63559   7.858   7.317   0.738  1.1002  0.0907 -0.2633
19924SOL    HW163560   7.770   7.293   0.766  1.4080  0.3170  0.9372
19924SOL    HW263561   7.863   7.285   0.648 -0.1130 -0.1541 -0.2681
19925SOL     OW63562   2.575   4.321   7.435  0.1197  0.1380  0.2300
19925SOL    HW163563   2.664   4.349   7.414 -0.2699  0.9921 -0.3297
19925SOL    HW263564   2.568   4.233   7.398  1.1358 -0.4583  1.3929
19926SOL     OW63565   0.968   9.672   4.620 -0.6648  0.6245  0.2071
19926SOL    HW163566   0.874   9.678   4.602 -0.3187  1.7336 -1.3934
19926SOL    HW263567   0.972   9.655   4.714 -2.4592  0.6361  0.3339
19927SOL     OW63568  10.086   1.619   7.381  0.0102  0.0748 -0.0746
19927SOL    HW163569  10.096   1.704   7.425  0.3247  0.4478 -0.8478
19927SOL    HW263570  10.166   1.609   7.329 -0.7461  0.0773 -1.2756
19928SOL     OW63571   4.283   5.889   3.393  0.2737 -0.6837  0.1836
19928SOL    HW163572   4.339   5.908   3.318 -1.1783 -0.9365 -1.0108
19928SOL    HW263573   4.331   5.824   3.444  0.0758 -2.7091 -2.0701
19929SOL     OW63574   2.105   9.768   4.738  0.4140  0.0646 -0.2250
19929SOL    HW163575   2.080   9.826   4.666  0.2815  0.2956  0.0085
19929SOL    HW263576   2.123   9.827   4.811  3.2358  0.0873 -0.8144
19930SOL     OW63577   9.673   7.044   9.038  0.4563  0.3211  0.1792
19930SOL    HW163578   9.588   7.001   9.032 -0.5106  2.2564 -0.8613
19930SOL    HW263579   9.661   7.113   9.104  0.8300  1.3925 -0.8319
19931SOL     OW63580   6.159  10.143   3.222  0.3103  0.1802  0.3700
19931SOL    HW163581   6.219  10.132   3.149  1.4924 -0.4801  1.4030
19931SOL    HW263582   6.158  10.237   3.238  1.2293  0.1839  0.4531
19932SOL     OW63583   2.204   0.096   8.430  0.5319 -0.6121 -0.2745
19932SOL    HW163584   2.178   0.080   8.521  1.4232 -0.5894 -0.0152
19932SOL    HW263585   2.133   0.150   8.395  0.4773 -0.1023  0.5845
19933SOL     OW63586   2.073   3.757   7.380 -0.1521  0.4093 -0.2345
19933SOL    HW163587   2.124   3.701   7.438  1.2150  2.3953  0.5814
19933SOL    HW263588   1.982   3.729   7.393  0.5306 -2.3396 -0.7467
19934SOL     OW63589   1.771   6.970   4.345 -0.5859  0.5792 -0.2873
19934SOL    HW163590   1.783   6.912   4.269 -0.5255 -0.4974  0.5306
19934SOL    HW263591   1.858   6.976   4.384 -0.9193 -0.1646  0.6051
19935SOL     OW63592   6.592   4.929   2.069 -0.8154 -0.1648  0.5480
19935SOL    HW163593   6.544   5.008   2.041 -2.6912 -0.1834  3.3390
19935SOL    HW263594   6.525   4.861   2.075  0.4264 -1.4670  0.2248
19936SOL     OW63595   5.349   2.234   3.416  0.3410 -0.2996  0.5246
19936SOL    HW163596   5.328   2.182   3.494  1.3234 -0.4106  0.7364
19936SOL    HW263597   5.411   2.300   3.448  0.5820 -0.2094 -0.1196
19937SOL     OW63598   2.126   8.697   8.593 -0.8192 -0.0244  0.2101
19937SOL    HW163599   2.042   8.655   8.611 -1.0766  0.8000  1.0441
19937SOL    HW263600   2.124   8.777   8.646 -0.0862  0.7035 -0.8195
19938SOL     OW63601   2.521   0.880   1.284  0.1680 -0.1203 -0.1868
19938SOL    HW163602   2.492   0.959   1.329  0.9274 -0.5063  1.0171
19938SOL    HW263603   2.584   0.840   1.344  0.3291 -1.2655 -1.0932
19939SOL     OW63604   0.850   0.448   2.671  0.0969  0.7586 -0.9161
19939SOL    HW163605   0.930   0.395   2.668  0.1775  0.8532 -0.5628
19939SOL    HW263606   0.784   0.395   2.626  0.1894  0.3723 -0.6116
19940SOL     OW63607   8.695  10.032   7.628 -0.2004  0.1479 -0.1678
19940SOL    HW163608   8.679   9.997   7.715  2.3927 -1.5619 -0.2516
19940SOL    HW263609   8.617  10.009   7.577 -0.7574 -0.9078  1.1127
19941SOL     OW63610   0.848   3.637   4.104  0.0722  0.1101 -0.5661
19941SOL    HW163611   0.860   3.565   4.167  0.4327  0.1724 -0.5618
19941SOL    HW263612   0.753   3.645   4.095  0.0062  0.2738  0.1749
19942SOL     OW63613   7.664   7.452   1.399 -0.2741 -0.3143 -0.3064
19942SOL    HW163614   7.660   7.376   1.341 -0.7103  0.2848 -1.0784
19942SOL    HW263615   7.706   7.419   1.478  1.1662 -0.9491 -1.2844
19943SOL     OW63616   2.846   4.039   4.287  0.3036  0.1081 -0.0600
19943SOL    HW163617   2.853   4.085   4.371  1.0720 -0.7411  0.3525
19943SOL    HW263618   2.866   4.106   4.222 -0.7299  0.8868  0.3948
19944SOL     OW63619   1.238   5.150   1.390  0.5274  0.5024  0.2223
19944SOL    HW163620   1.263   5.062   1.361  0.1096  0.0456  1.1820
19944SOL    HW263621   1.198   5.136   1.477 -0.6763  1.4858 -0.1400
19945SOL     OW63622   1.442   4.078   1.191 -0.6593 -0.0731  0.0080
19945SOL    HW163623   1.508   4.024   1.147  0.3048  0.6622  0.5077
19945SOL    HW263624   1.367   4.077   1.131  0.3314  0.2750 -1.2988
19946SOL     OW63625   2.121   4.356   1.063 -0.4537  0.2442  0.8024
19946SOL    HW163626   2.215   4.345   1.077 -0.4059 -1.0820 -0.4069
19946SOL    HW263627   2.081   4.338   1.149  0.2629 -1.2783  0.8450
19947SOL     OW63628   2.096   9.757   6.109  0.5807 -0.5510  0.6394
19947SOL    HW163629   2.058   9.806   6.036 -0.4703 -1.0013  0.8565
19947SOL    HW263630   2.030   9.763   6.178  0.6859 -1.7656  0.8726
19948SOL     OW63631   9.892   4.125   0.409 -0.7008 -0.2741  0.1040
19948SOL    HW163632   9.871   4.113   0.502  1.1161 -0.7103  0.5168
19948SOL    HW263633   9.903   4.220   0.400 -0.2888 -0.2717  0.5147
19949SOL     OW63634   8.916   6.833   8.874  0.2309  0.3660  0.1533
19949SOL    HW163635   8.874   6.755   8.912 -0.8904  0.3763 -0.9807
19949SOL    HW263636   9.002   6.803   8.846 -0.6825 -0.8564 -1.4967
19950SOL     OW63637   0.768   6.831   0.264 -0.5106  0.2450  0.0476
19950SOL    HW163638   0.737   6.882   0.189 -2.0171  0.0024  0.4637
19950SOL    HW263639   0.723   6.747   0.256  1.3405 -0.7824 -0.1994
19951SOL     OW63640   1.169   6.549   6.118  0.1268 -0.1775  0.0050
19951SOL    HW163641   1.180   6.644   6.122  0.9598 -0.2973  0.7104
19951SOL    HW263642   1.159   6.522   6.209 -2.9321 -0.4800 -0.2994
19952SOL     OW63643   7.921   3.619   9.269  0.0274 -0.1040  0.1002
19952SOL    HW163644   7.944   3.709   9.248 -1.8426  0.3295 -0.3160
19952SOL    HW263645   7.872   3.626   9.351 -0.4297 -0.6905 -0.1190
19953SOL     OW63646   9.697   7.438   5.170 -0.2526  1.1470  1.0482
19953SOL    HW163647   9.630   7.377   5.201 -0.7177  0.3309 -1.3749
19953SOL    HW263648   9.679   7.520   5.217 -1.7878  0.4216  1.7737
19954SOL     OW63649   4.863   1.804   1.147 -0.4221 -0.0197  0.2980
19954SOL    HW163650   4.778   1.798   1.190 -0.1100  2.1065  1.3298
19954SOL    HW263651   4.906   1.878   1.189  1.5966 -0.4918 -0.8203
19955SOL     OW63652   9.041   5.157   4.710  0.3634  0.4514  0.5294
19955SOL    HW163653   8.965   5.163   4.651  0.7104  1.0354  0.1190
19955SOL    HW263654   9.035   5.070   4.749  0.8077 -0.4635 -1.3338
19956SOL     OW63655   2.633   5.790   2.384  0.2246 -0.8748  0.0548
19956SOL    HW163656   2.573   5.718   2.366 -1.8116  0.5695  0.6922
19956SOL    HW263657   2.664   5.775   2.473 -2.5801  0.5102  1.3890
19957SOL     OW63658   8.188   1.343   6.279 -0.2628 -0.3247 -0.2751
19957SOL    HW163659   8.271   1.296   6.276  0.3627  0.6945  0.2102
19957SOL    HW263660   8.213   1.433   6.304 -1.2800  0.5475 -2.2107
19958SOL     OW63661   6.982   6.860   4.286  1.2511  0.1774  0.4597
19958SOL    HW163662   7.070   6.854   4.249  0.1782 -0.0714 -2.3008
19958SOL    HW263663   6.994   6.846   4.380  4.3406  2.0512  0.4679
19959SOL     OW63664   4.161   8.787   1.762  0.1703 -0.4214 -0.3059
19959SOL    HW163665   4.257   8.788   1.761  0.2231 -2.2404 -1.4164
19959SOL    HW263666   4.136   8.853   1.698  0.6581  0.2482  0.1807
19960SOL     OW63667   9.067   1.146   4.542  0.1938 -0.1129  0.1510
19960SOL    HW163668   9.000   1.176   4.604 -0.1682  1.4998 -0.9414
19960SOL    HW263669   9.021   1.142   4.458  0.3273 -3.5256  0.1213
19961SOL     OW63670   9.556   8.710  10.085  0.2012  0.5499  0.6393
19961SOL    HW163671   9.467   8.732  10.112 -0.5626 -0.2364 -1.1317
19961SOL    HW263672   9.559   8.615  10.083  0.5043  0.5595 -1.0290
19962SOL     OW63673   6.218   5.064  10.312 -0.8666  0.5672 -0.0022
19962SOL    HW163674   6.203   5.099  10.400 -2.6749  0.0037 -0.0383
19962SOL    HW263675   6.197   5.136  10.253 -1.1429  0.4963  0.0062
19963SOL     OW63676   7.897   6.123   6.985  0.2943 -0.3169 -0.0159
19963SOL    HW163677   7.986   6.103   7.014 -0.4265 -0.5689  2.1980
19963SOL    HW263678   7.898   6.218   6.970  0.6819 -0.1492  1.0086
19964SOL     OW63679   2.119   3.440   4.041 -0.5279 -0.2704  0.4561
19964SOL    HW163680   2.164   3.523   4.026 -2.2917  0.4843 -1.1729
19964SOL    HW263681   2.158   3.379   3.978 -0.6269 -0.0695  0.1954
19965SOL     OW63682   5.789   6.477  10.269 -0.3929  0.0662 -0.0154
19965SOL    HW163683   5.875   6.435  10.265 -0.7078 -0.6898  0.8866
19965SOL    HW263684   5.801   6.549  10.331 -0.4320 -0.0950  0.1802
19966SOL     OW63685   2.451   5.847   5.592 -0.0019 -0.5301 -0.0629
19966SOL    HW163686   2.365   5.830   5.631 -0.2048  0.6815  0.0566
19966SOL    HW263687   2.436   5.920   5.532  1.4291  1.5459  1.9516
19967SOL     OW63688   3.550   5.677   1.691  0.1396 -0.3221 -0.0501
19967SOL    HW163689   3.456   5.698   1.694 -0.0023 -0.9906  0.4594
19967SOL    HW263690   3.572   5.655   1.781  1.0607  0.9336  0.0465
19968SOL     OW63691   6.986   3.169   4.947 -1.0577 -0.4323  0.3078
19968SOL    HW163692   6.977   3.240   5.010  1.6108  0.4836 -0.2132
19968SOL    HW263693   6.953   3.205   4.865  0.0391  0.1623  0.1066
19969SOL     OW63694   7.592   6.766  10.290  0.2963 -0.3950 -0.5620
19969SOL    HW163695   7.630   6.692  10.242  1.0455  0.5118 -1.4159
19969SOL    HW263696   7.668   6.817  10.318 -0.2141  0.0936 -0.0440
19970SOL     OW63697   1.750   0.709   2.743 -0.4513 -0.1350  0.3495
19970SOL    HW163698   1.821   0.754   2.789  1.6969 -2.4636 -0.4736
19970SOL    HW263699   1.724   0.770   2.673  0.4217  0.9520  0.9456
19971SOL     OW63700   0.218   4.435   4.932 -0.1882 -0.2634 -0.0167
19971SOL    HW163701   0.136   4.396   4.901  0.4620 -1.2221 -0.5726
19971SOL    HW263702   0.276   4.361   4.949  2.3653  0.3543 -4.5617
19972SOL     OW63703   6.793   5.593   7.521 -0.0489  0.2621 -0.3282
19972SOL    HW163704   6.829   5.677   7.549  0.2977  0.2751 -0.7926
19972SOL    HW263705   6.869   5.535   7.515 -0.3947 -0.3495  0.8745
19973SOL     OW63706   5.084   5.211   4.709 -0.2360 -0.5719  0.2136
19973SOL    HW163707   5.088   5.136   4.768  1.2622 -1.6926 -1.2083
19973SOL    HW263708   5.104   5.175   4.623  0.7138  1.4807 -0.5046
19974SOL     OW63709  10.088   1.906   7.854  0.2664 -0.0435  0.0079
19974SOL    HW163710  10.021   1.931   7.791 -0.4120  0.9074  1.0806
19974SOL    HW263711  10.155   1.974   7.846 -0.8744  1.4006  1.8525
19975SOL     OW63712   9.438   5.177   7.767  0.6593  0.1218 -0.3683
19975SOL    HW163713   9.480   5.162   7.682 -0.6638 -0.0527 -1.0086
19975SOL    HW263714   9.349   5.144   7.756  0.7074 -0.6976  1.3603
19976SOL     OW63715   1.552   6.862   7.850  0.3144 -0.5050  0.2594
19976SOL    HW163716   1.590   6.947   7.872 -1.9069  0.5210  0.4098
19976SOL    HW263717   1.520   6.872   7.761 -0.0581 -1.1646  0.3121
19977SOL     OW63718   5.956   4.634   8.658 -0.0945 -0.1687  0.0585
19977SOL    HW163719   6.038   4.671   8.624  0.6930 -0.9528  1.0584
19977SOL    HW263720   5.981   4.593   8.741 -1.5442 -0.2704  0.4601
19978SOL     OW63721   0.895   3.206   1.986 -0.2582  0.5574  0.1915
19978SOL    HW163722   0.844   3.263   2.044 -0.8359  1.0107 -0.7347
19978SOL    HW263723   0.830   3.157   1.937  0.2236  0.0393  0.0573
19979SOL     OW63724   5.502   9.550   2.161  0.3814 -0.1239 -0.5951
19979SOL    HW163725   5.408   9.550   2.179 -0.1972  1.3498 -3.0455
19979SOL    HW263726   5.524   9.643   2.152  1.5639 -0.5114 -2.2030
19980SOL     OW63727   7.429   4.998   9.620 -0.6881 -0.2832 -0.3173
19980SOL    HW163728   7.367   5.047   9.674 -1.7646  0.1957 -1.9158
19980SOL    HW263729   7.498   5.060   9.599 -0.8574 -0.1357 -0.4358
19981SOL     OW63730   8.127   3.320   2.026 -0.4171  0.1233  0.2114
19981SOL    HW163731   8.138   3.334   2.120 -1.9717 -0.5157  0.5314
19981SOL    HW263732   8.133   3.408   1.987 -2.0291  0.7224  1.2078
19982SOL     OW63733   6.115   2.444   7.659 -0.6005 -0.2614  0.3135
19982SOL    HW163734   6.188   2.401   7.614  0.3240  1.9554 -0.4317
19982SOL    HW263735   6.103   2.392   7.739  3.5097  0.6531  1.7796
19983SOL     OW63736   6.597   1.019   0.597 -0.2998  0.0550 -0.1942
19983SOL    HW163737   6.588   0.988   0.687 -4.0049  0.4388 -0.2821
19983SOL    HW263738   6.538   0.963   0.546  0.0033  1.2964 -2.0148
19984SOL     OW63739   2.470   2.076   7.090 -0.8636  0.4287  0.3004
19984SOL    HW163740   2.500   1.985   7.080 -1.1878  0.4382 -0.9660
19984SOL    HW263741   2.528   2.127   7.034 -0.8274  0.9838  0.8283
19985SOL     OW63742   6.484   8.718   6.857  0.2130 -0.1740 -0.1257
19985SOL    HW163743   6.519   8.679   6.937  0.1151 -1.1692 -0.5536
19985SOL    HW263744   6.529   8.802   6.849  2.9373 -1.5926 -0.9290
19986SOL     OW63745   8.907   0.211   9.878  0.2366  0.0451  0.2572
19986SOL    HW163746   8.883   0.292   9.924 -1.4364 -0.3381  0.1181
19986SOL    HW263747   8.969   0.239   9.811  1.1804  0.9106  1.4345
19987SOL     OW63748   3.771   2.699   9.636 -0.5907 -0.1700  0.5701
19987SOL    HW163749   3.842   2.750   9.596  0.8083 -1.4713  1.2722
19987SOL    HW263750   3.740   2.754   9.708  1.8727 -0.7754  2.2352
19988SOL     OW63751   4.111   6.559   0.658  0.1958  0.6401  0.0125
19988SOL    HW163752   4.120   6.643   0.704 -2.0172 -0.0844  1.9586
19988SOL    HW263753   4.199   6.522   0.657  0.7435  1.8048  1.4877
19989SOL     OW63754   0.683   2.616   1.411 -0.2656 -1.0332 -0.6394
19989SOL    HW163755   0.617   2.550   1.428 -0.2753 -0.8454  0.0711
19989SOL    HW263756   0.766   2.571   1.425 -0.2524 -1.1042 -0.9346
19990SOL     OW63757   8.792   7.210   4.543  0.4189  0.3305  0.2478
19990SOL    HW163758   8.847   7.287   4.554 -0.2561  1.0983 -1.3616
19990SOL    HW263759   8.703   7.242   4.556  0.1738 -0.3052  0.1789
19991SOL     OW63760   0.323   9.772   3.222 -0.4406  0.1928 -0.3740
19991SOL    HW163761   0.266   9.726   3.160 -1.2115 -0.5599  0.8568
19991SOL    HW263762   0.406   9.725   3.217  0.4520  1.8300 -2.8254
19992SOL     OW63763   9.120  10.300   4.759  0.2532 -0.0875 -0.1101
19992SOL    HW163764   9.082  10.233   4.703  0.7840  0.2559 -0.8952
19992SOL    HW263765   9.045  10.336   4.807  0.0555 -1.7682  0.9376
19993SOL     OW63766   1.920   5.759   6.723 -0.0613  0.8553 -0.4695
19993SOL    HW163767   1.834   5.800   6.728 -1.3112 -1.6234  3.6572
19993SOL    HW263768   1.956   5.768   6.811  2.0698 -1.6694 -0.9431
19994SOL     OW63769   1.339   0.133   5.303 -0.3548 -0.1571  0.0822
19994SOL    HW163770   1.248   0.123   5.275 -0.6919  0.1020  1.0654
19994SOL    HW263771   1.349   0.227   5.319  0.4233 -0.0154 -1.1157
19995SOL     OW63772   5.507   4.704   1.189  0.4179 -0.1330 -0.4349
19995SOL    HW163773   5.549   4.661   1.263  0.0402 -0.0636 -0.1816
19995SOL    HW263774   5.414   4.685   1.199  0.4000 -0.4198 -1.0817
19996SOL     OW63775   4.148   5.848   4.243  0.5366  0.3886 -0.9913
19996SOL    HW163776   4.088   5.890   4.305  1.1902  0.9799 -0.7468
19996SOL    HW263777   4.099   5.773   4.210 -0.5058  1.1026 -1.1328
19997SOL     OW63778   2.275   3.650   8.536 -0.4734 -0.1292  0.3811
19997SOL    HW163779   2.237   3.716   8.478 -0.8928 -2.0806 -1.6958
19997SOL    HW263780   2.367   3.673   8.541 -0.7117  0.9175  0.1272
19998SOL     OW63781   5.105   4.520   2.334  0.6148  0.2917 -0.0411
19998SOL    HW163782   5.195   4.487   2.344  0.4135 -0.4013 -0.4258
19998SOL    HW263783   5.053   4.469   2.396  0.4188  0.4020 -0.1128
19999SOL     OW63784   5.280   7.325   1.433 -0.0426  0.4020 -0.3137
19999SOL    HW163785   5.308   7.244   1.391 -0.4413  0.0125  0.1580
19999SOL    HW263786   5.185   7.328   1.418 -0.4459 -0.4734  1.7458
20000SOL     OW63787   2.044   9.754   1.507 -0.4660  0.6834 -0.2732
20000SOL    HW163788   1.989   9.804   1.569 -0.2948  1.5584 -0.8072
20000SOL    HW263789   2.016   9.663   1.519 -1.0424  0.9397  0.4732
20001SOL     OW63790   8.867   2.264   0.084  0.3594 -0.4750  0.0156
20001SOL    HW163791   8.948   2.227   0.049 -0.5594 -2.0150 -0.5837
20001SOL    HW263792   8.804   2.192   0.082 -1.7146  1.2268 -1.7276
20002SOL     OW63793   0.217   0.918   3.615 -0.0768  0.2044  0.7599
20002SOL    HW163794   0.273   0.904   3.539  0.0590  2.5238  0.3544
20002SOL    HW263795   0.246   0.853   3.679  0.3807 -1.2285 -0.8259
20003SOL     OW63796   7.855   4.526   4.071  0.0336  0.2000 -0.1025
20003SOL    HW163797   7.886   4.473   3.997 -1.4034 -1.4911  0.4162
20003SOL    HW263798   7.890   4.613   4.054 -0.3593 -0.0639 -2.8867
20004SOL     OW63799   6.146   0.341   2.965 -0.3570 -0.1191 -0.4543
20004SOL    HW163800   6.072   0.327   3.024  2.0205  2.5737  3.5834
20004SOL    HW263801   6.158   0.436   2.963  2.2574 -0.3952 -2.0127
20005SOL     OW63802   1.645   3.967   7.863  0.2605 -0.3461 -0.4103
20005SOL    HW163803   1.550   3.967   7.857  0.3609 -0.7331 -2.4632
20005SOL    HW263804   1.667   4.053   7.900 -0.8753 -0.4521  0.5801
20006SOL     OW63805   3.211   1.058   4.420 -0.4271  0.2324  0.1760
20006SOL    HW163806   3.186   1.010   4.500 -0.4320 -0.2762 -0.1270
20006SOL    HW263807   3.287   1.110   4.446 -0.0280 -0.4254  0.3451
20007SOL     OW63808   4.016   3.515   5.607  0.5777 -0.5126  0.2354
20007SOL    HW163809   4.049   3.495   5.694 -0.4229 -0.6213  0.6038
20007SOL    HW263810   3.922   3.526   5.619  0.5313  0.2422 -0.6994
20008SOL     OW63811   2.038   1.571   8.185 -0.0808 -0.4544  0.2434
20008SOL    HW163812   2.069   1.548   8.272 -1.3336 -1.2033  0.5183
20008SOL    HW263813   2.053   1.493   8.132  2.6665  0.6728 -0.8338
20009SOL     OW63814   2.343   8.996   8.356  0.0888 -0.2332  0.1746
20009SOL    HW163815   2.426   8.975   8.398 -0.3554 -1.7918  0.3125
20009SOL    HW263816   2.362   9.074   8.304  2.4132 -2.0585 -1.9844
20010SOL     OW63817   5.169   2.398   1.071 -0.0736 -0.3483  0.2883
20010SOL    HW163818   5.231   2.329   1.095  0.3929  0.4674  1.5403
20010SOL    HW263819   5.085   2.353   1.063  0.5893 -1.4221 -1.1368
20011SOL     OW63820   9.890   9.556   8.521 -0.3147 -0.1164  0.7481
20011SOL    HW163821   9.928   9.607   8.592 -0.8123  0.6127  0.5012
20011SOL    HW263822   9.912   9.465   8.542  2.3745  0.3052  0.1331
20012SOL     OW63823   5.081   0.058   7.169 -0.0058  0.2354  0.4800
20012SOL    HW163824   5.153   0.096   7.118  0.8033  0.9842  2.0845
20012SOL    HW263825   5.100   0.084   7.260 -2.6178  0.9424  0.8987
20013SOL     OW63826   3.042   3.450   8.488  0.5053 -0.5894 -0.6491
20013SOL    HW163827   2.971   3.391   8.462  0.7264 -1.2406  0.1794
20013SOL    HW263828   3.070   3.492   8.407 -1.0432 -0.0791 -0.9424
20014SOL     OW63829   5.786   9.350  10.007 -0.1097 -0.0656 -0.1668
20014SOL    HW163830   5.866   9.344   9.955  1.0456 -0.3063  1.5429
20014SOL    HW263831   5.812   9.321  10.094 -2.5456 -2.0892 -0.0002
20015SOL     OW63832   4.082   9.569   6.994  0.0241  0.7746  0.2954
20015SOL    HW163833   3.995   9.602   6.972  0.7082  2.2837 -0.3209
20015SOL    HW263834   4.122   9.549   6.910  0.3457  0.2681  0.5672
20016SOL     OW63835   8.492   8.233   8.931 -0.1819 -0.0469  0.0099
20016SOL    HW163836   8.428   8.287   8.977 -0.4860 -0.7777  0.4611
20016SOL    HW263837   8.503   8.156   8.987 -0.2457 -0.7675 -0.9391
20017SOL     OW63838   6.837   2.311   5.744 -0.6032  0.2422  0.7075
20017SOL    HW163839   6.742   2.295   5.741 -0.2850 -1.9885  1.0315
20017SOL    HW263840   6.860   2.331   5.653 -1.3505  0.7852  0.6167
20018SOL     OW63841   7.714   0.168   3.967 -0.3858  0.0075  0.3795
20018SOL    HW163842   7.621   0.152   3.979 -0.2346 -0.8025  0.5353
20018SOL    HW263843   7.735   0.130   3.882 -0.2830  0.6045  0.1271
20019SOL     OW63844   2.730   4.527   6.589  0.3706  0.2056 -0.3895
20019SOL    HW163845   2.669   4.542   6.661  0.7861 -2.6442  0.6781
20019SOL    HW263846   2.680   4.477   6.524  1.2272 -1.3020  0.0607
20020SOL     OW63847   1.797   7.590   8.991 -0.1290  0.3130  0.8856
20020SOL    HW163848   1.735   7.662   9.001 -1.1709 -0.2897 -0.8269
20020SOL    HW263849   1.838   7.605   8.905  1.1840 -0.0033  1.4315
20021SOL     OW63850  10.128   9.969   5.459  0.9979  0.2711 -0.3385
20021SOL    HW163851  10.115   9.978   5.553  0.2805  2.3584 -0.5922
20021SOL    HW263852  10.206   9.914   5.451  1.8549  1.1265  1.5065
20022SOL     OW63853   5.709   3.849   6.835  0.0442 -0.0438 -0.1318
20022SOL    HW163854   5.708   3.768   6.783  0.9820 -1.8665  2.4848
20022SOL    HW263855   5.717   3.819   6.926  0.0513  3.0094  0.9772
20023SOL     OW63856   7.301   1.944   3.556  0.2403  0.2759  0.4048
20023SOL    HW163857   7.374   1.994   3.519  0.7832  1.1900  2.5547
20023SOL    HW263858   7.342   1.864   3.590 -0.4872 -1.3217 -2.2000
20024SOL     OW63859   6.773   1.469   6.189  0.1368  0.2798 -0.2440
20024SOL    HW163860   6.769   1.535   6.258  0.2284  1.9053 -1.7268
20024SOL    HW263861   6.765   1.385   6.235 -2.4765  1.3682  1.5077
20025SOL     OW63862   5.247   1.403   8.108 -0.3766  0.2443 -0.3640
20025SOL    HW163863   5.212   1.331   8.057 -1.0920 -0.1402  0.6306
20025SOL    HW263864   5.342   1.396   8.098 -0.3794 -1.3676  0.3891
20026SOL     OW63865   5.010   7.938  10.239  0.3469  0.1760 -0.4085
20026SOL    HW163866   5.055   7.878  10.298  0.4842 -1.0844 -1.7108
20026SOL    HW263867   4.923   7.950  10.278  0.8205  0.3276  0.6315
20027SOL     OW63868  10.238   5.970   6.304 -0.4102  0.2443 -0.3851
20027SOL    HW163869  10.243   6.063   6.281 -1.2341  0.3251 -0.2652
20027SOL    HW263870  10.284   5.964   6.388 -0.4423  0.5607 -0.3437
20028SOL     OW63871   0.148   7.147   7.454 -0.1257  0.2160  0.1970
20028SOL    HW163872   0.140   7.145   7.359  0.0208  0.1254  0.1867
20028SOL    HW263873   0.145   7.055   7.481  0.4797  0.2031  0.2254
20029SOL     OW63874   8.897   8.766   8.837 -0.4625 -0.3923 -0.1070
20029SOL    HW163875   8.849   8.724   8.765  0.5607 -2.1454  0.1869
20029SOL    HW263876   8.853   8.735   8.916 -0.5655  0.2403  0.0892
20030SOL     OW63877   5.568   2.481   1.635 -0.8953  0.2771  0.4774
20030SOL    HW163878   5.563   2.427   1.556 -0.7287  0.8504  0.0697
20030SOL    HW263879   5.478   2.481   1.670 -0.8091 -0.6082  0.7261
20031SOL     OW63880   6.730   7.555  10.344  0.3765 -0.0217 -0.0323
20031SOL    HW163881   6.649   7.551  10.293  0.2455  1.4031  0.0401
20031SOL    HW263882   6.714   7.496  10.419 -1.7283  2.3377  1.5142
20032SOL     OW63883   0.129   9.834   8.941 -0.1430  0.3117 -0.4982
20032SOL    HW163884   0.092   9.764   8.886  1.7276 -0.8594 -0.3551
20032SOL    HW263885   0.223   9.830   8.925  0.6028 -0.4480  3.1395
20033SOL     OW63886   9.397   2.513   9.618 -0.0421 -0.0400  0.1190
20033SOL    HW163887   9.409   2.573   9.544 -0.3497 -0.8276 -0.5749
20033SOL    HW263888   9.330   2.452   9.589  0.8849 -1.2665  0.4775
20034SOL     OW63889   7.262   4.399  10.121 -0.1582 -0.0075 -0.4579
20034SOL    HW163890   7.338   4.341  10.128 -0.2042 -0.1349 -0.9837
20034SOL    HW263891   7.285   4.460  10.051 -0.2459  0.4108 -0.1275
20035SOL     OW63892  10.040  10.019   0.055  0.1011 -0.2551  0.4815
20035SOL    HW163893   9.957  10.065   0.064  1.2083  1.4778  3.0582
20035SOL    HW263894  10.099  10.084   0.016  1.0034 -0.3540  1.6358
20036SOL     OW63895   4.367   6.574   2.864 -0.1278  0.0977 -0.2601
20036SOL    HW163896   4.365   6.667   2.845  2.0676  0.6149  1.5753
20036SOL    HW263897   4.312   6.564   2.942 -0.7229 -0.2355 -0.7160
20037SOL     OW63898   1.024   2.219   8.896 -0.4328  0.5765 -0.6713
20037SOL    HW163899   0.962   2.258   8.957 -0.9690  3.9189 -3.0457
20037SOL    HW263900   1.109   2.227   8.939 -1.2146 -1.0548  1.2765
20038SOL     OW63901   0.380   2.485   7.696 -0.7822  0.0984 -0.3468
20038SOL    HW163902   0.360   2.569   7.738 -1.8684 -0.7254  0.8704
20038SOL    HW263903   0.459   2.502   7.645  0.1299  1.3672  1.3880
20039SOL     OW63904   0.491   7.631   7.548  0.2926  0.2220 -0.3604
20039SOL    HW163905   0.584   7.611   7.533  0.3446  0.1817  0.0179
20039SOL    HW263906   0.453   7.635   7.460  1.0120  1.9969 -0.6255
20040SOL     OW63907   0.566   6.735   2.402 -0.4836  0.4746  0.8903
20040SOL    HW163908   0.481   6.692   2.396 -0.9128  1.4867 -1.6727
20040SOL    HW263909   0.599   6.736   2.312  3.2804 -1.7450  1.9822
20041SOL     OW63910   2.364   8.839   7.981  0.2935  0.2239 -0.2428
20041SOL    HW163911   2.296   8.835   8.048  0.9821 -1.1358  0.4158
20041SOL    HW263912   2.387   8.932   7.975 -0.1514  0.4312  1.0056
20042SOL     OW63913   8.826   3.089   1.077  0.3515  0.4778  0.2192
20042SOL    HW163914   8.857   3.092   0.987 -0.2320  1.6727  0.0332
20042SOL    HW263915   8.857   3.171   1.116 -0.1181  0.3589  0.8613
20043SOL     OW63916   1.786   7.627   1.918 -0.2118 -0.1131 -0.7212
20043SOL    HW163917   1.795   7.546   1.969  0.1926  0.1960 -0.2935
20043SOL    HW263918   1.715   7.675   1.962  1.8397  1.3572  1.2419
20044SOL     OW63919   9.228   8.931   0.043 -0.7080 -0.1555  0.3891
20044SOL    HW163920   9.172   9.000   0.078 -0.6294  0.4167 -0.5846
20044SOL    HW263921   9.294   8.918   0.110 -1.0308  0.3463  0.8135
20045SOL     OW63922   5.878   4.662   3.958  0.6306  0.3783  0.8439
20045SOL    HW163923   5.839   4.576   3.971  0.1327  0.4722  0.0136
20045SOL    HW263924   5.815   4.710   3.905  0.2445  1.7394  2.4317
20046SOL     OW63925   0.817   8.298   1.890  0.1700  0.1139 -0.3187
20046SOL    HW163926   0.901   8.319   1.931  1.1802 -1.9137 -1.1945
20046SOL    HW263927   0.831   8.316   1.797  0.0317 -1.2361 -0.6257
20047SOL     OW63928   2.117   5.278   5.319 -0.2657 -0.6253 -0.3023
20047SOL    HW163929   2.128   5.362   5.274  1.6658 -1.1470 -0.8839
20047SOL    HW263930   2.179   5.281   5.392 -0.0850 -1.5816 -0.4019
20048SOL     OW63931   7.909   7.052   2.535 -0.2134 -0.2067 -0.2374
20048SOL    HW163932   7.919   6.971   2.485 -1.1534 -0.0143 -0.7626
20048SOL    HW263933   7.969   7.042   2.609  0.8801 -0.6954 -1.1447
20049SOL     OW63934   0.956   3.793   0.252 -0.1727  0.4320  0.6892
20049SOL    HW163935   0.985   3.884   0.245 -0.0806  0.3158 -0.6551
20049SOL    HW263936   1.036   3.742   0.245 -0.4632  0.1779 -1.0395
20050SOL     OW63937   6.650   4.509  10.304 -0.0116  0.1145 -0.2581
20050SOL    HW163938   6.649   4.446  10.232 -0.2265  0.8607 -0.9234
20050SOL    HW263939   6.661   4.456  10.383  0.8847 -0.6637 -0.8922
20051SOL     OW63940   1.075   5.625   8.173  0.2450  0.8722  0.5117
20051SOL    HW163941   1.043   5.714   8.156 -2.8887 -0.0378  1.0183
20051SOL    HW263942   0.999   5.578   8.205  1.6435 -2.1844 -0.2765
20052SOL     OW63943   9.797   7.769   4.512  0.1254 -0.5283 -0.7472
20052SOL    HW163944   9.857   7.841   4.493 -1.1036  0.2009 -2.0989
20052SOL    HW263945   9.753   7.796   4.593 -0.2435  0.2171 -1.1833
20053SOL     OW63946   6.148   3.134   6.046 -0.3834 -0.1998 -0.1916
20053SOL    HW163947   6.135   3.067   6.113  0.0021  0.8010  0.9265
20053SOL    HW263948   6.238   3.164   6.059 -1.0483  1.6575  0.4099
20054SOL     OW63949   2.684   7.577   6.315  0.3851  0.2678  0.5794
20054SOL    HW163950   2.628   7.643   6.273 -0.7786 -0.0505  1.5705
20054SOL    HW263951   2.626   7.502   6.327  1.3991 -0.5597  0.4592
20055SOL     OW63952   9.748   5.227   2.427  0.2754  0.0407 -0.5891
20055SOL    HW163953   9.697   5.297   2.466  2.2281  1.0861  0.2679
20055SOL    HW263954   9.695   5.195   2.354 -1.8685  0.5135  0.7095
20056SOL     OW63955   9.923   6.097   3.294 -0.1233 -0.2682 -0.3945
20056SOL    HW163956   9.920   6.011   3.335 -0.1534 -0.0614  0.0450
20056SOL    HW263957   9.889   6.157   3.360  1.0522  0.2508 -0.2312
20057SOL     OW63958   1.920   4.643  10.281 -0.2394  0.2042 -0.0733
20057SOL    HW163959   1.884   4.710  10.223  1.1206  2.1489  1.2211
20057SOL    HW263960   2.014   4.662  10.285 -0.0288 -0.9495  1.4063
20058SOL     OW63961   1.746   6.173  10.108  0.2424  0.0949 -0.1813
20058SOL    HW163962   1.769   6.102  10.048  0.4356 -0.5392  0.6224
20058SOL    HW263963   1.752   6.134  10.195 -2.4524  0.2981  0.1854
20059SOL     OW63964   8.122   3.959   8.027 -0.0975  0.0295  0.3416
20059SOL    HW163965   8.032   3.940   8.002  0.1081  1.1434 -1.3850
20059SOL    HW263966   8.125   4.054   8.036  1.0948  0.0947 -0.4803
20060SOL     OW63967   7.181   2.138   6.798  0.1043  0.2183  0.1766
20060SOL    HW163968   7.111   2.075   6.816  0.7528 -0.9874 -1.2890
20060SOL    HW263969   7.261   2.089   6.812  0.6266  0.5715 -1.3877
20061SOL     OW63970   8.252   2.332   2.849 -0.3520  0.4145  0.6497
20061SOL    HW163971   8.247   2.394   2.922 -0.7813  0.9245  0.1898
20061SOL    HW263972   8.165   2.294   2.843 -0.3330  0.4113  0.3719
20062SOL     OW63973   8.659   9.936   7.892  0.0897  0.9032  0.6526
20062SOL    HW163974   8.748   9.946   7.926  0.1348  1.7728  0.3024
20062SOL    HW263975   8.602   9.968   7.962  0.0310  0.0716  0.9915
20063SOL     OW63976   4.359   4.635   8.845  0.4736 -0.0409  0.0688
20063SOL    HW163977   4.453   4.650   8.857  0.7344  0.3004 -2.0525
20063SOL    HW263978   4.318   4.713   8.883  0.9567 -0.5345  1.6999
20064SOL     OW63979   2.495   5.077   9.020  0.0341  0.4774  0.1524
20064SOL    HW163980   2.478   5.147   8.957 -0.6649  0.9779  0.8678
20064SOL    HW263981   2.585   5.091   9.048 -0.0211  0.9441  0.0976
20065SOL     OW63982   2.195   6.074   0.162  0.5085  0.0273  0.4086
20065SOL    HW163983   2.126   6.012   0.183  1.0926 -0.8256 -0.0925
20065SOL    HW263984   2.276   6.023   0.169  0.9916  0.6882 -0.1783
20066SOL     OW63985   3.253   1.468   0.303 -0.1083  0.0548 -0.0963
20066SOL    HW163986   3.192   1.541   0.310 -0.0570 -0.0030  1.1896
20066SOL    HW263987   3.216   1.400   0.359  1.3507  0.1884  1.0991
20067SOL     OW63988   7.634   5.219   6.348  0.0192  0.5820 -0.0139
20067SOL    HW163989   7.679   5.180   6.423  0.4656  1.5212  0.2198
20067SOL    HW263990   7.547   5.241   6.381  0.0645  0.5867  0.1045
20068SOL     OW63991   0.607   5.567   8.857 -0.0725 -0.5997  0.1454
20068SOL    HW163992   0.550   5.607   8.923  1.0203  0.7724  0.2939
20068SOL    HW263993   0.582   5.474   8.858 -0.8030 -0.4273  1.7425
20069SOL     OW63994   1.557   6.405   8.063  0.2793  0.5355  0.2130
20069SOL    HW163995   1.474   6.417   8.110  0.2269 -0.4687  0.4047
20069SOL    HW263996   1.555   6.313   8.034  0.2177  1.1593 -1.9458
20070SOL     OW63997   6.029   1.652   9.750  0.0320  0.0636  0.4402
20070SOL    HW163998   6.035   1.616   9.839  0.7667 -2.2144 -0.4732
20070SOL    HW263999   6.016   1.746   9.764 -1.6700 -0.4257  2.9703
20071SOL     OW64000   8.576   8.567   1.847  0.1479 -0.6273 -0.9285
20071SOL    HW164001   8.489   8.564   1.888 -0.1195 -0.0799 -1.4367
20071SOL    HW264002   8.598   8.476   1.832 -1.6603 -0.7349 -3.4739
20072SOL     OW64003   8.976   6.999   3.724 -0.1668  0.7397 -0.3319
20072SOL    HW164004   9.007   6.931   3.663  2.3355  1.6820 -0.2360
20072SOL    HW264005   8.949   6.950   3.802 -0.1477 -0.2554 -0.9309
20073SOL     OW64006   7.796   6.046   7.543 -0.7596  0.0880 -1.0101
20073SOL    HW164007   7.741   5.988   7.596  0.0409 -0.6908 -0.9930
20073SOL    HW264008   7.809   5.999   7.461  0.8006 -0.3042 -0.5869
20074SOL     OW64009   9.643   4.486   7.446 -0.5745 -0.5719 -0.5567
20074SOL    HW164010   9.548   4.500   7.437 -0.6561  0.7751  1.4769
20074SOL    HW264011   9.682   4.543   7.380 -1.1735  2.7786  1.7207
20075SOL     OW64012   3.290   5.274   0.771  0.5589  0.2334  1.1905
20075SOL    HW164013   3.294   5.242   0.681  0.2477 -1.5776  1.7653
20075SOL    HW264014   3.197   5.292   0.787  0.4359 -0.6008  1.4888
20076SOL     OW64015   7.553   1.731   4.013 -0.0187  0.4377  0.3634
20076SOL    HW164016   7.559   1.686   3.929 -1.3981  1.2672 -0.2266
20076SOL    HW264017   7.536   1.823   3.990  2.9470  1.4048  1.5116
20077SOL     OW64018   6.903   6.347   4.849 -1.0061 -0.2752  0.0134
20077SOL    HW164019   6.878   6.264   4.808 -0.0931 -1.8797  2.4538
20077SOL    HW264020   6.997   6.354   4.833 -1.1823  0.6057 -0.6692
20078SOL     OW64021   6.226   7.639   7.871  0.1374  0.6995  0.1778
20078SOL    HW164022   6.181   7.671   7.949 -0.2487  0.0990  0.2039
20078SOL    HW264023   6.195   7.550   7.860 -1.3297  1.3893 -1.8170
20079SOL     OW64024   7.401   0.895   4.195  0.0622 -0.1369 -0.0846
20079SOL    HW164025   7.410   0.990   4.183 -0.4314 -0.1066 -0.2216
20079SOL    HW264026   7.310   0.877   4.174  0.4610 -0.8314 -1.3333
20080SOL     OW64027   5.333   2.114   5.594 -0.1150 -0.6108 -0.2217
20080SOL    HW164028   5.342   2.109   5.499 -2.1272  1.8839 -0.6498
20080SOL    HW264029   5.350   2.206   5.615 -2.9445 -0.3377  1.3472
20081SOL     OW64030   0.218   7.626   4.880  0.2173 -0.2676 -0.3662
20081SOL    HW164031   0.162   7.603   4.955 -1.4292 -0.3652 -1.5587
20081SOL    HW264032   0.244   7.541   4.843  0.0522 -0.2248 -0.5831
20082SOL     OW64033   2.923   1.474   1.426 -0.3327  0.4549 -0.3032
20082SOL    HW164034   2.943   1.525   1.347 -0.3377  0.7020 -0.1459
20082SOL    HW264035   2.936   1.383   1.399 -0.0269  0.5549 -0.5020
20083SOL     OW64036   4.845   2.407   3.973  0.0625 -0.2087  0.2128
20083SOL    HW164037   4.780   2.477   3.976 -2.9677 -2.6479 -2.3186
20083SOL    HW264038   4.879   2.409   3.884  2.7739  0.2302  1.1477
20084SOL     OW64039   3.851   1.759   2.199 -0.0159 -0.2111 -0.2307
20084SOL    HW164040   3.777   1.800   2.154  0.2593  0.4371 -0.1029
20084SOL    HW264041   3.895   1.832   2.244  1.6050 -0.3092 -1.5502
20085SOL     OW64042   0.294   9.513   9.451 -0.5029  0.1111  0.4088
20085SOL    HW164043   0.267   9.469   9.370 -0.0269 -0.8524  0.7569
20085SOL    HW264044   0.314   9.602   9.424 -0.1901 -0.2415 -0.5762
20086SOL     OW64045   5.654   9.965   0.699  0.0346 -0.9354  0.0394
20086SOL    HW164046   5.684  10.011   0.621  0.2308  1.1065  1.2427
20086SOL    HW264047   5.577   9.916   0.670 -0.5470  0.6440 -1.2119
20087SOL     OW64048   0.054   6.398   8.654  0.4781 -0.3310  0.2384
20087SOL    HW164049   0.035   6.306   8.671  0.0725 -0.4437 -0.7744
20087SOL    HW264050  -0.020   6.445   8.692  0.4717 -0.4452  0.3708
20088SOL     OW64051   7.674   8.580   4.323  0.2837  0.1891 -0.1432
20088SOL    HW164052   7.643   8.646   4.261  2.6815 -1.2779 -3.2015
20088SOL    HW264053   7.618   8.504   4.308 -0.0868  0.2955  0.6497
20089SOL     OW64054   8.108   2.400   3.127 -0.3470 -0.0090  0.2917
20089SOL    HW164055   8.177   2.334   3.133 -1.2016 -0.8496  1.0962
20089SOL    HW264056   8.075   2.408   3.216 -0.9563  0.7621  0.0056
20090SOL     OW64057   2.521   9.149   5.977 -0.2590  0.5719 -0.0589
20090SOL    HW164058   2.457   9.078   5.969  1.0364 -0.6843  0.2388
20090SOL    HW264059   2.503   9.188   6.063  1.6779 -2.2553  1.8123
20091SOL     OW64060   6.129   8.380   8.253  0.0025 -0.2600  0.1432
20091SOL    HW164061   6.168   8.442   8.314  0.8253  3.0544 -3.3442
20091SOL    HW264062   6.036   8.404   8.250  0.0128 -0.2410 -0.0618
20092SOL     OW64063   4.501   2.383   3.196  0.1934 -0.4508 -0.2066
20092SOL    HW164064   4.426   2.356   3.247  0.3270 -0.4764 -0.0235
20092SOL    HW264065   4.466   2.401   3.109 -0.6966  2.8948  0.6870
20093SOL     OW64066   4.827   5.489   9.349 -0.2017  0.1714  0.4452
20093SOL    HW164067   4.738   5.505   9.319 -0.2300 -0.9406 -0.1326
20093SOL    HW264068   4.821   5.410   9.403  0.7891 -1.6213 -1.8492
20094SOL     OW64069   0.967   4.919   9.816 -0.1869 -0.3333  0.4265
20094SOL    HW164070   1.058   4.907   9.843 -0.0321 -1.7450 -0.6126
20094SOL    HW264071   0.917   4.859   9.872 -0.3887 -0.0926  0.5046
20095SOL     OW64072  10.302   4.950   2.890 -0.3867  0.1504 -0.1617
20095SOL    HW164073  10.221   4.988   2.925 -0.5063 -0.5367  0.3286
20095SOL    HW264074  10.314   4.869   2.939  1.1905  0.7626  0.5532
20096SOL     OW64075   1.284   7.577   9.117  0.6665 -0.3364 -0.1372
20096SOL    HW164076   1.262   7.499   9.168 -2.1047 -0.4788 -1.3797
20096SOL    HW264077   1.334   7.543   9.043 -0.3075 -0.9378 -0.5397
20097SOL     OW64078   2.581   6.640   3.300 -0.0032  0.2753 -0.0809
20097SOL    HW164079   2.588   6.584   3.377  0.0492 -1.5488 -1.3335
20097SOL    HW264080   2.668   6.635   3.259 -0.7202 -0.8469 -1.5573
20098SOL     OW64081   8.795   9.489   9.720 -0.5816  0.1133 -0.2583
20098SOL    HW164082   8.817   9.401   9.751 -1.2959 -0.2664 -0.8144
20098SOL    HW264083   8.771   9.537   9.799 -1.6731 -0.6366 -0.1141
20099SOL     OW64084   4.933   9.851   4.142 -0.4146 -0.0530  0.0179
20099SOL    HW164085   5.012   9.904   4.132  0.4347 -1.0420  1.2058
20099SOL    HW264086   4.893   9.850   4.055  0.3548  1.2614 -0.3675
20100SOL     OW64087  10.290   9.351   3.999 -0.3065  0.2858 -0.5861
20100SOL    HW164088  10.259   9.364   4.088  0.3201  0.0419 -0.3249
20100SOL    HW264089  10.346   9.426   3.982 -0.5596  0.4189 -0.8403
20101SOL     OW64090   6.230   8.562   8.424  0.2829  0.7460  0.0678
20101SOL    HW164091   6.161   8.586   8.486 -1.2539 -1.9414 -0.4188
20101SOL    HW264092   6.310   8.566   8.476 -0.8364 -0.5608  2.0775
20102SOL     OW64093   9.906   8.146   4.839 -0.6312 -0.2464 -0.2034
20102SOL    HW164094   9.920   8.151   4.933 -1.1098 -1.3221 -0.0677
20102SOL    HW264095   9.952   8.067   4.811 -1.8122 -0.8210 -0.6066
20103SOL     OW64096   7.445   9.446   1.272  0.1599  0.3228 -0.3949
20103SOL    HW164097   7.375   9.385   1.297 -0.2220  0.4152 -1.2103
20103SOL    HW264098   7.472   9.417   1.185 -1.4731  2.5389 -1.7539
20104SOL     OW64099   2.980   8.439   5.519 -0.5599  0.3148  0.0146
20104SOL    HW164100   3.056   8.412   5.468 -0.9781 -1.7463  0.3870
20104SOL    HW264101   3.009   8.519   5.564  1.8270 -1.0193  1.0676
20105SOL     OW64102   0.959   9.882   1.531  0.5025  0.3214  0.6839
20105SOL    HW164103   1.023   9.827   1.485 -0.0153 -0.3786  0.7775
20105SOL    HW264104   1.005   9.963   1.549  0.4277  1.0699 -2.0400
20106SOL     OW64105   4.317   5.253   5.279 -0.5169  0.3880  0.2648
20106SOL    HW164106   4.387   5.287   5.336  0.0775 -1.2601  0.5656
20106SOL    HW264107   4.322   5.158   5.289 -2.2088  0.1965 -0.4478
20107SOL     OW64108   7.301   7.129  10.000 -0.4481  0.0754  0.0661
20107SOL    HW164109   7.389   7.150   9.969 -0.4142 -1.1798 -0.7254
20107SOL    HW264110   7.308   7.040  10.035 -1.4382 -0.1062 -0.1775
20108SOL     OW64111   1.794   8.557   6.196 -0.1567  0.7346 -0.2759
20108SOL    HW164112   1.718   8.538   6.251 -1.0482  1.5551 -1.1756
20108SOL    HW264113   1.792   8.652   6.186  0.0222  0.6017 -1.6661
20109SOL     OW64114   5.362   0.360   5.608 -0.0590  0.3309 -0.3489
20109SOL    HW164115   5.369   0.312   5.690  1.3847 -0.5564 -0.9529
20109SOL    HW264116   5.411   0.308   5.545 -2.3191  0.2226 -2.1648
20110SOL     OW64117   3.744   5.353   5.873  0.1963 -0.5276  0.1238
20110SOL    HW164118   3.748   5.406   5.793  0.4070 -0.2982  0.2842
20110SOL    HW264119   3.666   5.299   5.862 -0.9965  1.0183  0.7161
20111SOL     OW64120   5.472   6.545   2.551  0.1702 -0.4820 -0.3307
20111SOL    HW164121   5.486   6.457   2.584 -0.1633 -1.8153 -3.3793
20111SOL    HW264122   5.521   6.548   2.468  0.5745  2.3899 -0.0955
20112SOL     OW64123   8.159   9.451   4.505  0.2901  0.0794  0.4123
20112SOL    HW164124   8.204   9.452   4.590  3.1484 -1.7979 -0.9282
20112SOL    HW264125   8.207   9.514   4.452 -1.9391  1.7948  0.2871
20113SOL     OW64126   0.040   6.846  10.316 -0.5075  0.2495 -0.4151
20113SOL    HW164127   0.116   6.881  10.270 -0.9608 -1.1043 -2.3171
20113SOL    HW264128  -0.035   6.880  10.267 -1.0113 -0.9701 -0.5228
20114SOL     OW64129   8.966   6.976   9.335 -0.6365 -0.2115  0.0664
20114SOL    HW164130   9.028   7.021   9.277  0.2373  0.2911  1.3564
20114SOL    HW264131   8.951   7.038   9.407 -0.6120 -1.3607  1.0944
20115SOL     OW64132   2.675   0.289   8.532  0.2959 -0.7991  0.2606
20115SOL    HW164133   2.630   0.261   8.452  0.7562  0.1495 -0.3447
20115SOL    HW264134   2.611   0.276   8.602 -1.0814  0.8443 -0.6166
20116SOL     OW64135   2.136   1.346   5.393 -0.2268  0.2928 -0.0814
20116SOL    HW164136   2.121   1.412   5.325 -0.3604 -0.2370 -0.5747
20116SOL    HW264137   2.137   1.263   5.346  0.0314 -0.0522  0.5225
20117SOL     OW64138   8.018   8.475   6.325 -0.3885 -0.0571 -0.1993
20117SOL    HW164139   8.077   8.415   6.279  0.5947  0.6987  0.0421
20117SOL    HW264140   7.980   8.422   6.395 -0.5145 -0.7283 -0.7538
20118SOL     OW64141   6.782   9.796   2.332  0.9615 -0.0906  0.0131
20118SOL    HW164142   6.770   9.846   2.412  2.8581 -2.6544  2.0921
20118SOL    HW264143   6.862   9.832   2.293  0.4233  0.6885 -0.4126
20119SOL     OW64144   6.717   1.050   6.587 -0.2308  0.0017  0.6364
20119SOL    HW164145   6.719   0.956   6.606 -0.1158 -0.3799 -1.0335
20119SOL    HW264146   6.707   1.092   6.672  1.2435 -1.4424  1.5935
20120SOL     OW64147  10.087   2.273   8.834 -0.3715  0.3064 -0.6202
20120SOL    HW164148  10.136   2.298   8.756 -0.6164  0.4846 -0.7154
20120SOL    HW264149  10.123   2.328   8.903  1.8560 -1.7964  0.0363
20121SOL     OW64150   5.517   6.580   5.533  0.7071 -0.2066 -0.1679
20121SOL    HW164151   5.443   6.549   5.585  0.4102  1.3961  0.4456
20121SOL    HW264152   5.496   6.672   5.515  1.4612 -0.3447 -1.9699
20122SOL     OW64153   3.039   3.788   8.897 -0.1184  0.2356 -0.2830
20122SOL    HW164154   3.050   3.717   8.834 -4.2628 -1.6862  0.8308
20122SOL    HW264155   3.090   3.759   8.973 -1.2103 -1.3248 -0.0895
20123SOL     OW64156   9.432   5.805   3.527  0.2127 -0.9308  0.4912
20123SOL    HW164157   9.350   5.773   3.562 -1.4511 -0.8231 -2.8801
20123SOL    HW264158   9.413   5.894   3.497  1.2498 -1.2124 -1.1620
20124SOL     OW64159  10.340   1.940   8.076 -0.0256  0.4273  0.0739
20124SOL    HW164160  10.367   2.001   8.007  1.0651  0.1890  0.2750
20124SOL    HW264161  10.391   1.861   8.060 -2.7633 -1.1919 -1.3125
20125SOL     OW64162   3.661   5.439   0.988 -0.1755 -0.2173 -0.0846
20125SOL    HW164163   3.604   5.362   0.983  0.6266 -0.8915  0.7650
20125SOL    HW264164   3.653   5.469   1.078 -0.8667  1.0297 -0.5363
20126SOL     OW64165   5.178   5.850   5.168  0.1766 -0.4168 -0.0206
20126SOL    HW164166   5.264   5.834   5.207 -0.0181  0.7812  0.9513
20126SOL    HW264167   5.155   5.767   5.126 -0.5955 -2.7520  4.3844
20127SOL     OW64168   8.694  10.054   0.394 -0.0750  0.4847  0.3896
20127SOL    HW164169   8.623  10.053   0.329  1.3140  0.1456 -1.2054
20127SOL    HW264170   8.649  10.064   0.478 -2.0042  0.2749 -0.5449
20128SOL     OW64171   6.058   8.623   3.279 -0.2906 -0.0886 -0.2658
20128SOL    HW164172   6.076   8.565   3.205 -0.1148 -1.5521  0.8731
20128SOL    HW264173   5.988   8.681   3.248  2.3525  2.0262 -2.8841
20129SOL     OW64174   9.745   3.205   9.431  0.0130  0.0784 -0.4557
20129SOL    HW164175   9.804   3.134   9.455 -0.9619 -0.5555  0.1428
20129SOL    HW264176   9.658   3.166   9.433 -0.5376  1.2636 -0.1894
20130SOL     OW64177   9.213   6.480   7.744 -0.2079  0.1163 -0.2926
20130SOL    HW164178   9.272   6.553   7.760 -0.4533  0.0996  0.8138
20130SOL    HW264179   9.174   6.498   7.658  0.2474  0.9192 -0.3383
20131SOL     OW64180   5.400   6.118   3.221  0.0590  0.6311 -0.6563
20131SOL    HW164181   5.393   6.117   3.317  1.6286  0.6330 -0.5106
20131SOL    HW264182   5.406   6.026   3.196  1.3648  0.6638 -0.5621
20132SOL     OW64183   7.353   1.806   7.544  0.9426 -0.0602 -0.3059
20132SOL    HW164184   7.348   1.863   7.620 -0.2012 -0.0693 -0.3672
20132SOL    HW264185   7.334   1.719   7.578  0.4619 -0.0705 -0.5878
20133SOL     OW64186   1.830   7.329   1.683  0.6589 -0.5950 -0.4188
20133SOL    HW164187   1.903   7.267   1.686  0.2219 -1.1138 -0.3788
20133SOL    HW264188   1.828   7.360   1.593  0.2794 -1.3762 -0.6923
20134SOL     OW64189   0.409   9.725   8.134 -0.1358  0.6962  0.1798
20134SOL    HW164190   0.363   9.796   8.088  0.0232 -0.9929 -2.8478
20134SOL    HW264191   0.499   9.731   8.103  0.0449 -0.3640  0.4575
20135SOL     OW64192   2.546   3.174   6.405 -1.1099 -0.7334 -0.1070
20135SOL    HW164193   2.504   3.125   6.476 -1.0036 -1.9440 -0.8627
20135SOL    HW264194   2.639   3.167   6.423 -1.0307 -1.9093 -0.9043
20136SOL     OW64195   9.978   3.691  10.272  0.3812 -0.5659  0.5783
20136SOL    HW164196   9.908   3.662  10.329  0.1892 -2.1071 -0.3786
20136SOL    HW264197  10.058   3.658  10.313  0.5067  0.6379  1.3327
20137SOL     OW64198   4.977   7.098   4.328  0.2832 -0.3592  0.1753
20137SOL    HW164199   4.910   7.155   4.368  0.7008  1.4419 -1.5391
20137SOL    HW264200   4.931   7.056   4.255  0.2847 -1.4139  0.7615
20138SOL     OW64201   9.469   1.882   6.436  0.2162 -0.2522  0.1222
20138SOL    HW164202   9.481   1.819   6.507  1.5515  1.3747  1.4182
20138SOL    HW264203   9.376   1.876   6.414 -0.0208 -1.4947  1.3076
20139SOL     OW64204   8.067   2.119   9.309 -0.1585  0.3046 -0.1630
20139SOL    HW164205   8.085   2.104   9.216 -0.5976 -3.0512  0.1741
20139SOL    HW264206   8.148   2.155   9.343  1.7434 -2.7853 -1.0447
20140SOL     OW64207   0.293   2.590   9.780 -0.6234 -0.0787  0.5900
20140SOL    HW164208   0.297   2.502   9.818 -1.1314  0.1455  1.1833
20140SOL    HW264209   0.200   2.605   9.765 -0.6030  0.6183  1.1190
20141SOL     OW64210   9.395   2.033   9.550  0.3751 -0.0104 -0.1553
20141SOL    HW164211   9.311   2.069   9.580  0.0607 -2.1455  1.8088
20141SOL    HW264212   9.378   2.003   9.461 -0.8235 -0.0234  0.0659
20142SOL     OW64213   6.036   8.112   7.013  0.1909  0.4454 -0.8870
20142SOL    HW164214   6.119   8.083   6.975 -0.3696  0.1771 -1.9573
20142SOL    HW264215   6.020   8.051   7.086  0.4270 -0.1675 -1.3343
20143SOL     OW64216   1.472   3.990   2.442  0.5133 -0.2050  0.0352
20143SOL    HW164217   1.475   4.085   2.451  1.6694 -0.2991  0.9110
20143SOL    HW264218   1.507   3.974   2.354  2.3182  0.1105  0.6516
20144SOL     OW64219   6.199   1.222   0.068  0.8386  0.5815  0.6594
20144SOL    HW164220   6.265   1.238   0.135  1.1938 -1.6081  0.8817
20144SOL    HW264221   6.217   1.134   0.037 -1.5250  0.2095  0.1865
20145SOL     OW64222   7.035   1.254   0.214 -0.4108  0.0579  0.1915
20145SOL    HW164223   7.129   1.243   0.197 -0.5918 -0.0534 -0.8197
20145SOL    HW264224   7.024   1.227   0.305  0.1914 -2.0751 -0.3038
20146SOL     OW64225   7.419   6.619   9.830 -0.8934  0.4409  0.2011
20146SOL    HW164226   7.347   6.612   9.893 -1.7112  2.3686 -0.4352
20146SOL    HW264227   7.422   6.712   9.808  1.1270  0.2337 -0.6039
20147SOL     OW64228   8.452   3.985   3.881  0.0020  0.6546  0.5018
20147SOL    HW164229   8.508   3.929   3.935 -0.8238 -0.5701  0.1282
20147SOL    HW264230   8.436   4.062   3.934 -1.3108 -0.7719  2.3125
20148SOL     OW64231   5.971   5.697   9.239 -0.5197 -0.1312  0.1740
20148SOL    HW164232   6.057   5.732   9.215 -0.5930  0.2637  0.4895
20148SOL    HW264233   5.983   5.663   9.328 -0.7630  0.1824  0.3268
20149SOL     OW64234   8.142   5.021   6.460  0.3523  0.4805 -0.3873
20149SOL    HW164235   8.170   4.940   6.503  0.0304  1.4860  1.9117
20149SOL    HW264236   8.223   5.062   6.431  0.5129 -0.6619 -1.6706
20150SOL     OW64237   1.424   7.520   8.211  0.4742 -0.0299  0.0391
20150SOL    HW164238   1.463   7.607   8.210 -1.7560  1.0599 -1.8811
20150SOL    HW264239   1.395   7.507   8.301  0.2872  1.4878  0.2192
20151SOL     OW64240   1.055  10.210   1.777  0.6019  0.3470  0.6099
20151SOL    HW164241   1.028  10.271   1.708 -0.6789  0.9847  1.6230
20151SOL    HW264242   1.122  10.155   1.736  0.3743  1.1533 -0.9187
20152SOL     OW64243   7.875   2.317   0.386  0.4581  0.5739  0.0306
20152SOL    HW164244   7.872   2.222   0.395  1.6421  0.3599 -1.4335
20152SOL    HW264245   7.785   2.342   0.366 -0.0275 -0.1246  1.2625
20153SOL     OW64246   1.999   7.587   7.515  0.3716 -0.3033  0.1358
20153SOL    HW164247   1.920   7.536   7.499  0.9369 -1.1989  0.1052
20153SOL    HW264248   1.984   7.670   7.470 -0.0524 -0.9316 -0.9337
20154SOL     OW64249   3.466   8.533   0.471 -0.3750  0.7901 -0.1078
20154SOL    HW164250   3.451   8.588   0.394 -1.2736  0.7298  0.0162
20154SOL    HW264251   3.500   8.450   0.435 -2.3762  0.1369 -0.6138
20155SOL     OW64252   9.392   6.630   2.342  0.2035  0.0070  0.4620
20155SOL    HW164253   9.474   6.614   2.296  1.1705  0.1588  2.0605
20155SOL    HW264254   9.339   6.681   2.280  0.2875 -2.1550 -1.5273
20156SOL     OW64255   9.116   0.555   6.597 -0.0573 -0.3393  0.1815
20156SOL    HW164256   9.070   0.553   6.513  0.4542  0.1110 -0.1150
20156SOL    HW264257   9.055   0.513   6.659  0.2588 -2.2514 -0.7460
20157SOL     OW64258   9.756   2.401   9.594  0.0021 -0.2675 -0.0905
20157SOL    HW164259   9.720   2.477   9.548  1.6643  1.5309  1.4426
20157SOL    HW264260   9.681   2.342   9.604 -1.2672  1.0004 -1.5893
20158SOL     OW64261   4.696   3.102   2.158 -0.6873 -0.3133  0.3850
20158SOL    HW164262   4.751   3.175   2.130 -0.4095 -1.1050 -1.1806
20158SOL    HW264263   4.607   3.130   2.135 -0.5285 -0.6777 -0.6843
20159SOL     OW64264   7.227   7.570  10.131 -1.0649  0.4306 -0.0407
20159SOL    HW164265   7.253   7.497  10.187 -1.3991  0.4776  0.1804
20159SOL    HW264266   7.308   7.599  10.089 -0.8902  0.0990  0.0689
20160SOL     OW64267   2.978   9.957   9.129 -0.1407 -0.0324 -0.1331
20160SOL    HW164268   3.022  10.033   9.165 -0.6743 -0.2378  1.0008
20160SOL    HW264269   2.922   9.992   9.059  0.6715  0.4107 -0.5723
20161SOL     OW64270   0.403   1.920   1.634  0.0597  0.6201 -0.1130
20161SOL    HW164271   0.364   1.848   1.684  0.1476  0.0533 -0.8386
20161SOL    HW264272   0.358   1.918   1.549  0.5078  1.0122 -0.3665
20162SOL     OW64273   6.896   3.933   7.245  0.0916 -0.5920  0.7797
20162SOL    HW164274   6.805   3.907   7.229 -0.7448  1.3626  1.9028
20162SOL    HW264275   6.948   3.872   7.194 -1.8747 -1.4670 -0.2961
20163SOL     OW64276   5.308   0.836   4.268 -0.2786  0.1285 -0.3788
20163SOL    HW164277   5.309   0.779   4.345 -1.7918  2.3442  1.4130
20163SOL    HW264278   5.223   0.821   4.227 -0.2689  0.3353 -0.4794
20164SOL     OW64279   2.796   6.285   9.030 -0.0649 -0.1409  0.3287
20164SOL    HW164280   2.750   6.263   9.111 -1.7411 -0.0007 -0.5366
20164SOL    HW264281   2.747   6.359   8.994  0.9639  0.1323 -0.5572
20165SOL     OW64282   7.543   4.909   6.698  0.1817  0.2613  0.7670
20165SOL    HW164283   7.606   4.884   6.630 -1.4904 -2.3147 -0.0141
20165SOL    HW264284   7.477   4.960   6.652 -0.1265 -0.1282  0.7656
20166SOL     OW64285   0.332   9.602   2.776 -0.0091  0.0762  0.1478
20166SOL    HW164286   0.240   9.629   2.774  0.1544  0.6492 -0.0531
20166SOL    HW264287   0.330   9.508   2.793 -0.6514 -0.0141 -0.3914
20167SOL     OW64288   2.094   6.614   2.258  0.3261  0.6568 -0.6601
20167SOL    HW164289   2.082   6.593   2.165 -0.5905 -0.2991 -0.3458
20167SOL    HW264290   2.028   6.562   2.303  1.0132  0.8057  0.5687
20168SOL     OW64291   2.274   8.474   9.650  0.1556  0.6193  0.8058
20168SOL    HW164292   2.301   8.564   9.635  0.9688  0.2392 -0.1208
20168SOL    HW264293   2.257   8.439   9.562  1.6720 -0.6676  0.9947
20169SOL     OW64294   8.334   6.812   8.935  0.3024 -0.3070 -0.4206
20169SOL    HW164295   8.299   6.762   8.862 -2.7657  2.0400 -0.7287
20169SOL    HW264296   8.263   6.816   8.998  1.6182  0.8415  1.0693
20170SOL     OW64297   0.860   5.284   2.114 -0.4950 -0.2575  0.0420
20170SOL    HW164298   0.950   5.288   2.081  0.0886  2.0498  1.6529
20170SOL    HW264299   0.833   5.194   2.097  1.6649 -0.7061 -1.5863
20171SOL     OW64300   0.228   0.367   6.213  0.0934 -0.4471  0.0660
20171SOL    HW164301   0.258   0.298   6.153  0.3521 -0.4186  0.1601
20171SOL    HW264302   0.242   0.448   6.165 -2.4535 -0.5691 -1.0077
20172SOL     OW64303   2.361   1.097   6.599  0.3274  0.0304  0.0888
20172SOL    HW164304   2.425   1.162   6.628 -1.1697  1.5472  0.1526
20172SOL    HW264305   2.292   1.149   6.557 -2.1807 -1.2224  2.3738
20173SOL     OW64306   2.954   2.647   5.485  0.4002  0.4186  0.3102
20173SOL    HW164307   2.858   2.652   5.482  0.4355  0.7683 -0.3714
20173SOL    HW264308   2.977   2.592   5.410  0.6900 -0.4083  0.9866
20174SOL     OW64309   0.468   0.739   7.830  0.4130 -0.1971 -0.1822
20174SOL    HW164310   0.394   0.779   7.784 -0.6028  0.7584  2.0912
20174SOL    HW264311   0.445   0.646   7.834  1.3545 -0.6176 -2.9543
20175SOL     OW64312   2.940   5.034   4.389  0.1481  0.5154  0.2313
20175SOL    HW164313   2.883   5.108   4.410 -0.5434 -0.2212  1.0398
20175SOL    HW264314   2.997   5.025   4.465 -0.6286 -0.5576  0.7131
20176SOL     OW64315   7.712   8.122  10.116  0.2943 -0.3871  0.4861
20176SOL    HW164316   7.622   8.103  10.142 -0.0368  0.3772 -0.0738
20176SOL    HW264317   7.704   8.174  10.036  1.2065  0.2908  0.8056
20177SOL     OW64318   5.774   4.883   8.202 -0.2165  0.1372  0.1947
20177SOL    HW164319   5.698   4.918   8.156 -0.1267 -1.6259 -1.4319
20177SOL    HW264320   5.738   4.819   8.264 -0.0839 -1.2954 -1.1423
20178SOL     OW64321   2.936   6.897   0.271  0.0695 -0.0778  0.0453
20178SOL    HW164322   2.878   6.917   0.197  0.1230  0.4103  0.1309
20178SOL    HW264323   2.963   6.983   0.304  0.4235 -0.2988  0.3357
20179SOL     OW64324   3.056   4.831   6.452  0.1956 -0.5598 -0.1636
20179SOL    HW164325   3.119   4.759   6.456  2.3978  1.2607  1.1405
20179SOL    HW264326   3.058   4.859   6.361  1.7408 -0.2359 -0.0686
20180SOL     OW64327   7.581   8.958   5.709  0.5845  0.0461  0.2803
20180SOL    HW164328   7.607   8.871   5.678 -2.0264 -1.0707  1.0061
20180SOL    HW264329   7.532   8.995   5.636 -1.4959 -0.6658  1.2485
20181SOL     OW64330   7.613   0.303   4.870  0.2357 -0.7033 -0.2206
20181SOL    HW164331   7.662   0.378   4.905 -0.5111  0.3121 -1.2588
20181SOL    HW264332   7.656   0.284   4.786  0.6754 -1.7173  0.2291
20182SOL     OW64333   6.169   4.907   3.731  0.6588 -0.2830  0.3196
20182SOL    HW164334   6.211   4.904   3.645 -1.1010 -0.3069 -0.5919
20182SOL    HW264335   6.196   4.826   3.774  2.9113  0.5076  0.5013
20183SOL     OW64336   4.429   7.042   0.194  0.3845 -0.3838 -0.1106
20183SOL    HW164337   4.516   7.003   0.200  0.0536 -1.5449 -2.2135
20183SOL    HW264338   4.370   6.969   0.180 -0.4642  0.6489 -2.4235
20184SOL     OW64339   3.419   8.541   8.029  0.4064  0.1884  0.5411
20184SOL    HW164340   3.462   8.511   7.949  1.4821  1.0696  0.7692
20184SOL    HW264341   3.389   8.629   8.010  1.7519  0.8742  1.4739
20185SOL     OW64342   7.246  10.217   4.602 -0.4363  0.0794  0.3893
20185SOL    HW164343   7.242  10.194   4.695 -1.7302  2.2851  0.9605
20185SOL    HW264344   7.215  10.308   4.599  2.3159  1.1012 -1.8344
20186SOL     OW64345   7.454   6.413   3.937  0.3138 -0.0563  0.2665
20186SOL    HW164346   7.366   6.451   3.941  1.7638  3.7424  0.6045
20186SOL    HW264347   7.463   6.384   3.846 -0.7469  1.0256 -0.2134
20187SOL     OW64348   7.629   5.474   6.112 -0.0611 -0.3935 -0.0398
20187SOL    HW164349   7.651   5.521   6.192  1.3469  1.4904 -1.4295
20187SOL    HW264350   7.707   5.424   6.090 -1.3578 -3.1563  1.1228
20188SOL     OW64351   9.892   8.651   6.774  0.2561 -0.1795  0.2444
20188SOL    HW164352   9.977   8.639   6.732  0.0448  1.7183 -0.8059
20188SOL    HW264353   9.853   8.563   6.775  0.6270 -0.4566 -2.7614
20189SOL     OW64354   2.618   4.100   2.858  0.4421  0.1327 -0.5337
20189SOL    HW164355   2.541   4.155   2.874  0.7145  0.3317  0.1617
20189SOL    HW264356   2.685   4.137   2.915  0.9223 -0.3136 -0.8041
20190SOL     OW64357   8.497   7.533   8.370 -0.0437 -0.2536  0.1130
20190SOL    HW164358   8.409   7.517   8.404 -0.4023  1.0515 -0.1488
20190SOL    HW264359   8.543   7.449   8.381 -1.0317 -0.6847  1.1036
20191SOL     OW64360   0.324  10.199   5.556  0.5937  0.0479 -0.0734
20191SOL    HW164361   0.233  10.219   5.534  0.6732  0.6905  0.1794
20191SOL    HW264362   0.359  10.159   5.476  0.3401  0.6160 -0.4746
20192SOL     OW64363   4.070   3.800   5.954 -0.3406  0.5084  0.0193
20192SOL    HW164364   4.008   3.814   5.882 -0.0348 -1.1185 -0.5910
20192SOL    HW264365   4.041   3.719   5.995 -0.3372  1.2717  1.5902
20193SOL     OW64366  10.274   0.757   7.691  0.1999  0.0942 -0.0357
20193SOL    HW164367  10.330   0.684   7.720 -0.3174  0.4662  2.0062
20193SOL    HW264368  10.330   0.834   7.697 -0.1163  0.2725  0.6811
20194SOL     OW64369   0.230   6.301   8.932  0.3552  0.1591 -0.5764
20194SOL    HW164370   0.219   6.383   8.980 -1.2526  0.4481 -1.3682
20194SOL    HW264371   0.216   6.326   8.840  1.9406 -0.6313 -1.0624
20195SOL     OW64372   3.713   9.356   8.620 -0.2026  0.2467  0.4232
20195SOL    HW164373   3.770   9.393   8.552  0.4479 -0.3981  0.6055
20195SOL    HW264374   3.628   9.397   8.605  0.0464  0.4487 -0.5030
20196SOL     OW64375   7.188   6.032  10.100 -0.5664 -0.1241 -0.0781
20196SOL    HW164376   7.099   6.044  10.135 -1.6108 -0.2059 -2.5010
20196SOL    HW264377   7.189   5.942  10.069  1.4269 -1.1196  2.4963
20197SOL     OW64378   3.326   0.497   8.565  0.2340  0.5933  0.9159
20197SOL    HW164379   3.411   0.474   8.604  1.3247  2.2620 -0.3328
20197SOL    HW264380   3.338   0.482   8.471 -1.6419 -1.2969  0.8931
20198SOL     OW64381   3.948   3.895   1.357 -0.1423 -0.4593 -0.0877
20198SOL    HW164382   3.876   3.958   1.356  1.6782  1.7444 -0.9583
20198SOL    HW264383   3.967   3.880   1.449  0.2741  1.3878  0.1529
20199SOL     OW64384   7.426   9.537   2.144  0.0203  0.0418  0.2525
20199SOL    HW164385   7.501   9.531   2.085  0.1152 -2.2059  0.5093
20199SOL    HW264386   7.355   9.496   2.096 -0.3203 -0.3433  1.0735
20200SOL     OW64387   5.666   6.693   0.834  0.2844 -0.5541  0.3912
20200SOL    HW164388   5.580   6.718   0.800  0.4197 -1.1393 -0.4147
20200SOL    HW264389   5.695   6.621   0.777  0.8560 -1.0640  1.3030
20201SOL     OW64390   6.599   1.126   1.485 -0.0849  0.2121  0.1387
20201SOL    HW164391   6.572   1.215   1.506 -0.7534  0.2915 -0.9751
20201SOL    HW264392   6.572   1.074   1.561 -1.1492  0.7045  0.1172
20202SOL     OW64393   3.898   7.065   2.626 -0.3742  0.0996  0.5886
20202SOL    HW164394   3.817   7.062   2.676 -0.1303 -2.0474  0.9538
20202SOL    HW264395   3.937   6.979   2.638  1.9015  1.0106  0.2978
20203SOL     OW64396   9.045   5.621   4.832 -0.1848 -0.8277 -0.3489
20203SOL    HW164397   8.962   5.625   4.785  0.4704  0.8522 -1.4500
20203SOL    HW264398   9.081   5.535   4.809 -0.9131 -0.9539 -1.0646
20204SOL     OW64399   4.585   6.785   9.295  0.2229  0.5097 -0.6265
20204SOL    HW164400   4.490   6.794   9.294  0.1054 -0.1277 -3.4144
20204SOL    HW264401   4.617   6.873   9.273 -0.0709 -0.2355 -5.0540
20205SOL     OW64402   1.028   7.862   8.050 -0.3197  0.1223 -0.6540
20205SOL    HW164403   0.954   7.809   8.020 -2.2350  1.7757  0.8299
20205SOL    HW264404   1.058   7.819   8.130 -1.6667  0.9903  0.3737
20206SOL     OW64405   9.321   6.475   0.588 -0.0257 -0.1692 -0.3005
20206SOL    HW164406   9.261   6.543   0.620  0.5551  0.8356 -1.2614
20206SOL    HW264407   9.338   6.500   0.497  2.5037  0.0636  0.1691
20207SOL     OW64408   3.868   8.870   0.719  0.2714 -0.2817  0.5278
20207SOL    HW164409   3.945   8.907   0.764  1.1384  0.6870 -1.6290
20207SOL    HW264410   3.796   8.929   0.743  0.5655 -0.1687  1.1619
20208SOL     OW64411   8.363   0.645   1.712 -0.0236 -0.3765  0.0144
20208SOL    HW164412   8.351   0.596   1.793 -0.3202  2.4838  1.8524
20208SOL    HW264413   8.282   0.631   1.663 -0.6011 -0.7509  1.0359
20209SOL     OW64414   9.925   4.520   6.609  0.0065 -0.3111  0.2996
20209SOL    HW164415   9.898   4.597   6.659  3.9390  1.7883 -0.4001
20209SOL    HW264416   9.985   4.474   6.667  0.8499 -0.5386 -0.7371
20210SOL     OW64417   9.933   5.207   5.865  0.0781 -0.2269 -0.3658
20210SOL    HW164418   9.897   5.237   5.781 -2.2150 -0.1261  0.5663
20210SOL    HW264419   9.921   5.112   5.864  0.9438 -0.3445 -0.5139
20211SOL     OW64420   6.719   4.179   5.765  0.1996 -0.5346 -0.1840
20211SOL    HW164421   6.640   4.210   5.811  0.0329 -1.1491 -0.0474
20211SOL    HW264422   6.754   4.110   5.821  0.7080 -0.4189 -0.3591
20212SOL     OW64423   5.746   7.167  10.269  0.2028 -0.4944 -0.3205
20212SOL    HW164424   5.828   7.130  10.238  1.8243  2.8017 -0.3751
20212SOL    HW264425   5.697   7.189  10.190  0.4400 -0.1144 -0.3649
20213SOL     OW64426   8.448   5.107   5.125 -0.4958 -0.3825  0.5631
20213SOL    HW164427   8.397   5.145   5.196  1.2020 -0.0373  1.6590
20213SOL    HW264428   8.466   5.181   5.067 -0.3137 -0.2620  0.7694
20214SOL     OW64429   3.149   1.114   2.150 -0.1426  0.3723 -0.5088
20214SOL    HW164430   3.113   1.087   2.234  0.4772 -0.0080 -0.3558
20214SOL    HW264431   3.115   1.050   2.088  0.7500 -0.3725 -0.2616
20215SOL     OW64432   4.832   3.272   6.383 -0.1141 -0.2614  0.4889
20215SOL    HW164433   4.847   3.202   6.320 -1.8110 -0.5092  0.3072
20215SOL    HW264434   4.889   3.250   6.457  0.3941 -1.0727 -0.1180
20216SOL     OW64435   8.428   2.155   1.494  0.1091 -0.2096 -0.0568
20216SOL    HW164436   8.498   2.091   1.481  0.1117 -0.6297  1.7917
20216SOL    HW264437   8.347   2.103   1.493 -0.3870  0.4026 -3.3198
20217SOL     OW64438   4.771   6.043   8.251 -0.4198 -0.0286  0.5621
20217SOL    HW164439   4.806   6.010   8.333 -1.1150 -0.3457  0.7356
20217SOL    HW264440   4.761   5.966   8.195  1.0436  0.3040 -0.2208
20218SOL     OW64441   8.942   7.950   0.934 -0.3026 -0.1719 -0.6578
20218SOL    HW164442   8.999   7.961   0.858  0.7364 -1.4287 -0.1072
20218SOL    HW264443   8.853   7.954   0.899  0.1592 -1.1409 -2.0168
20219SOL     OW64444   0.028   0.024   8.657  0.3880  0.1081  0.5936
20219SOL    HW164445   0.036   0.111   8.695  1.1166 -0.0403  0.7885
20219SOL    HW264446   0.116   0.002   8.627  0.5910 -1.2239  2.0246
20220SOL     OW64447   5.984   5.346   8.440 -0.0724 -0.5613  0.4085
20220SOL    HW164448   6.071   5.309   8.444 -0.1022 -1.1175 -2.3847
20220SOL    HW264449   5.927   5.272   8.419 -1.0865 -0.0380  1.2250
20221SOL     OW64450   2.012   4.423   9.427  0.0172  0.3106  0.1057
20221SOL    HW164451   1.980   4.428   9.517 -3.2352 -1.3177 -0.8132
20221SOL    HW264452   1.966   4.493   9.381  0.8772  0.4944 -0.4940
20222SOL     OW64453   2.512   2.387   9.591 -0.8571 -0.5358  0.1973
20222SOL    HW164454   2.503   2.431   9.506 -1.6051  1.1120  1.0669
20222SOL    HW264455   2.460   2.441   9.651  3.1429  0.9987  2.6491
20223SOL     OW64456   0.565   8.266   7.463 -0.2028 -0.3320  0.7675
20223SOL    HW164457   0.521   8.289   7.545 -1.6102 -0.0470 -0.0362
20223SOL    HW264458   0.522   8.186   7.433 -0.0615 -0.1530  0.0560
20224SOL     OW64459   6.909   1.888   1.704 -0.1418  0.4107  0.2732
20224SOL    HW164460   6.821   1.910   1.674 -0.3896 -1.0246 -0.1260
20224SOL    HW264461   6.962   1.886   1.625 -0.2953 -1.1146  0.1862
20225SOL     OW64462   6.494   2.852   7.318  0.2673  0.1436 -0.3693
20225SOL    HW164463   6.523   2.943   7.307  1.8530 -0.3697 -0.7022
20225SOL    HW264464   6.477   2.821   7.229 -0.7501  0.2525 -0.2187
20226SOL     OW64465   6.085   6.967   2.569 -0.1590  0.2909 -0.0144
20226SOL    HW164466   6.167   6.945   2.613  0.1800 -0.6480 -1.0554
20226SOL    HW264467   6.033   6.887   2.576  0.6262 -0.5853 -2.8614
20227SOL     OW64468   7.208   2.274   9.132  0.0020  0.2755 -0.1857
20227SOL    HW164469   7.248   2.214   9.195  0.6293  2.4961  1.6591
20227SOL    HW264470   7.252   2.256   9.049  0.7382 -1.2182  0.5053
20228SOL     OW64471   1.236   3.942   8.022 -0.0080 -0.4463 -0.6114
20228SOL    HW164472   1.318   3.974   8.058  0.6131 -2.6889  0.1658
20228SOL    HW264473   1.169   3.979   8.079  0.6878 -0.7124  0.4175
20229SOL     OW64474   6.841   6.989   9.285  0.2774 -0.3038 -0.4407
20229SOL    HW164475   6.780   7.059   9.308  0.5453 -0.5745  1.2385
20229SOL    HW264476   6.789   6.909   9.294  0.6283 -0.4740  0.1389
20230SOL     OW64477   6.046   0.551   6.464 -0.4888 -0.1105  0.1020
20230SOL    HW164478   5.990   0.617   6.506  0.4295  0.4054  0.5484
20230SOL    HW264479   6.119   0.539   6.525 -0.4175 -1.2312 -0.1855
20231SOL     OW64480   7.337   9.499   0.719 -0.3676 -0.3949  0.3430
20231SOL    HW164481   7.423   9.536   0.695 -1.0154  0.4084 -0.8471
20231SOL    HW264482   7.335   9.504   0.815 -0.1150  2.0570  0.3024
20232SOL     OW64483   0.653   4.613   8.896 -0.2534  0.0084  0.3050
20232SOL    HW164484   0.733   4.665   8.883  0.9495 -1.7143  0.5335
20232SOL    HW264485   0.628   4.631   8.986 -0.1577  0.5861  0.2247
20233SOL     OW64486   3.180   4.290   9.619  0.3206  0.2601 -0.3759
20233SOL    HW164487   3.156   4.201   9.591  0.3855  0.6277 -1.6971
20233SOL    HW264488   3.260   4.279   9.669 -2.1665 -0.9578  3.7766
20234SOL     OW64489   9.691   4.187   7.937  0.1706  0.1913  0.2102
20234SOL    HW164490   9.651   4.168   8.022  0.7003 -1.6553  0.0860
20234SOL    HW264491   9.768   4.240   7.958 -0.4242  0.8673  0.7423
20235SOL     OW64492   5.723   7.430   4.197  0.2781  0.1607  0.5240
20235SOL    HW164493   5.784   7.409   4.126 -0.1912 -1.9083  0.6776
20235SOL    HW264494   5.651   7.477   4.153  0.4840 -0.1836 -0.2033
20236SOL     OW64495   0.490   2.131   9.756  0.1467 -0.0596 -0.5147
20236SOL    HW164496   0.549   2.059   9.778  0.2871 -0.3058 -1.6697
20236SOL    HW264497   0.405   2.102   9.788  0.6001  0.2872  1.1430
20237SOL     OW64498   3.536   2.921   4.083  0.3644  0.0625 -0.5124
20237SOL    HW164499   3.535   2.905   4.177 -2.1030  1.1981 -0.2685
20237SOL    HW264500   3.596   2.994   4.071  2.0430 -1.1927 -0.0961
20238SOL     OW64501   9.987   1.932   0.831  0.3807 -0.3437  0.1347
20238SOL    HW164502  10.046   1.962   0.762  0.9563  1.0900  1.2097
20238SOL    HW264503   9.925   1.875   0.785  0.1554  1.2847 -1.7556
20239SOL     OW64504   1.121   9.771  10.320  0.6403 -0.4777 -0.2777
20239SOL    HW164505   1.216   9.766  10.307  0.6710  1.0819 -0.9520
20239SOL    HW264506   1.095   9.683  10.345  2.2172 -1.0189 -0.4331
20240SOL     OW64507   5.239   8.100   8.847 -0.1155  0.4568 -0.0188
20240SOL    HW164508   5.243   8.008   8.821  0.0261 -0.1961  2.1069
20240SOL    HW264509   5.315   8.141   8.806 -0.3285 -0.2950 -1.1920
20241SOL     OW64510   0.295   0.116   3.169 -0.0888  0.2117  0.1921
20241SOL    HW164511   0.352   0.102   3.094  0.3704  2.0409  0.1544
20241SOL    HW264512   0.340   0.073   3.242  0.4876  0.1665 -0.1845
20242SOL     OW64513   6.801   9.947   6.561  0.0201  0.3655 -0.2227
20242SOL    HW164514   6.798  10.035   6.523 -0.3604 -0.0202 -1.1113
20242SOL    HW264515   6.876   9.905   6.519  0.2013  0.2641  0.1986
20243SOL     OW64516   8.755   2.691   6.361 -0.0481 -0.3269 -0.3871
20243SOL    HW164517   8.748   2.615   6.419 -0.7647 -0.2132 -0.3235
20243SOL    HW264518   8.674   2.740   6.376  1.1148  1.3456  0.8494
20244SOL     OW64519  10.064   8.077   5.372 -0.2413  0.1917  0.2921
20244SOL    HW164520  10.150   8.117   5.360 -0.0856 -0.2498 -0.1464
20244SOL    HW264521  10.014   8.140   5.424 -0.2915  1.3617 -1.0924
20245SOL     OW64522   6.788   6.196   0.326  0.7215 -0.3905 -0.3393
20245SOL    HW164523   6.753   6.279   0.357 -0.5241 -0.3674 -1.7018
20245SOL    HW264524   6.711   6.141   0.313  1.4036 -1.2231 -0.9541
20246SOL     OW64525   2.287   7.158   4.440  0.2282  0.4499 -0.1649
20246SOL    HW164526   2.348   7.191   4.507 -1.5383  0.4598  1.5290
20246SOL    HW264527   2.268   7.234   4.386  1.1902  0.5991 -0.3237
20247SOL     OW64528   5.132   2.452   6.876  0.0250 -0.2398  0.4608
20247SOL    HW164529   5.049   2.496   6.890 -0.0740 -0.6135  1.0789
20247SOL    HW264530   5.198   2.514   6.908 -0.1751 -0.9342  2.3268
20248SOL     OW64531   1.493   0.486   8.383 -0.3577  0.2136 -0.2379
20248SOL    HW164532   1.479   0.578   8.405 -1.4358  0.4647 -1.8130
20248SOL    HW264533   1.469   0.480   8.290 -1.2650 -1.8565  0.0867
20249SOL     OW64534   6.621   7.836   3.104  0.2967 -0.1057  0.4891
20249SOL    HW164535   6.585   7.814   3.018  1.5570  0.0176 -0.0975
20249SOL    HW264536   6.689   7.770   3.119 -0.6916 -0.8355  1.9441
20250SOL     OW64537   6.352   5.852   2.901  0.0762 -0.0319 -0.0483
20250SOL    HW164538   6.374   5.802   2.980  1.4575  0.8877  0.1887
20250SOL    HW264539   6.420   5.827   2.838 -0.4323  0.0019 -0.6183
20251SOL     OW64540   0.370   4.046   0.066  0.2694 -0.3803 -0.0282
20251SOL    HW164541   0.309   4.057   0.140 -0.1036 -0.6388 -0.2947
20251SOL    HW264542   0.421   3.968   0.088  1.1210  0.3346  0.6164
20252SOL     OW64543   0.078   0.829   9.236  0.6639 -0.6374 -0.1432
20252SOL    HW164544   0.062   0.921   9.218  2.3910 -0.5232 -1.3825
20252SOL    HW264545  -0.002   0.784   9.205 -1.8928  0.6084  3.9085
20253SOL     OW64546   3.262   1.920   0.959  0.5355  0.3559 -0.1753
20253SOL    HW164547   3.240   1.888   1.046  2.0599  0.9780  0.4830
20253SOL    HW264548   3.215   1.862   0.899  1.2826 -1.5646  1.0115
20254SOL     OW64549   1.058   4.136   8.137 -0.1277 -0.0498 -0.6017
20254SOL    HW164550   1.034   4.123   8.229  0.4766 -1.8439 -0.6490
20254SOL    HW264551   1.065   4.231   8.127 -0.8266  0.2130  1.0298
20255SOL     OW64552   6.809   4.520   2.551  0.2286  0.0343  0.3415
20255SOL    HW164553   6.830   4.521   2.644  0.4749  0.6590  0.2781
20255SOL    HW264554   6.869   4.582   2.511 -0.2347  0.1758 -0.1578
20256SOL     OW64555   7.382   5.581   9.316 -0.9477  0.4230 -0.1122
20256SOL    HW164556   7.415   5.636   9.244 -0.8593 -1.3427 -1.4820
20256SOL    HW264557   7.288   5.577   9.302 -0.8162 -0.8208 -0.8571
20257SOL     OW64558   2.118   3.463   5.235 -0.1032 -0.1228 -0.2433
20257SOL    HW164559   2.145   3.544   5.192  0.9631  0.4111  1.3756
20257SOL    HW264560   2.073   3.491   5.314 -1.2782 -1.1095 -0.5282
20258SOL     OW64561   8.754   5.101   7.007  0.7912  0.0180  0.8138
20258SOL    HW164562   8.697   5.104   7.083  0.3834 -1.3418  0.5825
20258SOL    HW264563   8.830   5.051   7.035  1.0927  0.3511  0.6071
20259SOL     OW64564  10.174  10.068   3.459 -0.4663 -0.0494  0.4646
20259SOL    HW164565  10.134  10.011   3.524  1.2255 -1.1064  0.6328
20259SOL    HW264566  10.229  10.128   3.510 -0.4543  0.2276  0.1290
20260SOL     OW64567   1.101   5.119   6.419 -0.5364 -0.4605  0.2468
20260SOL    HW164568   1.118   5.190   6.358  0.1086 -1.8002 -1.2220
20260SOL    HW264569   1.187   5.084   6.440 -0.9059 -1.9487 -0.5490
20261SOL     OW64570   1.063   6.005   7.467  0.0955  0.0057  0.6663
20261SOL    HW164571   1.062   6.010   7.562 -0.3270 -1.7465  0.7906
20261SOL    HW264572   1.139   5.951   7.446 -1.8410 -2.7683  0.2829
20262SOL     OW64573   1.101   4.334   2.614 -0.3806 -0.4169 -0.1276
20262SOL    HW164574   1.172   4.336   2.677 -0.4489  1.3395 -0.0592
20262SOL    HW264575   1.023   4.359   2.664 -0.9548 -1.7059 -0.3331
20263SOL     OW64576   6.030   0.856   9.505  0.0811  0.1840  0.1180
20263SOL    HW164577   5.950   0.906   9.516  0.6002  1.0654  0.0099
20263SOL    HW264578   6.044   0.813   9.589 -1.4787 -1.4990 -0.4169
20264SOL     OW64579   4.339   4.408   2.743 -0.0353  0.5570 -0.2080
20264SOL    HW164580   4.367   4.364   2.823  0.7485  1.9244  0.3164
20264SOL    HW264581   4.256   4.367   2.720  0.4868 -0.9374  0.4095
20265SOL     OW64582   3.947   0.066   3.542 -0.0626 -0.0196  0.0673
20265SOL    HW164583   3.887   0.031   3.476 -2.8726  1.6226  1.5546
20265SOL    HW264584   3.940   0.006   3.616 -0.5940  0.6092  0.5496
20266SOL     OW64585   0.786   1.247   2.434 -0.0324  0.0545  0.1149
20266SOL    HW164586   0.693   1.236   2.414  0.0790  0.3037 -0.6064
20266SOL    HW264587   0.788   1.280   2.524 -0.7928  2.3602 -0.6358
20267SOL     OW64588   4.165   1.247   9.016 -0.1804  0.3117 -0.0844
20267SOL    HW164589   4.125   1.328   8.985  0.2883 -0.1337 -1.9649
20267SOL    HW264590   4.252   1.246   8.975  1.2363  0.5134  2.6684
20268SOL     OW64591   6.457   6.388   6.075  0.5136  0.7068 -0.3006
20268SOL    HW164592   6.455   6.395   6.170  1.0302 -0.2614 -0.2065
20268SOL    HW264593   6.527   6.325   6.057 -0.8347 -0.5829 -1.2269
20269SOL     OW64594   7.095   6.705   8.594  0.0003  0.1927 -0.7419
20269SOL    HW164595   7.049   6.685   8.676  0.1766 -0.8527 -0.8857
20269SOL    HW264596   7.182   6.734   8.623 -0.0805  0.2399 -0.5418
20270SOL     OW64597   0.589   7.725   1.346  0.3340 -0.2936 -0.1407
20270SOL    HW164598   0.506   7.754   1.308  0.1143  0.0743  0.6067
20270SOL    HW264599   0.582   7.630   1.349 -0.7807 -0.1921  1.4933
20271SOL     OW64600   4.891   5.941   3.369 -0.0539  0.2803  0.5712
20271SOL    HW164601   4.899   5.945   3.274  1.2779 -1.5450  0.5474
20271SOL    HW264602   4.960   5.998   3.403  1.5403 -1.4393  0.3815
20272SOL     OW64603   8.369   8.768   1.306  0.7519  0.1958  0.0791
20272SOL    HW164604   8.384   8.726   1.390 -1.5428 -0.0836  0.4039
20272SOL    HW264605   8.373   8.696   1.242  0.3011  0.0342  0.2266
20273SOL     OW64606  10.223   2.190   5.780  0.0213 -0.2032 -0.2040
20273SOL    HW164607  10.157   2.255   5.756 -0.7713  0.6189  3.6576
20273SOL    HW264608  10.186   2.107   5.751 -2.0293  0.4099  0.4879
20274SOL     OW64609  10.104   6.569   4.397 -0.5455  0.2887 -0.3811
20274SOL    HW164610  10.182   6.600   4.443 -0.5589 -1.8125  1.2111
20274SOL    HW264611  10.123   6.585   4.305  1.3654  0.7117  0.0371
20275SOL     OW64612   2.538   5.144  10.218 -0.6208  0.1411  0.5552
20275SOL    HW164613   2.616   5.163  10.271  0.1690  0.4424 -0.6811
20275SOL    HW264614   2.497   5.229  10.206 -0.1610  0.2576 -0.2672
20276SOL     OW64615   4.645   2.601   9.775 -0.3758 -0.4756 -0.3111
20276SOL    HW164616   4.652   2.515   9.733 -0.9377 -0.0444 -1.3417
20276SOL    HW264617   4.710   2.655   9.730 -1.5173  0.2055 -1.2325
20277SOL     OW64618   1.420   8.987   5.300 -0.0910  0.0607 -0.8679
20277SOL    HW164619   1.434   8.957   5.390  0.1440 -1.3005 -1.3463
20277SOL    HW264620   1.329   8.966   5.281 -0.2736  0.7647 -0.8059
20278SOL     OW64621   2.371   9.273   3.624 -0.1828 -0.1152  0.5468
20278SOL    HW164622   2.359   9.178   3.629 -1.6703  0.0071 -0.2632
20278SOL    HW264623   2.463   9.286   3.647  0.3552 -1.8636 -0.4209
20279SOL     OW64624   6.690   8.894   6.784 -0.1679 -0.4096 -0.2427
20279SOL    HW164625   6.714   8.918   6.694 -1.4150 -0.2020 -0.5464
20279SOL    HW264626   6.743   8.817   6.804  0.9233  0.1893 -0.7538
20280SOL     OW64627   1.004   1.127   1.555  0.3462  0.2054 -0.0606
20280SOL    HW164628   0.933   1.114   1.493 -0.5380  1.9391  0.5104
20280SOL    HW264629   1.007   1.046   1.606 -1.0830  0.0008 -0.2605
20281SOL     OW64630   4.248   7.896   2.704 -0.1626  0.0456  0.6244
20281SOL    HW164631   4.223   7.910   2.613 -0.0630 -0.9251  0.4283
20281SOL    HW264632   4.318   7.831   2.700  0.6977  0.8925  1.3207
20282SOL     OW64633   5.571   5.062   7.818  0.2462  0.1638  0.3000
20282SOL    HW164634   5.531   4.977   7.837  0.6200 -0.2738 -0.8252
20282SOL    HW264635   5.564   5.110   7.900  0.1626 -1.0068  1.0020
20283SOL     OW64636   4.035  10.280   3.737  0.1876  0.0865 -0.3404
20283SOL    HW164637   4.124  10.309   3.760  1.3058 -1.0015 -2.8472
20283SOL    HW264638   4.030  10.191   3.771  0.2446 -0.0247 -0.6245
20284SOL     OW64639   5.058   3.347   6.542  0.3087 -0.0995 -0.2484
20284SOL    HW164640   5.097   3.278   6.594  0.6924 -0.0148 -0.4222
20284SOL    HW264641   5.125   3.370   6.477 -0.7116 -1.2969 -1.8192
20285SOL     OW64642   9.351   9.453   4.667 -0.9026 -0.2125  0.1340
20285SOL    HW164643   9.427   9.501   4.702 -0.3047 -0.6410 -0.5513
20285SOL    HW264644   9.379   9.362   4.667 -1.3741 -0.3600 -0.2529
20286SOL     OW64645   0.147   7.138   4.591 -0.0516 -0.2758  0.1394
20286SOL    HW164646   0.132   7.057   4.639 -1.4120 -0.5287 -0.6668
20286SOL    HW264647   0.172   7.110   4.504 -2.4350  0.0873 -0.7391
20287SOL     OW64648   0.371   2.285   6.710  0.7154 -0.1394  0.4368
20287SOL    HW164649   0.359   2.355   6.774  0.0875  1.1557 -1.0343
20287SOL    HW264650   0.297   2.225   6.725  0.3705  0.3432  0.6774
20288SOL     OW64651   3.846   4.788   9.628 -0.0805 -0.2210 -0.1686
20288SOL    HW164652   3.808   4.874   9.613 -1.2849 -0.5293  0.9818
20288SOL    HW264653   3.856   4.751   9.540 -2.8203 -0.2623 -0.5521
20289SOL     OW64654   7.864  10.086   6.288 -0.8298  0.1684 -0.0832
20289SOL    HW164655   7.945  10.090   6.238 -0.4950  1.8667  0.5471
20289SOL    HW264656   7.798  10.126   6.231 -1.0241 -0.3006 -0.1959
20290SOL     OW64657   6.249   1.020   3.778 -0.6046  0.2170  0.1509
20290SOL    HW164658   6.225   1.081   3.708  2.4537  0.5418 -0.7846
20290SOL    HW264659   6.247   1.073   3.857 -0.3369  0.8924 -0.2867
20291SOL     OW64660   2.390   1.511   5.850  0.3523  0.2342 -0.5571
20291SOL    HW164661   2.410   1.604   5.859 -1.6894  0.9984 -2.8381
20291SOL    HW264662   2.300   1.502   5.883  0.1551 -0.7260 -1.2968
20292SOL     OW64663   2.335   3.316   2.959 -0.3424 -0.3812  0.5013
20292SOL    HW164664   2.402   3.294   3.024 -0.4366  2.1783  1.5628
20292SOL    HW264665   2.261   3.348   3.010 -1.0788  0.1137 -0.8187
20293SOL     OW64666   7.965   8.217   2.781  0.1327  0.4112  0.1075
20293SOL    HW164667   7.965   8.133   2.734  0.2111  1.3508 -1.6624
20293SOL    HW264668   7.988   8.194   2.871  0.8970 -1.3876 -0.4977
20294SOL     OW64669   9.731   1.145   9.229  0.7083  0.1889 -0.3565
20294SOL    HW164670   9.635   1.148   9.228  0.4025 -2.5318  2.7245
20294SOL    HW264671   9.756   1.207   9.298  0.6692 -2.3056  2.0817
20295SOL     OW64672   2.210   7.244   8.008 -0.8198 -0.7067 -0.0964
20295SOL    HW164673   2.197   7.149   8.011 -1.1202 -0.6736  2.9444
20295SOL    HW264674   2.304   7.255   7.997 -0.7915 -1.3674 -0.5616
20296SOL     OW64675   6.042   1.726   3.862  0.0264  0.5256 -0.2840
20296SOL    HW164676   6.016   1.707   3.953  1.1223 -0.7435 -0.2043
20296SOL    HW264677   6.133   1.698   3.857 -1.0528 -3.1797 -2.7774
20297SOL     OW64678   5.219   5.812   4.316 -0.1059  0.0109  0.5661
20297SOL    HW164679   5.148   5.769   4.365  0.2821 -1.8673 -0.4493
20297SOL    HW264680   5.227   5.761   4.236 -0.9488  3.1733 -1.7325
20298SOL     OW64681   1.897   3.376   9.824  0.0347  0.0326  0.0079
20298SOL    HW164682   1.935   3.454   9.783  0.6581  0.2690  1.0012
20298SOL    HW264683   1.919   3.385   9.916 -2.8405  0.4213  0.7595
20299SOL     OW64684   0.650   7.226   6.506  0.2648  0.3207  0.4168
20299SOL    HW164685   0.701   7.146   6.514  0.2720  0.4493  1.8294
20299SOL    HW264686   0.692   7.274   6.435 -0.1457 -1.2003 -0.9136
20300SOL     OW64687   4.942   9.138   4.357  0.1790  0.2771  0.1692
20300SOL    HW164688   4.857   9.095   4.360 -0.0569  0.7184 -0.0049
20300SOL    HW264689   4.994   9.085   4.297 -0.1048  0.2283 -0.0364
20301SOL     OW64690   5.173   1.515   4.439 -0.6979  0.3693 -0.1320
20301SOL    HW164691   5.081   1.491   4.436 -0.8301  0.8145  0.2253
20301SOL    HW264692   5.198   1.528   4.348  0.1674 -3.9665 -0.7180
20302SOL     OW64693   6.150   4.209  10.085 -0.2537  0.2343  0.3387
20302SOL    HW164694   6.162   4.115  10.095  1.1357  0.5231  1.9728
20302SOL    HW264695   6.178   4.245  10.169 -0.9831  2.0960 -0.1685
20303SOL     OW64696   2.475   5.568   5.534  0.0740  0.3691 -0.6168
20303SOL    HW164697   2.468   5.660   5.560  1.9248  0.0527  1.2228
20303SOL    HW264698   2.493   5.572   5.440 -2.0391  1.7554 -1.0389
20304SOL     OW64699   9.977   7.759   9.872 -0.4315 -0.0429  0.0459
20304SOL    HW164700  10.024   7.683   9.839 -0.6542  0.4728 -1.5319
20304SOL    HW264701   9.888   7.728   9.887 -0.2002 -0.4108  0.6946
20305SOL     OW64702   3.313   9.099   9.339 -0.0109  0.1562 -0.2187
20305SOL    HW164703   3.361   9.016   9.343  0.2781  0.3346  3.5697
20305SOL    HW264704   3.378   9.162   9.307  0.2667 -0.7379 -1.4951
20306SOL     OW64705   1.403   5.200   9.645  0.0033 -0.5423 -0.2856
20306SOL    HW164706   1.469   5.195   9.714  0.0769 -1.4815 -0.4181
20306SOL    HW264707   1.451   5.182   9.564 -0.3018 -0.6295 -0.4502
20307SOL     OW64708   8.037   6.875   4.274  0.3147 -0.6125 -0.5375
20307SOL    HW164709   7.943   6.887   4.257 -0.3022  0.3535  2.8843
20307SOL    HW264710   8.079   6.944   4.223 -1.4475  2.9419  2.3670
20308SOL     OW64711   2.100   0.113   1.275  0.2940 -0.1084  0.2041
20308SOL    HW164712   2.099   0.017   1.284  1.7484 -0.0598  1.1975
20308SOL    HW264713   2.021   0.142   1.320 -1.3321 -0.9160 -1.8993
20309SOL     OW64714   1.744   3.589   9.206  0.0883  0.2034 -0.1550
20309SOL    HW164715   1.831   3.600   9.166  0.5409  3.1787  1.3714
20309SOL    HW264716   1.761   3.552   9.292 -0.2648 -0.2900 -0.2969
20310SOL     OW64717   3.934   2.508   1.114  0.0368  0.1376 -0.0802
20310SOL    HW164718   4.028   2.494   1.101 -0.1162 -0.4835 -0.5568
20310SOL    HW264719   3.923   2.603   1.109  0.7357  0.2683  0.6717
20311SOL     OW64720   3.393   1.625   1.978 -0.3216 -0.5498  0.2203
20311SOL    HW164721   3.458   1.692   1.955 -1.3203 -0.5566 -3.0332
20311SOL    HW264722   3.440   1.564   2.035  0.8137  2.4558  2.8446
20312SOL     OW64723   0.444   4.543   9.748 -0.4727 -0.0645 -0.2648
20312SOL    HW164724   0.396   4.460   9.749 -0.6839  0.0392 -1.0354
20312SOL    HW264725   0.377   4.610   9.759 -0.2412 -0.0002  0.9298
20313SOL     OW64726   1.807   2.206   4.098 -0.4520  0.6432  0.0632
20313SOL    HW164727   1.717   2.193   4.128 -0.2312 -0.9829  0.1165
20313SOL    HW264728   1.860   2.194   4.177 -0.0940 -0.0934 -0.2810
20314SOL     OW64729   1.858   1.512   0.590  0.1110  0.1303 -0.1384
20314SOL    HW164730   1.790   1.573   0.561 -0.4305 -0.0528  0.7173
20314SOL    HW264731   1.812   1.431   0.609  0.9300 -0.8539 -2.0511
20315SOL     OW64732   2.829   6.556   6.077 -0.0984  0.2613 -0.2937
20315SOL    HW164733   2.874   6.584   5.997  1.4120 -1.5253 -0.1490
20315SOL    HW264734   2.756   6.616   6.086  1.2126  2.1673 -1.5705
20316SOL     OW64735   1.294   2.012   3.379 -0.5142  0.1576  0.1362
20316SOL    HW164736   1.274   1.993   3.470  0.2141 -0.8216  0.1013
20316SOL    HW264737   1.259   2.100   3.365  1.0898  1.1478  1.9110
20317SOL     OW64738   3.708   1.068   7.039  0.0837  0.3309 -0.6887
20317SOL    HW164739   3.733   0.991   7.089 -0.1917 -0.7651 -2.1604
20317SOL    HW264740   3.676   1.033   6.956  1.5774  2.0963 -2.1014
20318SOL     OW64741   3.346   3.410   9.956 -0.2855 -0.4277  0.2772
20318SOL    HW164742   3.277   3.346   9.940  2.0684 -3.1233 -0.0932
20318SOL    HW264743   3.337   3.433  10.048 -2.9985  1.1486 -0.2775
20319SOL     OW64744   1.662   6.252   2.056 -0.7759  0.0398 -0.2094
20319SOL    HW164745   1.574   6.217   2.040  0.3368 -2.3243 -1.7396
20319SOL    HW264746   1.700   6.260   1.968  0.9349 -0.0996  0.4863
20320SOL     OW64747   6.464   0.795   1.368 -0.0268 -0.0349 -0.4103
20320SOL    HW164748   6.449   0.779   1.461  0.8922  0.0784 -0.2343
20320SOL    HW264749   6.424   0.721   1.324 -2.8468  1.1918 -0.1307
20321SOL     OW64750   2.170   6.071   2.445 -0.8671 -0.0971  0.1753
20321SOL    HW164751   2.083   6.030   2.445 -0.9128 -0.0424 -1.3846
20321SOL    HW264752   2.227   6.006   2.487 -1.1618 -1.2816 -1.2095
20322SOL     OW64753   9.827   6.388   1.511  0.3283  0.3956  0.5429
20322SOL    HW164754   9.880   6.366   1.589 -0.8718 -0.4216  1.1572
20322SOL    HW264755   9.743   6.346   1.527  0.5776 -1.2631 -1.9862
20323SOL     OW64756   2.147   5.277   2.479 -0.4705  0.7610 -0.0562
20323SOL    HW164757   2.147   5.200   2.423  0.0100  1.7215 -1.4494
20323SOL    HW264758   2.240   5.292   2.499 -0.7387 -1.3336  3.6708
20324SOL     OW64759   1.601   5.188   7.432 -0.4162 -1.0451 -0.0698
20324SOL    HW164760   1.559   5.274   7.434 -1.0243 -1.3293 -0.5127
20324SOL    HW264761   1.665   5.195   7.361 -0.6286 -1.0386 -0.2599
20325SOL     OW64762   2.920   1.963   3.175  0.4972 -0.3891  0.2030
20325SOL    HW164763   2.869   1.908   3.115 -0.5923  0.4380  0.3360
20325SOL    HW264764   2.855   2.001   3.233  1.5135 -1.0484  1.8429
20326SOL     OW64765   2.028   2.949   1.830 -0.5260 -0.0954  0.5906
20326SOL    HW164766   2.062   2.859   1.831  1.1206  0.4441 -0.7606
20326SOL    HW264767   2.023   2.974   1.922  3.2337 -0.1525  0.9870
20327SOL     OW64768   0.115   3.229   4.548  0.0483  0.5319  0.0696
20327SOL    HW164769   0.116   3.224   4.643  0.2879 -1.0744  0.0028
20327SOL    HW264770   0.090   3.320   4.529 -2.2681  0.2962  1.6385
20328SOL     OW64771   4.378   1.003   1.014  0.0027  0.8077 -0.2834
20328SOL    HW164772   4.295   0.955   1.008  0.1854  0.5378 -0.7614
20328SOL    HW264773   4.372   1.051   1.096 -0.3253  0.2138  0.0506
20329SOL     OW64774   6.405   5.408   3.015 -0.1672 -1.1465 -0.2082
20329SOL    HW164775   6.498   5.413   3.032  0.3295  0.9575 -2.8132
20329SOL    HW264776   6.392   5.321   2.977  1.0516 -0.9415 -1.1585
20330SOL     OW64777   7.818   5.908  10.301 -0.1981  0.0895 -0.1588
20330SOL    HW164778   7.753   5.976  10.321 -0.3800 -0.4324  1.0998
20330SOL    HW264779   7.894   5.956  10.267  0.5732  1.2024  2.8952
20331SOL     OW64780   2.379   4.641   1.789 -0.8747  0.2416  0.3241
20331SOL    HW164781   2.398   4.561   1.740 -0.1273  0.6674 -0.0825
20331SOL    HW264782   2.393   4.712   1.727 -3.1222  0.6436  0.1942
20332SOL     OW64783   6.498   0.784   9.121 -0.2328  0.2904  0.4874
20332SOL    HW164784   6.500   0.840   9.198 -2.6709  0.6698  0.3568
20332SOL    HW264785   6.453   0.705   9.150  1.6363 -0.9177  0.2185
20333SOL     OW64786   6.533   0.984   1.734  0.1564  0.4355 -0.3396
20333SOL    HW164787   6.457   0.985   1.792  0.4675 -1.6732  0.1824
20333SOL    HW264788   6.608   0.987   1.792  0.4889  1.2892 -0.7976
20334SOL     OW64789   7.766   6.696   5.464  0.1401  0.2750  0.3449
20334SOL    HW164790   7.735   6.619   5.415 -1.0554 -0.1620  1.7104
20334SOL    HW264791   7.737   6.771   5.412 -0.9825 -0.1731  0.3013
20335SOL     OW64792   8.171   4.224   8.005 -0.0055  0.1105 -0.0330
20335SOL    HW164793   8.169   4.259   7.916 -0.5855 -1.0148 -0.4737
20335SOL    HW264794   8.146   4.298   8.060 -0.2316  0.6545 -0.8475
20336SOL     OW64795   9.053   7.801  10.282  0.4764  0.6356 -0.0977
20336SOL    HW164796   9.115   7.739  10.244  0.5746 -0.0397  1.1145
20336SOL    HW264797   8.972   7.751  10.292  0.3992  0.8546  0.3948
20337SOL     OW64798   8.927   5.511   0.776 -0.4616  0.2864 -0.5866
20337SOL    HW164799   8.950   5.531   0.867  0.3723 -1.3054 -0.4175
20337SOL    HW264800   8.856   5.448   0.781  0.6150 -0.9922 -0.9931
20338SOL     OW64801   4.642   3.605   1.830  0.4630 -0.6246 -0.4976
20338SOL    HW164802   4.626   3.580   1.739 -2.4704 -0.8511 -0.0123
20338SOL    HW264803   4.610   3.531   1.881  0.4633  0.2087  0.7463
20339SOL     OW64804   9.133   9.303   8.276  0.1309 -0.2283  0.5848
20339SOL    HW164805   9.129   9.389   8.317  0.1172  0.1683 -0.2367
20339SOL    HW264806   9.206   9.259   8.320  0.3806  0.3376  0.7473
20340SOL     OW64807   0.495   4.535   0.376  0.1950 -0.2577 -0.1943
20340SOL    HW164808   0.437   4.559   0.304  0.3781  0.2130 -0.1885
20340SOL    HW264809   0.448   4.561   0.455 -1.2647 -3.2616  0.0882
20341SOL     OW64810   3.404   0.922   8.275 -0.4102 -0.6885  0.4194
20341SOL    HW164811   3.442   0.936   8.361  1.1347  2.5878 -0.6376
20341SOL    HW264812   3.456   0.851   8.237  0.2059 -0.8084  1.4734
20342SOL     OW64813   5.531   5.303   9.477 -0.9004 -0.3534 -0.2669
20342SOL    HW164814   5.626   5.305   9.484 -0.9624  0.4607  0.7383
20342SOL    HW264815   5.501   5.275   9.564 -1.5909  0.1321 -0.3361
20343SOL     OW64816   2.746   3.917   6.900 -0.2787 -0.3061  0.0186
20343SOL    HW164817   2.679   3.849   6.898 -0.8426  0.2565 -0.4510
20343SOL    HW264818   2.703   3.995   6.866  0.6278  0.0516 -0.3514
20344SOL     OW64819   9.178   4.962   7.992 -0.4361  0.0811  0.2109
20344SOL    HW164820   9.092   4.948   7.951 -0.6055 -1.7692  1.0926
20344SOL    HW264821   9.158   4.985   8.083 -0.0703 -3.0250  1.1890
20345SOL     OW64822   5.663   3.162  10.211 -0.5606 -0.3886  0.1779
20345SOL    HW164823   5.618   3.246  10.206  0.3592  0.1152  0.0629
20345SOL    HW264824   5.679   3.139  10.119 -1.5211 -1.0924  0.1781
20346SOL     OW64825   8.147   5.879   8.923 -0.2244  0.2692 -0.3871
20346SOL    HW164826   8.206   5.910   8.992  1.3539 -0.6007 -1.2951
20346SOL    HW264827   8.148   5.949   8.858 -0.1696  0.2361 -0.4215
20347SOL     OW64828   2.798   0.227   5.930  0.6245  0.0015  0.5527
20347SOL    HW164829   2.798   0.215   6.025  1.3568  0.9694  0.6971
20347SOL    HW264830   2.714   0.268   5.911  1.1192  1.2856  1.0197
20348SOL     OW64831   2.808   9.983   5.697 -0.3667 -0.5915  0.3186
20348SOL    HW164832   2.834   9.913   5.756 -1.8903 -0.6258  0.9797
20348SOL    HW264833   2.780   9.939   5.617  1.5201 -0.5518 -0.4191
20349SOL     OW64834   0.336   4.451   4.420  0.2201  0.0345 -0.3155
20349SOL    HW164835   0.314   4.359   4.438 -2.7301  0.3164 -1.8418
20349SOL    HW264836   0.356   4.452   4.326 -2.4325  1.3033 -0.9363
20350SOL     OW64837   1.027   9.899   8.770 -0.3005 -0.5611 -0.1330
20350SOL    HW164838   0.961   9.958   8.807 -0.4760 -0.3364 -0.7881
20350SOL    HW264839   1.109   9.949   8.773 -0.2534 -0.6601  0.2371
20351SOL     OW64840   3.398   7.341   5.540  0.1003  0.0800 -0.3137
20351SOL    HW164841   3.441   7.260   5.567 -1.7132 -1.0971 -0.7866
20351SOL    HW264842   3.311   7.337   5.580 -0.0724  1.7547 -0.4384
20352SOL     OW64843   4.100   1.029   4.788 -0.4264 -0.2980 -0.0770
20352SOL    HW164844   4.115   1.086   4.863 -0.5304  1.4268 -1.3173
20352SOL    HW264845   4.005   1.031   4.776 -0.3556 -0.0820 -0.6098
20353SOL     OW64846   6.725   7.397   1.010 -0.1984 -0.2505 -0.5435
20353SOL    HW164847   6.750   7.371   1.098 -1.3734  0.0374 -0.1055
20353SOL    HW264848   6.799   7.371   0.955  0.1451 -1.2900  0.3827
20354SOL     OW64849   6.108   9.554   7.573  0.0062  0.4151 -0.2375
20354SOL    HW164850   6.139   9.572   7.662  0.6918  1.1440 -0.6111
20354SOL    HW264851   6.100   9.458   7.570 -3.7677  0.4873  1.7916
20355SOL     OW64852   5.299   1.632   2.649  0.2303 -0.2632 -0.3259
20355SOL    HW164853   5.268   1.546   2.675  1.5735 -0.8364 -0.5621
20355SOL    HW264854   5.361   1.616   2.579  0.1135  0.9431 -0.7359
20356SOL     OW64855   0.396   2.736   9.164 -0.1191  0.2221 -0.1672
20356SOL    HW164856   0.337   2.810   9.178 -0.3139 -0.0305  0.3317
20356SOL    HW264857   0.483   2.777   9.153 -0.4289  0.6185 -1.2782
20357SOL     OW64858   5.298   4.024   9.806  0.0540 -0.0636  0.2029
20357SOL    HW164859   5.268   3.937   9.782 -0.9035  0.6660 -1.4439
20357SOL    HW264860   5.218   4.076   9.816  0.6158  1.1367 -1.0709
20358SOL     OW64861   9.788   5.927   9.124  0.4242 -0.1586 -0.8008
20358SOL    HW164862   9.697   5.897   9.125  0.6273 -0.8195  0.5549
20358SOL    HW264863   9.813   5.929   9.216  1.5442  0.7832 -1.1080
20359SOL     OW64864   7.823   3.751   1.552 -0.4789 -0.3216  0.8671
20359SOL    HW164865   7.890   3.817   1.564 -1.1090  0.3321  0.8302
20359SOL    HW264866   7.802   3.721   1.640 -2.1653  1.5360  1.1769
20360SOL     OW64867   3.091   0.230   3.827 -0.5900 -0.6828 -0.3619
20360SOL    HW164868   3.038   0.151   3.819  1.3087 -2.0151 -0.5079
20360SOL    HW264869   3.171   0.201   3.872 -0.1400  1.3056  0.1993
20361SOL     OW64870   8.301   7.764   3.103 -0.0509 -0.3927  0.1308
20361SOL    HW164871   8.246   7.801   3.172  0.0940  1.6839 -0.7985
20361SOL    HW264872   8.380   7.735   3.149 -0.0911  0.6562  0.8989
20362SOL     OW64873   7.504   1.661   5.317  0.2623 -0.4677 -0.1206
20362SOL    HW164874   7.424   1.691   5.360  1.5887 -0.1431  2.3350
20362SOL    HW264875   7.522   1.575   5.356  1.0882 -0.5570 -0.6628
20363SOL     OW64876   0.175   2.208   8.251 -0.8987  0.7025 -0.0019
20363SOL    HW164877   0.119   2.276   8.289 -1.2067  0.5417 -0.1612
20363SOL    HW264878   0.160   2.131   8.306  0.1806  1.0270  0.7595
20364SOL     OW64879   7.118   4.678   3.189 -0.1384 -0.1293 -0.1367
20364SOL    HW164880   7.121   4.652   3.097  0.3058 -1.2034  0.1700
20364SOL    HW264881   7.040   4.734   3.196 -1.0757 -1.3043 -0.8377
20365SOL     OW64882  10.047   5.778   9.719  0.2308  0.3936  0.3680
20365SOL    HW164883  10.125   5.830   9.703 -0.9285  2.0550 -0.1934
20365SOL    HW264884   9.983   5.840   9.755 -1.2261 -0.6283 -0.3216
20366SOL     OW64885   0.422   1.925   2.010  0.6777  0.5369 -0.2710
20366SOL    HW164886   0.473   1.972   2.076  1.8855  1.2538 -1.6539
20366SOL    HW264887   0.345   1.893   2.057  1.7861  0.4985  1.6019
20367SOL     OW64888   0.478   4.914   0.555 -0.3395  0.0872 -0.4549
20367SOL    HW164889   0.480   4.819   0.566  0.0724  0.1337 -0.1218
20367SOL    HW264890   0.518   4.929   0.469  0.3772  0.0125 -0.1407
20368SOL     OW64891   1.931   1.291   6.202  0.1828 -0.2318 -0.2335
20368SOL    HW164892   1.844   1.332   6.203 -0.0955 -0.6604  2.8875
20368SOL    HW264893   1.914   1.198   6.194  0.4372 -0.2377 -0.7437
20369SOL     OW64894   4.269   8.387   0.176 -0.1501  0.1744 -0.1825
20369SOL    HW164895   4.243   8.467   0.129  0.5377  0.9740  0.7568
20369SOL    HW264896   4.354   8.409   0.214  0.5285 -1.3713 -0.7588
20370SOL     OW64897   9.895   1.054   1.704  0.5195 -0.1003  0.5662
20370SOL    HW164898   9.893   0.979   1.763  0.1843  0.6378  1.5070
20370SOL    HW264899   9.899   1.015   1.616 -0.9033 -1.2303  0.9721
20371SOL     OW64900   5.308   0.731   9.702  0.2956  0.0706 -0.2834
20371SOL    HW164901   5.248   0.695   9.637 -2.6764  2.9096  0.6227
20371SOL    HW264902   5.340   0.813   9.663  0.3605  0.6168  0.8609
20372SOL     OW64903   6.260   4.337   5.337 -0.4537  0.2453  0.9581
20372SOL    HW164904   6.272   4.349   5.432  2.6771  0.7657  0.5867
20372SOL    HW264905   6.337   4.287   5.309 -1.9972 -1.1213 -1.1565
20373SOL     OW64906   5.468   4.215   3.466  0.1441 -0.2501 -0.6312
20373SOL    HW164907   5.515   4.295   3.489 -0.3713  0.2582 -1.3123
20373SOL    HW264908   5.522   4.173   3.400  0.9703 -1.0474  0.5065
20374SOL     OW64909   9.324   2.243  10.248  0.2086  0.0363  0.0899
20374SOL    HW164910   9.358   2.312  10.191 -0.2182  0.8845  0.8430
20374SOL    HW264911   9.361   2.163  10.212 -0.1055  0.5284 -1.4450
20375SOL     OW64912   2.639   7.963  10.270 -0.2194  0.1606 -0.5771
20375SOL    HW164913   2.725   7.994  10.242 -0.4277  1.1039 -0.1914
20375SOL    HW264914   2.628   7.879  10.224  2.1238 -1.4534  1.5081
20376SOL     OW64915   1.944  10.123   0.155  0.6983  0.2338  0.2028
20376SOL    HW164916   1.966  10.182   0.083  3.7748 -0.9218  0.0830
20376SOL    HW264917   2.011  10.139   0.222 -1.1631  0.1655  2.2272
20377SOL     OW64918   1.955   4.742   6.298  0.4842 -0.0509  0.2210
20377SOL    HW164919   1.882   4.684   6.279  1.3304 -1.5037  1.2244
20377SOL    HW264920   2.029   4.706   6.249  0.4335  1.8216 -1.3786
20378SOL     OW64921   8.192   0.314   5.780 -0.4829  0.2625  0.0551
20378SOL    HW164922   8.252   0.371   5.829  1.2389 -1.2850 -0.1273
20378SOL    HW264923   8.199   0.345   5.689  1.1290 -0.7200 -0.1960
20379SOL     OW64924   5.051   8.708   4.759 -0.5070 -0.4535 -0.4788
20379SOL    HW164925   5.135   8.665   4.746  0.1711 -0.9418  3.9895
20379SOL    HW264926   4.988   8.637   4.765 -0.9107 -0.2084 -1.4673
20380SOL     OW64927   1.225   4.446   1.091  0.0163  0.2902  0.1979
20380SOL    HW164928   1.286   4.406   1.152 -0.3228 -0.4930  0.0430
20380SOL    HW264929   1.192   4.372   1.038  0.6175  0.9920 -1.2077
20381SOL     OW64930   6.173   2.811   1.591  0.3525 -0.0829  0.3927
20381SOL    HW164931   6.253   2.829   1.542 -0.0324 -0.6786 -0.4893
20381SOL    HW264932   6.122   2.892   1.587  0.1962 -0.2163 -0.4669
20382SOL     OW64933   2.270   0.236   6.870 -0.0450  0.7427 -0.0299
20382SOL    HW164934   2.346   0.237   6.929  0.3449 -2.6230 -0.2605
20382SOL    HW264935   2.196   0.257   6.927  0.7117  1.1137  0.8484
20383SOL     OW64936   9.874   6.542   5.987 -0.0873  0.0229  0.1589
20383SOL    HW164937   9.838   6.476   6.047 -0.6073  0.0381 -0.1242
20383SOL    HW264938   9.802   6.559   5.926  0.5871 -0.3330 -0.7505
20384SOL     OW64939   3.573   0.353   8.970 -0.0901  0.0063 -0.4296
20384SOL    HW164940   3.642   0.321   9.028 -1.0029 -2.1084 -0.4201
20384SOL    HW264941   3.612   0.348   8.882 -0.1513 -1.1079 -0.4173
20385SOL     OW64942   4.850   8.601   9.570 -0.1525 -0.0896 -0.0584
20385SOL    HW164943   4.807   8.546   9.636  0.2069  0.3823  0.5776
20385SOL    HW264944   4.795   8.592   9.492 -0.0811 -1.3712  0.0233
20386SOL     OW64945   5.049   2.436   8.525 -0.0096 -0.4180 -0.3266
20386SOL    HW164946   5.090   2.420   8.440 -2.2524 -0.1816 -1.5147
20386SOL    HW264947   5.115   2.486   8.574  1.2257 -0.2933 -2.0283
20387SOL     OW64948   7.146   4.460   6.357 -0.3536 -0.0093 -0.2813
20387SOL    HW164949   7.201   4.507   6.419 -1.8951 -1.1166  2.1094
20387SOL    HW264950   7.176   4.369   6.363 -1.9418 -0.5138  0.5790
20388SOL     OW64951   5.832   5.684   8.639 -0.0542  0.0670 -0.1768
20388SOL    HW164952   5.766   5.649   8.580 -0.7237  0.5028  0.2817
20388SOL    HW264953   5.783   5.746   8.694  1.3245  2.9803 -1.9941
20389SOL     OW64954   0.482   4.991   8.947 -0.1433  0.6974 -0.1036
20389SOL    HW164955   0.500   5.081   8.920  1.4613  0.1835 -0.8779
20389SOL    HW264956   0.386   4.984   8.945 -0.2353  1.8734 -1.7640
20390SOL     OW64957   1.088   0.112   4.804 -0.3927  0.8569  0.3512
20390SOL    HW164958   1.012   0.097   4.861 -1.0528  2.6302 -0.0059
20390SOL    HW264959   1.138   0.181   4.847  1.0317 -0.2558  0.5551
20391SOL     OW64960   3.392   4.309   0.509  0.4864 -0.2140  0.1123
20391SOL    HW164961   3.480   4.323   0.542 -0.2041 -0.5316  2.2314
20391SOL    HW264962   3.334   4.339   0.579 -1.0926 -0.8251 -0.8616
20392SOL     OW64963   4.916   6.324   1.060 -0.0641  0.4256  0.6010
20392SOL    HW164964   4.907   6.417   1.042  0.2169  0.6385  1.5095
20392SOL    HW264965   4.873   6.311   1.145  1.5102  0.0937  1.3923
20393SOL     OW64966   9.656   6.019   6.643 -0.1421  0.0934 -0.6047
20393SOL    HW164967   9.633   6.109   6.621  0.8404  0.5534  0.1495
20393SOL    HW264968   9.710   6.027   6.722  0.2903 -1.1251 -0.7559
20394SOL     OW64969   2.276   0.257   8.155  0.3842  0.5232 -0.3278
20394SOL    HW164970   2.306   0.329   8.099  0.2108  2.1927  1.6005
20394SOL    HW264971   2.248   0.300   8.236  0.2152 -1.7292  0.8898
20395SOL     OW64972   1.802   3.505   0.313  0.4383  0.1250  0.3844
20395SOL    HW164973   1.708   3.526   0.319  0.1670 -1.1600  0.9549
20395SOL    HW264974   1.825   3.524   0.222 -1.5058 -3.7211 -1.1528
20396SOL     OW64975   1.250   3.884   2.541  0.1557 -1.0099 -0.3276
20396SOL    HW164976   1.193   3.960   2.534  0.1364 -0.9604  0.3355
20396SOL    HW264977   1.334   3.914   2.507  0.1005 -0.7442 -0.2306
20397SOL     OW64978   5.271   8.187   9.325  0.5897  0.0097  0.0184
20397SOL    HW164979   5.234   8.138   9.399  1.6983  1.0530  1.3097
20397SOL    HW264980   5.296   8.119   9.262 -1.4909 -0.8317  0.0263
20398SOL     OW64981   4.308   5.371   2.065  0.0125 -0.1981 -0.0629
20398SOL    HW164982   4.236   5.316   2.037  0.3534 -0.1821 -1.0240
20398SOL    HW264983   4.266   5.444   2.111 -0.6217  0.0441 -0.9958
20399SOL     OW64984   0.434   2.811   4.647  0.1254  0.0269  0.1303
20399SOL    HW164985   0.436   2.719   4.673  0.0883  0.0061  0.0612
20399SOL    HW264986   0.362   2.849   4.697 -0.2443 -0.1182 -0.2798
20400SOL     OW64987   1.027   1.237   4.930 -0.6503  0.4974 -0.1900
20400SOL    HW164988   1.023   1.304   4.998 -1.0777 -1.1574  1.5002
20400SOL    HW264989   0.965   1.267   4.863  0.5822  2.7057 -0.4453
20401SOL     OW64990   1.583   3.732   8.459  0.5191  0.4746 -0.2954
20401SOL    HW164991   1.547   3.763   8.376  0.7650  0.3657 -0.4433
20401SOL    HW264992   1.519   3.759   8.524  0.2595  0.4446 -0.5354
20402SOL     OW64993   4.536   3.557   3.403 -0.4288 -0.6372 -0.1010
20402SOL    HW164994   4.558   3.626   3.466  0.3379 -0.5053 -0.4975
20402SOL    HW264995   4.443   3.539   3.418 -0.3938 -0.2067  0.6718
20403SOL     OW64996  10.116   5.403   9.065 -0.3771 -0.4173 -0.1768
20403SOL    HW164997  10.043   5.341   9.060 -2.4297  1.8244  0.4196
20403SOL    HW264998  10.124   5.438   8.977  1.0305 -1.6935 -0.6049
20404SOL     OW64999   7.080   1.566   4.684 -0.1528 -0.4437  0.0036
20404SOL    HW165000   7.174   1.586   4.677 -0.2316 -0.0918 -0.0252
20404SOL    HW265001   7.077   1.490   4.743 -0.0310  1.1788  2.2421
20405SOL     OW65002   4.405   4.483   3.664 -0.2179 -0.2307 -0.7492
20405SOL    HW165003   4.413   4.424   3.739  2.5711 -0.6661 -1.2857
20405SOL    HW265004   4.453   4.561   3.691  0.0752 -0.0555 -1.7656
20406SOL     OW65005   2.657   9.337   9.485  0.0304 -0.0439 -0.4869
20406SOL    HW165006   2.713   9.410   9.512 -1.0868  0.6532  0.0256
20406SOL    HW265007   2.708   9.259   9.506  0.3328  0.5371  1.1066
20407SOL     OW65008   0.086   8.381   4.534  0.0938  0.4636 -0.4262
20407SOL    HW165009   0.034   8.301   4.526  0.2449  0.5283 -3.0043
20407SOL    HW265010   0.041   8.433   4.601 -0.6644 -1.2600  0.4710
20408SOL     OW65011   3.246   9.361   7.470  0.0422  0.0099 -0.1174
20408SOL    HW165012   3.305   9.436   7.461  1.4535 -1.0147  0.1542
20408SOL    HW265013   3.261   9.329   7.559  0.7399 -1.5579 -0.7487
20409SOL     OW65014   7.904   1.571   0.948 -0.2765 -0.2464  0.2748
20409SOL    HW165015   7.887   1.509   1.019 -1.5676  0.5131  0.6647
20409SOL    HW265016   7.841   1.642   0.963  2.9959  2.6782  1.6246
20410SOL     OW65017   7.958   3.937   6.274  0.1870 -0.3542 -0.2106
20410SOL    HW165018   7.874   3.946   6.318  0.8544 -1.2268  1.3102
20410SOL    HW265019   8.022   3.972   6.336  1.0544 -0.6869 -0.8903
20411SOL     OW65020   9.344   8.214   7.947  0.3368 -0.0403 -0.2301
20411SOL    HW165021   9.266   8.222   8.001 -0.0620 -0.0175 -0.8032
20411SOL    HW265022   9.390   8.298   7.958  0.5096 -0.2194  0.4506
20412SOL     OW65023   3.376   1.961  10.238 -0.4760 -0.1731 -0.6616
20412SOL    HW165024   3.367   2.045  10.282  0.7814  0.0949 -0.8968
20412SOL    HW265025   3.442   1.975  10.170  1.9183 -2.0296  1.1129
20413SOL     OW65026   7.546   2.345   4.571  0.6902  0.3672 -0.2002
20413SOL    HW165027   7.576   2.414   4.631  0.6826  0.0312  0.2021
20413SOL    HW265028   7.589   2.365   4.488  0.3794  1.0761 -0.2000
20414SOL     OW65029   4.091   8.429   8.826  0.4803  0.2025 -0.8758
20414SOL    HW165030   4.098   8.398   8.916 -0.4304 -1.1135 -1.2292
20414SOL    HW265031   4.182   8.444   8.799  0.8726 -0.7907 -0.1947
20415SOL     OW65032   0.492   3.403   8.887  0.0625  0.2875 -0.0688
20415SOL    HW165033   0.530   3.315   8.887  0.2894  0.3698 -1.0414
20415SOL    HW265034   0.454   3.412   8.799 -0.6225  0.8783  0.2879
20416SOL     OW65035   2.104   6.917   0.220  0.3745  0.5582 -0.3208
20416SOL    HW165036   2.149   6.836   0.196 -1.0993 -0.7376  1.0845
20416SOL    HW265037   2.037   6.928   0.152  0.4719  0.5036 -0.4255
20417SOL     OW65038   0.295   6.448   0.231  0.7118  0.1537 -0.4016
20417SOL    HW165039   0.359   6.454   0.159  1.7507 -0.0495  0.4775
20417SOL    HW265040   0.293   6.355   0.254 -0.1378  0.1145 -0.6152
20418SOL     OW65041   0.534   3.409   3.383 -0.7849  0.6787 -0.3544
20418SOL    HW165042   0.558   3.408   3.290 -1.4134 -0.0212 -0.5198
20418SOL    HW265043   0.599   3.466   3.424  0.6675 -0.4737 -0.9247
20419SOL     OW65044   6.867   1.331  10.186  0.0472  0.1188  0.2283
20419SOL    HW165045   6.795   1.278  10.152  0.7177  0.7438 -2.4236
20419SOL    HW265046   6.922   1.270  10.234 -1.9024 -0.4792  1.8482
20420SOL     OW65047   5.215   1.092   5.905 -0.2954  0.9293 -0.1964
20420SOL    HW165048   5.281   1.059   5.844 -0.4659 -0.0030  0.1014
20420SOL    HW265049   5.149   1.023   5.908 -0.0425  0.7307  1.4179
20421SOL     OW65050   8.891   3.326   1.379 -0.0099  0.3537 -0.3525
20421SOL    HW165051   8.895   3.281   1.464 -1.8894 -0.0399 -0.4162
20421SOL    HW265052   8.981   3.323   1.346  0.4851 -0.7870  0.9708
20422SOL     OW65053   7.974   3.903   4.278  0.1331  0.2568 -0.5046
20422SOL    HW165054   7.939   3.877   4.193  0.2577 -2.4499  0.1731
20422SOL    HW265055   7.919   3.859   4.342  2.7993 -1.6831  0.6532
20423SOL     OW65056   2.763   9.363   7.405  0.4573  0.2360 -0.0191
20423SOL    HW165057   2.851   9.372   7.443  0.6155  1.8687 -0.6892
20423SOL    HW265058   2.764   9.422   7.330 -0.8615 -0.6005 -0.7100
20424SOL     OW65059   9.223   8.349   6.796  0.4780 -0.3070  0.1568
20424SOL    HW165060   9.177   8.322   6.875  0.8836 -0.7071  0.2603
20424SOL    HW265061   9.160   8.403   6.749 -0.5517 -1.8751 -0.3291
20425SOL     OW65062   0.100   9.920   4.992  0.3341  0.0223  0.0236
20425SOL    HW165063   0.079   9.828   4.975  1.9361 -0.5747  1.0971
20425SOL    HW265064   0.156   9.918   5.069 -0.9261  2.0452  1.0933
20426SOL     OW65065   1.377   2.511   6.069 -0.2323  0.1908 -0.1951
20426SOL    HW165066   1.334   2.588   6.032  0.2953  0.9912  0.7987
20426SOL    HW265067   1.425   2.472   5.995 -0.6688  0.6917 -0.7520
20427SOL     OW65068   6.585   1.871   3.627  0.3397 -0.2006  0.5816
20427SOL    HW165069   6.508   1.876   3.570 -0.3040  0.5313  1.4873
20427SOL    HW265070   6.659   1.866   3.567 -0.1869  2.4254 -0.4024
20428SOL     OW65071   4.862   2.259   4.782 -0.2077  0.2137 -0.4783
20428SOL    HW165072   4.804   2.235   4.854 -0.0682  1.2631  0.0025
20428SOL    HW265073   4.919   2.183   4.770  0.7568  0.5683  1.5346
20429SOL     OW65074   8.542   7.231   0.825 -0.5025 -0.1136  0.0959
20429SOL    HW165075   8.576   7.142   0.817  1.9801  0.7219  0.3973
20429SOL    HW265076   8.601   7.274   0.888 -0.8185  2.0958 -1.0079
20430SOL     OW65077   0.878   9.068  10.174  0.1914  0.1595 -0.1180
20430SOL    HW165078   0.863   9.075  10.268 -0.4287 -2.4901  0.0659
20430SOL    HW265079   0.961   9.021  10.166  0.0139 -0.0500 -0.8620
20431SOL     OW65080   0.733   2.534  10.213 -0.1784 -0.6267 -0.4196
20431SOL    HW165081   0.649   2.501  10.182 -0.0524 -2.1036  0.6810
20431SOL    HW265082   0.717   2.560  10.304  0.0360  1.2618 -0.8797
20432SOL     OW65083   7.615   7.176   5.746  0.4233 -0.0058  0.2492
20432SOL    HW165084   7.597   7.270   5.744 -2.4781 -0.4674  1.1588
20432SOL    HW265085   7.617   7.150   5.653 -2.1060  0.4619 -0.0094
20433SOL     OW65086   3.176   2.173   7.711  0.1611  0.0806 -0.7361
20433SOL    HW165087   3.106   2.159   7.775  1.0483  0.6265  0.3748
20433SOL    HW265088   3.154   2.114   7.639 -1.4709  0.2730 -0.4393
20434SOL     OW65089   6.766   8.732   3.350  0.0995  0.1660 -0.1681
20434SOL    HW165090   6.679   8.765   3.326  1.5480  4.1902 -0.7432
20434SOL    HW265091   6.807   8.712   3.266  0.9431  2.0229 -0.2386
20435SOL     OW65092  10.317   5.158   6.556  0.6914 -0.2839  0.2295
20435SOL    HW165093  10.238   5.139   6.506  2.9254 -0.6254 -3.5793
20435SOL    HW265094  10.340   5.074   6.596  0.7859 -1.0492 -1.3485
20436SOL     OW65095   9.895   8.771   0.718 -0.2034 -0.5013  0.5554
20436SOL    HW165096   9.800   8.777   0.708 -0.1742  0.6342  0.7965
20436SOL    HW265097   9.909   8.779   0.813  0.1715 -0.0123  0.4585
20437SOL     OW65098   2.230   3.719   3.463  0.1173 -0.3695 -0.2933
20437SOL    HW165099   2.308   3.695   3.413  0.0630 -1.1667 -0.0166
20437SOL    HW265100   2.235   3.814   3.472  0.6131 -0.3194 -1.0057
20438SOL     OW65101   4.081   6.349   4.039  0.1681 -0.2348 -1.1389
20438SOL    HW165102   4.051   6.276   4.093 -0.9872  0.5727 -0.6237
20438SOL    HW265103   4.154   6.314   3.989  2.3098 -0.6566  2.0021
20439SOL     OW65104   9.969   7.387   5.114 -0.8753 -0.1845  0.6882
20439SOL    HW165105   9.874   7.387   5.129 -0.6426 -0.9260  2.4823
20439SOL    HW265106  10.006   7.359   5.198  0.9222 -0.2568 -0.0864
20440SOL     OW65107   2.129   1.116   1.072  0.0902  0.3966 -0.0567
20440SOL    HW165108   2.121   1.040   1.129 -0.2539  1.1866  0.9642
20440SOL    HW265109   2.205   1.097   1.017 -0.8918 -1.3746 -0.9045
20441SOL     OW65110   5.115   2.258   5.887 -0.2273 -0.2702  0.1192
20441SOL    HW165111   5.170   2.336   5.875  0.3972 -0.8937 -1.4662
20441SOL    HW265112   5.065   2.251   5.805 -3.2647  0.6417  1.7455
20442SOL     OW65113   2.781   0.548   6.123  0.1099  0.4348 -0.1909
20442SOL    HW165114   2.803   0.455   6.133 -0.1831  0.3453 -0.3870
20442SOL    HW265115   2.823   0.590   6.198  1.9292  0.4241 -1.1255
20443SOL     OW65116   0.134   0.815   5.281 -0.1912  0.2347 -0.3781
20443SOL    HW165117   0.144   0.812   5.377  1.6649 -0.1720 -0.5410
20443SOL    HW265118   0.085   0.735   5.260 -1.2414  0.6866  0.2723
20444SOL     OW65119   0.187   1.774   1.802  0.3409  0.4256  0.3252
20444SOL    HW165120   0.120   1.766   1.870  0.2081 -0.5133  0.0894
20444SOL    HW265121   0.234   1.691   1.804 -0.9348 -0.4427 -2.0496
20445SOL     OW65122   2.321   6.611   4.382 -0.0418 -0.0984  0.4425
20445SOL    HW165123   2.355   6.700   4.371 -0.2045  0.3678  3.0454
20445SOL    HW265124   2.275   6.613   4.466 -1.9323 -2.1117 -0.4303
20446SOL     OW65125   6.577   2.913   9.592 -0.1623  0.3424  0.0971
20446SOL    HW165126   6.623   2.943   9.513  0.2895 -0.1746  0.1550
20446SOL    HW265127   6.573   2.991   9.648 -1.0109  0.8624 -0.6708
20447SOL     OW65128   2.585   4.235  10.277 -0.3215 -0.0599 -0.0985
20447SOL    HW165129   2.666   4.247  10.326  0.5465 -2.8613 -0.6593
20447SOL    HW265130   2.523   4.201  10.342 -0.0274 -1.0287 -0.3037
20448SOL     OW65131   3.744   4.615   2.785 -0.1036  0.4379  1.0237
20448SOL    HW165132   3.666   4.574   2.748 -0.2775  1.4119  0.2629
20448SOL    HW265133   3.742   4.591   2.877  0.2158 -1.8680  0.4898
20449SOL     OW65134   4.229   5.016   7.403  0.0502 -0.3918 -0.1063
20449SOL    HW165135   4.308   5.047   7.447  0.6792 -0.5887 -1.0879
20449SOL    HW265136   4.166   5.087   7.415  0.5695  0.0333  0.1286
20450SOL     OW65137   9.210   1.387   2.669  0.4327  0.2170  0.1346
20450SOL    HW165138   9.123   1.349   2.681  0.3942  0.2367 -0.0829
20450SOL    HW265139   9.263   1.348   2.739  0.1499  0.5082  0.5180
20451SOL     OW65140   5.879   3.001   3.450  0.8764  0.5228 -0.4874
20451SOL    HW165141   5.886   3.032   3.359  0.3686  0.3647 -0.5817
20451SOL    HW265142   5.926   3.067   3.501  1.7563  0.2693 -0.9325
20452SOL     OW65143   6.293   9.627   8.835 -0.0458  0.2586  0.8738
20452SOL    HW165144   6.209   9.584   8.849  0.0041  0.1501  0.8418
20452SOL    HW265145   6.358   9.562   8.863  0.0349  0.2502  0.6707
20453SOL     OW65146   4.132   4.333   4.171  0.0168 -0.1317 -0.2518
20453SOL    HW165147   4.162   4.275   4.101  0.7615  0.5996 -0.5598
20453SOL    HW265148   4.058   4.287   4.210 -0.3394 -0.6211 -1.4370
20454SOL     OW65149   7.018   4.277   7.073 -0.6570  0.3556 -0.7140
20454SOL    HW165150   7.076   4.201   7.070 -1.8023 -0.5421 -0.8156
20454SOL    HW265151   6.935   4.246   7.038 -1.3779  1.4547 -0.0572
20455SOL     OW65152   7.196   2.298   2.742 -0.2525  0.0820 -0.4748
20455SOL    HW165153   7.285   2.282   2.710  0.0631  0.9633 -0.0768
20455SOL    HW265154   7.153   2.213   2.736  1.5166 -1.1515  2.1288
20456SOL     OW65155   4.966   4.123   2.033 -0.5138 -0.0003  0.3844
20456SOL    HW165156   4.962   4.192   1.966 -0.2483 -0.2777  0.0789
20456SOL    HW265157   4.881   4.078   2.026  0.0601 -0.9565 -0.7771
20457SOL     OW65158   5.346   5.760   4.892 -0.0377 -0.3475 -0.8946
20457SOL    HW165159   5.426   5.709   4.887 -0.3706 -1.3031  1.8893
20457SOL    HW265160   5.278   5.697   4.911 -1.1222  0.7036 -1.1540
20458SOL     OW65161   6.717   3.331   8.125 -0.0698 -0.5358  0.2656
20458SOL    HW165162   6.707   3.270   8.052  0.3258  1.0714 -1.1996
20458SOL    HW265163   6.810   3.352   8.127  0.6292 -3.1016  3.4888
20459SOL     OW65164   1.829   0.387   4.828  0.7878  0.1154 -0.3141
20459SOL    HW165165   1.751   0.332   4.833  2.3555 -2.1848  0.6519
20459SOL    HW265166   1.844   0.399   4.734  0.2588 -0.9482 -0.5480
20460SOL     OW65167   7.417   0.542   8.143  0.5948 -0.2104 -0.4056
20460SOL    HW165168   7.510   0.563   8.143  0.8429 -1.2480 -0.2211
20460SOL    HW265169   7.376   0.617   8.186  1.2790  0.4669 -0.8938
20461SOL     OW65170   1.948   9.851   0.225  0.2314  0.3730 -0.2399
20461SOL    HW165171   2.041   9.849   0.248  0.0416 -0.2613  0.4889
20461SOL    HW265172   1.940   9.929   0.170  1.5700 -0.6438 -1.9938
20462SOL     OW65173   5.434  10.247   1.249  0.3458  0.1459 -0.7751
20462SOL    HW165174   5.522  10.240   1.285 -0.4402  1.8131  1.7860
20462SOL    HW265175   5.429  10.179   1.182  3.0068 -1.1056  0.1772
20463SOL     OW65176   4.206   9.715   9.805  0.4377 -0.3598  0.2333
20463SOL    HW165177   4.188   9.675   9.720 -0.7902  0.3738  0.1228
20463SOL    HW265178   4.196   9.809   9.790  1.3687 -0.1326  0.9292
20464SOL     OW65179   2.343   9.981   3.881  0.3455 -0.4924  0.0247
20464SOL    HW165180   2.335  10.001   3.788 -0.0402  1.2175  0.3900
20464SOL    HW265181   2.259   9.940   3.903 -1.3300  2.8116  0.4174
20465SOL     OW65182   8.779   8.915   9.218 -0.1125 -0.8067 -0.2257
20465SOL    HW165183   8.762   8.842   9.159  0.5565 -0.5657 -0.7224
20465SOL    HW265184   8.695   8.962   9.223 -0.4605 -1.4247 -0.1363
20466SOL     OW65185   4.042   8.440   2.378 -0.3490  0.1604 -0.6011
20466SOL    HW165186   3.949   8.422   2.395 -0.1059 -1.2941 -0.7134
20466SOL    HW265187   4.088   8.393   2.447  0.3950 -0.9464 -1.8189
20467SOL     OW65188   9.652   2.238   0.325  0.1879  0.3384 -0.2044
20467SOL    HW165189   9.719   2.208   0.263  2.2658  3.3460  0.3887
20467SOL    HW265190   9.669   2.186   0.404  1.1197  0.2951 -0.4158
20468SOL     OW65191   0.689   5.997   6.620 -0.3456 -0.5963  0.1289
20468SOL    HW165192   0.752   5.926   6.607  2.1780  0.8723  2.9864
20468SOL    HW265193   0.721   6.068   6.565 -0.1306 -0.2096  0.7422
20469SOL     OW65194   1.819  10.029   2.800 -0.1735 -0.0538  0.0709
20469SOL    HW165195   1.808   9.943   2.840  0.2048 -0.3681 -0.4952
20469SOL    HW265196   1.888  10.017   2.735 -1.9618 -0.0052 -1.9671
20470SOL     OW65197   9.359   6.745   8.346 -0.5934  0.1785 -0.7758
20470SOL    HW165198   9.407   6.825   8.326  0.8969 -1.2939 -3.7165
20470SOL    HW265199   9.413   6.675   8.310 -2.3793 -2.1005  0.6724
20471SOL     OW65200   6.084   8.344   6.760 -0.1477  0.5478 -0.2471
20471SOL    HW165201   6.038   8.291   6.825 -0.7207  0.2720 -0.8582
20471SOL    HW265202   6.080   8.292   6.679 -1.6216  1.9372 -1.1341
20472SOL     OW65203  10.143   3.305   8.222  0.1919 -0.1179 -0.0260
20472SOL    HW165204  10.074   3.311   8.288  1.2311 -0.6201  1.1438
20472SOL    HW265205  10.129   3.221   8.178  1.9202 -1.8427  2.4510
20473SOL     OW65206   0.652   2.862  10.286 -0.0214 -0.0689  0.7607
20473SOL    HW165207   0.732   2.819  10.317  0.0370 -0.0477  0.6378
20473SOL    HW265208   0.628   2.922  10.357  0.5543  0.5586  0.4287
20474SOL     OW65209   0.799   0.766   8.045  0.0394  0.0278  0.2780
20474SOL    HW165210   0.875   0.748   8.101 -0.2435 -0.7615  0.4156
20474SOL    HW265211   0.726   0.773   8.106 -0.3659 -1.3726 -0.0141
20475SOL     OW65212   8.257   1.704   7.877  0.0726 -0.1130 -0.2297
20475SOL    HW165213   8.285   1.786   7.838  0.7193  0.1260  0.7017
20475SOL    HW265214   8.290   1.707   7.967 -0.3815 -1.1420 -0.0046
20476SOL     OW65215   0.422   1.988   3.677 -0.2757 -0.2167  0.1559
20476SOL    HW165216   0.430   1.910   3.622  0.8894 -0.4027  0.5559
20476SOL    HW265217   0.352   1.967   3.738 -1.9404  0.1811 -1.5283
20477SOL     OW65218   2.924   5.458   5.859 -0.1122 -0.0406 -0.4094
20477SOL    HW165219   2.868   5.477   5.783  0.7418  0.0653 -1.0285
20477SOL    HW265220   3.000   5.415   5.822 -0.3059 -1.2709  0.5621
20478SOL     OW65221   7.228   5.638   1.549  0.1399 -0.0561 -0.5125
20478SOL    HW165222   7.162   5.625   1.481  0.1900 -1.0993 -0.3740
20478SOL    HW265223   7.312   5.639   1.502  0.1046  0.2890 -0.5750
20479SOL     OW65224   0.787   9.736   3.553 -0.3472  0.9384 -0.7448
20479SOL    HW165225   0.819   9.778   3.632  0.6362 -0.9429 -0.0771
20479SOL    HW265226   0.760   9.808   3.496  0.4638  2.3962  0.6516
20480SOL     OW65227   1.493   9.724   9.507  0.3203  0.8223 -0.1226
20480SOL    HW165228   1.586   9.703   9.508 -0.2309 -2.0085 -0.6023
20480SOL    HW265229   1.466   9.715   9.598  0.6456  2.6801  0.2065
20481SOL     OW65230   5.549   9.898   4.133 -0.1130 -0.1867 -0.0514
20481SOL    HW165231   5.491   9.974   4.129  0.2844  0.3412  2.6322
20481SOL    HW265232   5.628   9.925   4.086 -0.1365  0.9118  0.5186
20482SOL     OW65233   6.923   4.274   4.133 -0.0523  0.1871 -0.8209
20482SOL    HW165234   6.927   4.190   4.179  0.4407 -0.4171 -1.9288
20482SOL    HW265235   6.830   4.296   4.131 -0.0601  0.4226  0.7653
20483SOL     OW65236   0.948   8.602   6.885  0.1766 -0.2250  0.5715
20483SOL    HW165237   0.913   8.541   6.819 -1.9832  2.2983 -0.8099
20483SOL    HW265238   1.042   8.606   6.866  0.0140 -1.4596 -0.6992
20484SOL     OW65239   6.578   3.495   5.256  0.2510  0.0064 -0.0470
20484SOL    HW165240   6.510   3.519   5.319  0.7746 -0.8523  0.8730
20484SOL    HW265241   6.658   3.490   5.308  1.5687  3.2806 -1.4803
20485SOL     OW65242   1.928   4.136   9.078 -0.5908  0.4062 -0.0734
20485SOL    HW165243   1.967   4.191   9.011  1.8655  0.3021  1.1395
20485SOL    HW265244   1.875   4.072   9.030  2.3149 -0.6728 -2.0880
20486SOL     OW65245   5.986   2.560   5.505 -0.2654  0.9789  0.0768
20486SOL    HW165246   6.043   2.611   5.448  0.7178  1.3929  1.3794
20486SOL    HW265247   5.899   2.600   5.494 -0.2332  0.6638 -1.5345
20487SOL     OW65248   2.335   6.391   4.208  0.4689  0.3748  0.0359
20487SOL    HW165249   2.314   6.452   4.279  2.7340  0.1020  1.0228
20487SOL    HW265250   2.296   6.308   4.234 -2.7258  1.2829 -1.3620
20488SOL     OW65251   7.593   5.002   4.569 -0.1954  0.1207  0.1449
20488SOL    HW165252   7.653   4.995   4.644 -0.7896 -0.0912  0.6062
20488SOL    HW265253   7.508   5.023   4.607 -0.5002  0.0429 -0.4717
20489SOL     OW65254   6.315   6.611   9.996  0.2511  0.3895  0.0095
20489SOL    HW165255   6.305   6.595   9.902  1.1274  0.9428 -0.1899
20489SOL    HW265256   6.256   6.548  10.037 -1.0737  0.9636 -0.9415
20490SOL     OW65257   6.364   1.617   3.250  0.0977 -0.0739 -0.0438
20490SOL    HW165258   6.338   1.528   3.276  0.9605  0.3129  2.4051
20490SOL    HW265259   6.449   1.607   3.209  0.6822 -0.3043  1.1893
20491SOL     OW65260   2.989   6.636   9.752  0.0119  0.3677  0.0159
20491SOL    HW165261   3.083   6.639   9.773 -0.1019 -0.1968  0.6298
20491SOL    HW265262   2.977   6.705   9.687  0.7696  0.7550  0.2742
20492SOL     OW65263   4.010   6.643   7.595 -0.0132  0.4027 -0.3786
20492SOL    HW165264   4.052   6.562   7.622 -1.3371 -0.8340 -1.8274
20492SOL    HW265265   3.958   6.670   7.671 -1.4966 -1.4857 -0.6409
20493SOL     OW65266   3.600   5.056   3.874  0.0571 -0.6222 -0.4854
20493SOL    HW165267   3.585   4.986   3.810  1.1019 -1.5270  0.2059
20493SOL    HW265268   3.518   5.106   3.875 -0.6607 -1.7377 -1.1229
20494SOL     OW65269   2.425   3.188   5.420  0.5566 -0.1109  0.3286
20494SOL    HW165270   2.412   3.278   5.391 -2.2237 -0.1232  1.2466
20494SOL    HW265271   2.457   3.142   5.342 -0.1435  1.2408 -0.7892
20495SOL     OW65272   1.912   2.440   0.819 -0.4913  0.1594 -0.0757
20495SOL    HW165273   1.976   2.424   0.889 -1.5353 -0.7344  0.7039
20495SOL    HW265274   1.827   2.432   0.862 -1.1454  0.8460 -1.2041
20496SOL     OW65275   2.685   5.401   4.378  0.3906  0.4137  0.0619
20496SOL    HW165276   2.767   5.439   4.411 -0.2234  1.0556  0.9036
20496SOL    HW265277   2.617   5.446   4.427 -0.5004  0.2650 -0.9980
20497SOL     OW65278   9.956   6.914   7.387  0.2435  0.1195 -0.0212
20497SOL    HW165279  10.000   6.906   7.471  0.5406  2.6421  0.1588
20497SOL    HW265280   9.994   6.846   7.332  1.0908 -0.6305  1.4487
20498SOL     OW65281   0.568   6.050   4.948 -0.1415  0.3715 -0.1607
20498SOL    HW165282   0.570   6.125   5.006 -0.7178  1.0236 -0.9603
20498SOL    HW265283   0.478   6.017   4.954  0.0562 -0.1450  0.0446
20499SOL     OW65284   6.782   3.901   9.527 -0.0231 -0.3249  0.4520
20499SOL    HW165285   6.824   3.947   9.599 -1.5413  2.0007 -0.0340
20499SOL    HW265286   6.842   3.912   9.453  2.6369 -4.5871  1.6359
20500SOL     OW65287   9.235   2.371   8.525 -0.4919 -0.0224 -0.1488
20500SOL    HW165288   9.180   2.444   8.496  0.4899  0.4880 -0.7928
20500SOL    HW265289   9.313   2.413   8.561  0.6037 -0.7374 -1.5562
20501SOL     OW65290   5.587   0.929   5.990  0.3820  0.2044  0.2676
20501SOL    HW165291   5.517   0.942   5.926  0.6887  0.0915 -0.1010
20501SOL    HW265292   5.663   0.972   5.950  0.4011  0.7671  0.8951
20502SOL     OW65293   9.398   1.490   9.367  0.3974  0.3578 -0.0898
20502SOL    HW165294   9.426   1.405   9.334 -0.5933  0.5678 -1.5402
20502SOL    HW265295   9.472   1.521   9.420  1.3625 -0.7300 -0.7572
20503SOL     OW65296   1.257   3.341   4.473  0.6620  0.5538 -0.2906
20503SOL    HW165297   1.162   3.352   4.481  0.7314  1.8238 -0.9143
20503SOL    HW265298   1.271   3.318   4.381  0.9063 -0.4981 -0.0035
20504SOL     OW65299   3.933   9.777   3.567 -0.1421 -0.1891 -0.2557
20504SOL    HW165300   3.877   9.724   3.509 -0.5180 -1.7352  1.4053
20504SOL    HW265301   3.889   9.773   3.652  0.6930  1.5179  0.2987
20505SOL     OW65302   4.078   6.364   7.576  0.8145  0.2357  0.4470
20505SOL    HW165303   4.172   6.377   7.568  1.3390 -2.4052  1.2564
20505SOL    HW265304   4.051   6.327   7.492  0.5287  0.7772  0.2947
20506SOL     OW65305   4.308   7.011   1.920 -0.4357 -0.1005 -0.6510
20506SOL    HW165306   4.272   7.099   1.907 -0.1682  0.5323  2.1819
20506SOL    HW265307   4.262   6.978   1.998  2.1775 -0.8710  0.6993
20507SOL     OW65308   4.644   2.431   8.004  0.0039 -0.1860 -0.6146
20507SOL    HW165309   4.634   2.408   7.912  1.1940 -0.6930 -0.6366
20507SOL    HW265310   4.694   2.512   8.004 -2.0486  1.1342 -0.4573
20508SOL     OW65311   4.685   4.339   5.735 -0.3483  0.1773  0.0016
20508SOL    HW165312   4.609   4.346   5.678  1.6185  2.0395 -2.6474
20508SOL    HW265313   4.734   4.264   5.700 -0.5103 -0.5018  1.1696
20509SOL     OW65314   3.379   9.972   0.525 -0.2634  0.3773  0.5039
20509SOL    HW165315   3.472   9.994   0.533  0.2118 -1.1488 -0.3763
20509SOL    HW265316   3.356   9.930   0.608  0.0610  0.0345  0.4230
20510SOL     OW65317   8.524   6.601   5.028 -0.1177  0.1981  0.6032
20510SOL    HW165318   8.466   6.547   5.082  0.4703 -0.2644  0.7798
20510SOL    HW265319   8.554   6.542   4.959 -1.6485  1.0359 -0.8752
20511SOL     OW65320   9.534   9.111   6.336 -0.1437  0.5789 -0.3483
20511SOL    HW165321   9.491   9.143   6.257  1.4759  1.4855 -0.9066
20511SOL    HW265322   9.512   9.175   6.404 -1.0585  0.1124 -0.1929
20512SOL     OW65323   9.944   4.377   9.147 -0.1906  0.5407 -0.1413
20512SOL    HW165324  10.018   4.388   9.088  0.3532 -0.8300  0.2367
20512SOL    HW265325   9.983   4.381   9.235 -0.8590  1.7058  0.1209
20513SOL     OW65326   4.763   0.541   9.141 -0.1215 -0.1894 -0.2826
20513SOL    HW165327   4.796   0.452   9.152  0.6354  0.1053 -0.1144
20513SOL    HW265328   4.839   0.597   9.155 -0.5478  0.4803 -0.5747
20514SOL     OW65329   2.982   1.351   7.580  0.2080  0.2700 -0.1132
20514SOL    HW165330   2.958   1.421   7.519 -0.5393  0.8131  0.7750
20514SOL    HW265331   3.075   1.364   7.598 -0.1314  1.6695  0.8029
20515SOL     OW65332   9.411   6.472   0.104  0.1435  0.6452 -0.0909
20515SOL    HW165333   9.445   6.418   0.034  0.1943  0.2660  0.2188
20515SOL    HW265334   9.472   6.459   0.177 -1.2782 -1.0166  0.8813
20516SOL     OW65335  10.121   8.390   1.514 -0.1504 -0.6098  0.1071
20516SOL    HW165336  10.136   8.384   1.608  1.6411 -3.6543 -0.2352
20516SOL    HW265337  10.206   8.413   1.477 -0.7603  0.2517 -0.8095
20517SOL     OW65338   7.537   2.166   5.535 -0.0079  0.2049 -0.5113
20517SOL    HW165339   7.553   2.261   5.528 -0.1862  0.2329 -0.5436
20517SOL    HW265340   7.482   2.146   5.459  1.1246 -0.1644 -1.2592
20518SOL     OW65341   7.038   1.282   8.734 -0.4134  0.0267 -0.5237
20518SOL    HW165342   7.016   1.191   8.753  0.2476 -0.3492 -1.4903
20518SOL    HW265343   6.953   1.324   8.719 -0.6478 -0.8946 -2.0089
20519SOL     OW65344   0.926   5.847   5.138 -0.6052  0.1673  0.3591
20519SOL    HW165345   0.925   5.823   5.230  0.3255  1.6615  0.8022
20519SOL    HW265346   0.836   5.874   5.119 -0.8668 -0.4232  0.7461
20520SOL     OW65347   3.711   7.667   5.305  0.2150 -0.1846  0.6405
20520SOL    HW165348   3.670   7.618   5.233  0.3065  0.7435 -0.0692
20520SOL    HW265349   3.662   7.641   5.383 -0.7174 -0.2647  0.0481
20521SOL     OW65350   6.728   3.162   8.805  0.4498  0.1124  0.1124
20521SOL    HW165351   6.736   3.096   8.874  0.6503  0.4493  0.4161
20521SOL    HW265352   6.813   3.206   8.805 -0.0972  1.2025  0.7740
20522SOL     OW65353   0.103   5.314   6.085  0.0575 -0.1969 -0.4949
20522SOL    HW165354   0.007   5.322   6.085  0.0224 -0.5968 -0.9159
20522SOL    HW265355   0.126   5.313   6.178 -0.2906  0.5194 -0.3913
20523SOL     OW65356   4.158   9.437  10.345 -0.0769  1.0548  0.7713
20523SOL    HW165357   4.207   9.424  10.264 -0.4597  1.2086  0.5138
20523SOL    HW265358   4.225   9.439  10.413  0.0835 -1.4829  0.7612
20524SOL     OW65359   3.372   3.124   5.755  0.2514 -0.0448 -0.0993
20524SOL    HW165360   3.331   3.055   5.704 -0.1027  0.4226 -0.4517
20524SOL    HW265361   3.340   3.111   5.844 -2.4864  1.6232 -0.7295
20525SOL     OW65362   5.355   4.818   2.154 -0.2381  0.0301 -0.3500
20525SOL    HW165363   5.323   4.815   2.244  0.7098  1.7232  0.0873
20525SOL    HW265364   5.283   4.857   2.104 -0.3363  0.1747 -0.0984
20526SOL     OW65365   0.383   4.177   5.706  0.2172  0.0686 -0.1016
20526SOL    HW165366   0.410   4.267   5.685  1.6280 -0.1003  0.9046
20526SOL    HW265367   0.331   4.150   5.631  1.5433  0.9903 -1.4067
20527SOL     OW65368   2.238   5.831   9.210  0.6973  0.0329 -0.5731
20527SOL    HW165369   2.283   5.879   9.280  0.1165  1.7922 -1.3684
20527SOL    HW265370   2.160   5.883   9.191  1.5296  0.3799 -3.4803
20528SOL     OW65371   1.763   8.327   2.623 -0.0092 -0.2014 -0.1056
20528SOL    HW165372   1.740   8.419   2.608 -1.4239 -0.4777  0.2103
20528SOL    HW265373   1.849   8.317   2.583  0.0746  1.2107 -0.3271
20529SOL     OW65374   3.894   3.814   0.979 -0.1771  0.2426  0.7010
20529SOL    HW165375   3.978   3.825   1.024 -0.5095  1.1357  1.1214
20529SOL    HW265376   3.866   3.904   0.960 -1.4923  0.0039  1.4266
20530SOL     OW65377   5.296   2.607   0.949  0.4958 -0.5914 -0.2480
20530SOL    HW165378   5.266   2.516   0.954  0.4949 -0.5775  0.0233
20530SOL    HW265379   5.372   2.610   1.008  0.2034 -0.3037  0.1224
20531SOL     OW65380   9.436   2.297   7.470 -0.6674  0.0294  0.4787
20531SOL    HW165381   9.448   2.386   7.502 -0.2720 -0.2340  1.0711
20531SOL    HW265382   9.377   2.306   7.395  0.9269  1.0195 -0.7185
20532SOL     OW65383   3.901   1.434   2.607 -0.4770  0.3276 -0.4526
20532SOL    HW165384   3.930   1.506   2.662  0.7196 -0.4062 -0.0588
20532SOL    HW265385   3.913   1.465   2.517  1.5770  0.1165 -0.3165
20533SOL     OW65386   3.288   3.514  10.255 -0.3170 -0.0132  0.1199
20533SOL    HW165387   3.227   3.577  10.216  0.5599  1.5758  1.1642
20533SOL    HW265388   3.241   3.477  10.329 -0.3748  0.4762  0.3326
20534SOL     OW65389   1.319  10.265   3.668  0.0558 -0.0001 -0.0144
20534SOL    HW165390   1.396  10.222   3.631 -0.1618 -0.6620  0.2800
20534SOL    HW265391   1.299  10.337   3.608 -0.1368 -0.8859 -1.0236
20535SOL     OW65392   3.205   0.398   3.602  0.4309  0.7957 -0.0324
20535SOL    HW165393   3.186   0.485   3.638 -0.0765  0.4472  0.5428
20535SOL    HW265394   3.191   0.338   3.675 -1.7188 -0.0417 -1.0472
20536SOL     OW65395   5.932   4.450   3.254  1.0795 -0.0979 -0.1189
20536SOL    HW165396   5.970   4.368   3.287  2.0793  0.2718 -0.2935
20536SOL    HW265397   5.838   4.441   3.269  0.8503 -2.2363 -2.1714
20537SOL     OW65398   5.439   6.807   1.901 -0.6905  0.3265 -0.5331
20537SOL    HW165399   5.519   6.840   1.942 -0.5294 -1.8408  1.0291
20537SOL    HW265400   5.425   6.866   1.826  2.0060  1.1387 -0.5112
20538SOL     OW65401   2.738   1.166   8.539 -0.2422  0.6932 -0.6536
20538SOL    HW165402   2.645   1.158   8.561  0.6049 -1.5375  2.7854
20538SOL    HW265403   2.763   1.079   8.507  0.7537  1.1933 -1.3062
20539SOL     OW65404   8.490   6.713   3.943 -0.3455 -0.5701  0.0654
20539SOL    HW165405   8.413   6.768   3.959  1.1405  1.3799  1.0836
20539SOL    HW265406   8.564   6.772   3.959  1.3670 -2.3382 -0.9483
20540SOL     OW65407   1.606   6.771   9.674 -0.2258 -0.1401 -0.0173
20540SOL    HW165408   1.618   6.691   9.725  1.9488  0.8005  1.0570
20540SOL    HW265409   1.693   6.793   9.643 -1.0588  0.9119 -1.7496
20541SOL     OW65410  10.084   4.661   7.121  0.1268 -0.3184  0.2566
20541SOL    HW165411  10.025   4.735   7.134 -0.2444 -0.4107 -0.7853
20541SOL    HW265412  10.172   4.698   7.133 -0.0209  0.4582 -0.8566
20542SOL     OW65413  10.284   8.478   4.127 -0.1723  0.3770 -0.0928
20542SOL    HW165414  10.259   8.497   4.037  2.1208 -1.0898 -1.1379
20542SOL    HW265415  10.324   8.559   4.158  0.0644  0.5493 -0.8247
20543SOL     OW65416   7.171   8.498   1.460 -0.0211  0.2969  0.1462
20543SOL    HW165417   7.228   8.446   1.517  0.1828 -0.6475 -0.8920
20543SOL    HW265418   7.100   8.527   1.517 -0.5602 -1.7689  0.6071
20544SOL     OW65419   0.114   3.876   9.421  0.2570 -0.0601 -0.1963
20544SOL    HW165420   0.117   3.938   9.495 -1.5399  1.9214 -1.6296
20544SOL    HW265421   0.103   3.790   9.462 -1.6462  1.0598  1.8851
20545SOL     OW65422   6.369   2.023   3.269  0.7242 -0.2178  0.1781
20545SOL    HW165423   6.443   2.060   3.221 -0.3115  0.7477 -0.7406
20545SOL    HW265424   6.305   2.095   3.274 -0.9285 -1.5347 -0.7341
20546SOL     OW65425   0.641   5.946   3.085  0.1639 -0.2786 -0.3887
20546SOL    HW165426   0.549   5.946   3.059  0.4982 -0.6529 -1.6216
20546SOL    HW265427   0.677   6.025   3.045 -0.4218  2.0638  3.2581
20547SOL     OW65428   8.301   0.220   8.479 -0.0219 -0.8347 -0.5493
20547SOL    HW165429   8.270   0.308   8.501 -2.0465 -1.9957  1.8594
20547SOL    HW265430   8.252   0.196   8.400 -1.8283 -0.8534  0.5121
20548SOL     OW65431   0.407   1.710   4.748 -0.0924  0.3789  0.3640
20548SOL    HW165432   0.485   1.750   4.709 -0.4398 -0.5182 -1.3474
20548SOL    HW265433   0.334   1.755   4.706 -0.4943 -0.1002  0.5445
20549SOL     OW65434   2.971   8.479   7.446 -0.1036  0.5568  0.4481
20549SOL    HW165435   2.941   8.545   7.384  0.9368  1.6109  1.0300
20549SOL    HW265436   3.058   8.453   7.414 -0.9887 -1.4642 -0.4632
20550SOL     OW65437   8.365   0.379   6.024 -0.1629 -0.1743 -0.1206
20550SOL    HW165438   8.439   0.421   6.068  0.9523  0.0091 -2.0561
20550SOL    HW265439   8.381   0.285   6.034  0.9839 -0.1571 -1.4516
20551SOL     OW65440   8.116   7.176   0.969 -0.4060  0.3056  0.1821
20551SOL    HW165441   8.183   7.240   0.944  0.6022 -0.7742  0.0224
20551SOL    HW265442   8.033   7.217   0.944  0.2385  1.3797 -0.2725
20552SOL     OW65443   7.464   0.298   7.637 -0.4754 -0.1687  0.0759
20552SOL    HW165444   7.497   0.329   7.721 -1.2525 -0.9612  0.6886
20552SOL    HW265445   7.502   0.211   7.627  1.6243  0.8494 -1.5907
20553SOL     OW65446   2.599   9.925   4.276  0.0212 -0.0954  0.2817
20553SOL    HW165447   2.594   9.885   4.189 -2.1176  2.4321 -0.8857
20553SOL    HW265448   2.509   9.927   4.307  0.3428  1.7017  1.2399
20554SOL     OW65449   2.625   9.534   0.719  0.1147 -0.6542  0.0052
20554SOL    HW165450   2.571   9.486   0.656  1.2329 -1.0251 -0.7109
20554SOL    HW265451   2.606   9.494   0.803 -1.7609  0.1544  0.0067
20555SOL     OW65452   9.992   7.060   0.191 -0.0472  0.1554  0.1845
20555SOL    HW165453  10.010   7.139   0.140  0.9684  0.0107  0.2974
20555SOL    HW265454  10.014   7.085   0.281  3.5770 -1.1557 -0.1594
20556SOL     OW65455   7.302   7.509   3.269  0.1911  0.1921 -0.5410
20556SOL    HW165456   7.311   7.471   3.356  1.8192  0.0382 -0.7470
20556SOL    HW265457   7.283   7.435   3.212  2.1633 -0.2039 -0.7548
20557SOL     OW65458   6.008   5.090   5.109 -0.2195 -0.1482 -0.1144
20557SOL    HW165459   6.006   5.174   5.154 -0.7573 -0.2025 -0.0264
20557SOL    HW265460   5.956   5.103   5.030  0.7297 -0.0526 -0.7387
20558SOL     OW65461   3.708   9.007   4.007 -0.3798 -0.1877  0.1084
20558SOL    HW165462   3.751   8.921   4.009  0.6410  0.1411 -2.6025
20558SOL    HW265463   3.698   9.031   4.099  2.0690 -1.8726  0.9347
20559SOL     OW65464   0.072   0.184  10.158 -0.3259  0.4559 -0.4245
20559SOL    HW165465   0.124   0.103  10.160  0.2070  0.7938 -0.2749
20559SOL    HW265466   0.120   0.244  10.215 -0.9574  0.7392 -0.1848
20560SOL     OW65467   1.952   3.784   3.842 -0.4631  0.1605  0.1907
20560SOL    HW165468   1.936   3.876   3.860  0.5495  0.0162  1.9720
20560SOL    HW265469   2.038   3.766   3.880 -0.0850 -1.2314 -1.2293
20561SOL     OW65470   2.163   6.485   7.208  0.7160 -0.2517  0.3797
20561SOL    HW165471   2.108   6.424   7.256  1.3719 -0.1481  1.2942
20561SOL    HW265472   2.105   6.523   7.142  0.5528 -2.6985 -1.0378
20562SOL     OW65473   6.596   2.573   9.428  0.2359 -0.3578  0.5215
20562SOL    HW165474   6.653   2.573   9.504  0.6179 -0.4978  0.2351
20562SOL    HW265475   6.623   2.497   9.377  1.8667  1.2395 -1.1594
20563SOL     OW65476  10.174   3.362   0.487 -0.8538  0.1759  0.1164
20563SOL    HW165477  10.163   3.275   0.523 -0.8160 -0.6247 -1.6813
20563SOL    HW265478  10.132   3.358   0.401 -0.0099  1.6333 -0.4009
20564SOL     OW65479   5.782   4.360   2.676 -0.8017  0.2807  0.1593
20564SOL    HW165480   5.735   4.379   2.757  0.2563 -0.2205  0.9145
20564SOL    HW265481   5.801   4.446   2.638 -1.8875  0.4984  0.0840
20565SOL     OW65482   8.103   3.461   1.613 -0.1202  0.6522 -0.0267
20565SOL    HW165483   8.124   3.370   1.590  0.0666  0.5722  0.4517
20565SOL    HW265484   8.162   3.482   1.685 -0.0056  1.2332 -0.2862
20566SOL     OW65485   7.959   9.990   9.626 -0.4415 -0.3117 -0.8602
20566SOL    HW165486   7.912  10.068   9.655 -1.6673 -0.2618 -2.7679
20566SOL    HW265487   7.953   9.929   9.699 -1.3045  0.6258 -0.1246
20567SOL     OW65488   5.989   5.667   1.522  0.2813  0.1131  0.7591
20567SOL    HW165489   5.971   5.584   1.565  0.4925 -1.0598 -1.2675
20567SOL    HW265490   5.904   5.696   1.487  0.2842  0.5484  1.0979
20568SOL     OW65491   1.333   2.036   9.987 -0.5414  0.0326  0.0527
20568SOL    HW165492   1.257   2.012   9.934 -0.4229  0.4057 -0.2948
20568SOL    HW265493   1.391   1.960   9.981 -2.3435 -1.8434  3.2343
20569SOL     OW65494   6.412   1.107   3.167  0.0756  0.2936  0.0254
20569SOL    HW165495   6.461   1.098   3.248 -0.1494 -2.0057 -0.0213
20569SOL    HW265496   6.374   1.021   3.152  1.4149  0.1271 -3.3540
20570SOL     OW65497   6.577   2.371   5.580 -0.3101 -0.3036  0.3535
20570SOL    HW165498   6.493   2.330   5.558 -1.1368  0.5116  1.8393
20570SOL    HW265499   6.633   2.350   5.506 -2.6459  1.6564 -2.1714
20571SOL     OW65500   8.659   6.639   1.906  0.7107 -0.1226 -0.1437
20571SOL    HW165501   8.723   6.694   1.951  0.7700  0.1483 -0.5486
20571SOL    HW265502   8.703   6.554   1.895  1.2368  0.2406 -0.9518
20572SOL     OW65503   0.814   8.350   7.574  0.3352 -0.3566 -0.8942
20572SOL    HW165504   0.862   8.277   7.613 -1.5697 -0.9192  0.5251
20572SOL    HW265505   0.732   8.312   7.544 -0.1089  0.9473 -1.4284
20573SOL     OW65506   2.586  10.059   9.508  0.1145  0.3136  0.1646
20573SOL    HW165507   2.604  10.122   9.578 -1.1740  0.6908  0.1762
20573SOL    HW265508   2.552   9.982   9.553  1.4888 -0.3506  0.1309
20574SOL     OW65509  10.185   3.323   3.076 -0.0873 -0.4422  0.2574
20574SOL    HW165510  10.147   3.257   3.019 -1.4793  0.1315  0.4994
20574SOL    HW265511  10.259   3.359   3.026  1.4744 -2.9553  0.5762
20575SOL     OW65512   8.149   8.935   0.637 -0.3169  0.7654  0.3861
20575SOL    HW165513   8.196   8.980   0.707 -1.6146  1.2534  0.9877
20575SOL    HW265514   8.073   8.992   0.619 -0.7743 -0.0655 -0.4197
20576SOL     OW65515   9.305   6.360   8.408  0.2562  0.3842 -0.0234
20576SOL    HW165516   9.379   6.392   8.460  0.2064  1.0249 -0.3421
20576SOL    HW265517   9.282   6.277   8.449 -0.2819  1.2312  1.4808
20577SOL     OW65518   1.041   0.411   0.005 -0.6447 -0.3491 -0.1696
20577SOL    HW165519   0.970   0.352   0.030 -2.0301  1.0075 -0.7520
20577SOL    HW265520   1.005   0.499   0.021  1.6651  0.3859  1.5711
20578SOL     OW65521   5.516   4.448   6.308  0.3347  0.6037  0.1055
20578SOL    HW165522   5.457   4.481   6.240  1.6131  0.4178 -1.1504
20578SOL    HW265523   5.458   4.403   6.370 -1.3481  4.0313  1.2709
20579SOL     OW65524   8.579   1.509   7.849 -0.4025 -0.0750 -0.2283
20579SOL    HW165525   8.558   1.598   7.874  0.2889  0.2071 -0.6138
20579SOL    HW265526   8.526   1.454   7.906 -1.1277  0.5840 -0.2593
20580SOL     OW65527   1.164   1.904   9.415 -0.2058 -0.6084 -0.7874
20580SOL    HW165528   1.074   1.934   9.403 -0.3306 -0.3806  0.5368
20580SOL    HW265529   1.155   1.810   9.433 -0.3166 -0.3607  0.5817
20581SOL     OW65530  10.281   2.774   9.035  0.5022 -0.0604  0.1806
20581SOL    HW165531  10.329   2.793   8.954  0.1604 -0.9413 -0.2371
20581SOL    HW265532  10.297   2.681   9.052  0.4753  0.0818  1.0706
20582SOL     OW65533   2.684   2.201   3.630  0.1511 -0.2857  0.1248
20582SOL    HW165534   2.623   2.160   3.691  0.1720 -0.6776 -0.1158
20582SOL    HW265535   2.770   2.188   3.670 -0.0352  1.8462  1.3857
20583SOL     OW65536  10.078   6.084   2.503  0.2743 -0.1981 -0.9842
20583SOL    HW165537  10.171   6.066   2.488  0.3200 -1.0932  0.2190
20583SOL    HW265538  10.034   6.003   2.476  0.1144 -0.7780  0.8523
20584SOL     OW65539   9.983   3.899   4.856 -0.4061  0.0519 -0.4680
20584SOL    HW165540  10.039   3.941   4.921 -0.8090  0.5069 -0.4135
20584SOL    HW265541   9.975   3.809   4.887  0.1641  0.0215 -0.3928
20585SOL     OW65542   9.110  10.209   0.227  0.1993  0.4024 -0.0764
20585SOL    HW165543   9.107  10.134   0.167 -0.0213 -0.7679  1.3265
20585SOL    HW265544   9.203  10.226   0.240  0.2646 -0.1045  0.1430
20586SOL     OW65545   6.879   7.330   2.626 -0.4042  0.0967 -0.1809
20586SOL    HW165546   6.928   7.258   2.586  0.5543  0.9020 -0.4909
20586SOL    HW265547   6.945   7.397   2.643 -1.2764  0.8852  0.1467
20587SOL     OW65548  10.320   8.818   5.502 -0.1952 -0.0986 -0.3799
20587SOL    HW165549  10.316   8.910   5.527 -0.4220  0.1263 -1.2356
20587SOL    HW265550  10.334   8.772   5.585  0.4222  0.7361 -0.0041
20588SOL     OW65551   1.954   1.362   2.748 -0.6996 -0.5694 -0.1434
20588SOL    HW165552   1.909   1.282   2.773  0.0567 -1.0258 -0.1951
20588SOL    HW265553   1.979   1.347   2.657  0.5684 -0.8163  0.2281
20589SOL     OW65554   9.586   3.633   5.053 -0.3484  0.6025  0.0592
20589SOL    HW165555   9.603   3.720   5.016 -1.2788  0.4469 -0.7690
20589SOL    HW265556   9.514   3.598   5.001 -1.3439  0.1430  1.6655
20590SOL     OW65557   3.686   8.076   0.693 -0.2976 -1.0255  0.2546
20590SOL    HW165558   3.712   8.159   0.654 -0.6851 -1.7587 -1.6779
20590SOL    HW265559   3.692   8.091   0.787  0.3890  0.9358 -0.0520
20591SOL     OW65560   1.261   9.443   6.947  0.1246 -0.4482 -0.1237
20591SOL    HW165561   1.233   9.455   6.856  0.4155  0.6935 -0.0830
20591SOL    HW265562   1.183   9.408   6.992 -0.7504  1.0711 -0.3675
20592SOL     OW65563   1.895   2.225   7.969 -0.0598 -0.0135 -0.1092
20592SOL    HW165564   1.844   2.215   8.049 -0.0408  0.6355 -0.0129
20592SOL    HW265565   1.937   2.311   7.977  0.6411 -0.3194 -0.4181
20593SOL     OW65566   9.257   9.817   5.112  0.2278  0.0549 -0.4478
20593SOL    HW165567   9.204   9.834   5.034 -0.3301 -1.5307 -0.4454
20593SOL    HW265568   9.212   9.746   5.157  0.7578  0.6814  1.1388
20594SOL     OW65569   2.847   9.455   4.374 -0.3900 -0.2637  0.3896
20594SOL    HW165570   2.803   9.522   4.427 -0.6762  0.3864 -0.6297
20594SOL    HW265571   2.905   9.505   4.316  0.4774 -1.0083  0.6019
20595SOL     OW65572   3.879   9.761   3.086  1.2978  0.3211 -0.0758
20595SOL    HW165573   3.904   9.792   3.173  0.2034  1.0100  0.0078
20595SOL    HW265574   3.962   9.736   3.046  1.8753  0.4301  0.9897
20596SOL     OW65575   9.764   2.261   4.979  0.7768 -0.0893  0.0727
20596SOL    HW165576   9.827   2.224   4.917  1.0471 -0.8146  0.7603
20596SOL    HW265577   9.705   2.189   5.000  1.4319 -0.2229  1.5930
20597SOL     OW65578   9.463  10.321   6.063 -0.2719 -0.2646  0.1118
20597SOL    HW165579   9.448  10.327   6.158 -2.5799  0.9344 -0.2541
20597SOL    HW265580   9.429  10.235   6.039 -0.2672 -0.3185  0.2959
20598SOL     OW65581   1.512   3.956   1.417  0.5263 -0.2722  0.4536
20598SOL    HW165582   1.496   3.995   1.331 -0.7109  0.1850  0.8674
20598SOL    HW265583   1.586   4.005   1.452 -0.2190  0.9170  0.4474
20599SOL     OW65584   6.930   9.542   8.780  0.6589 -0.4566 -0.3640
20599SOL    HW165585   7.007   9.515   8.829  1.4025 -0.1014 -1.2977
20599SOL    HW265586   6.963   9.608   8.718 -0.8832  1.9125  1.1612
20600SOL     OW65587   7.291   6.797   7.448 -0.3248  0.8708  0.8142
20600SOL    HW165588   7.295   6.887   7.481  1.1083  0.8459  0.7421
20600SOL    HW265589   7.274   6.744   7.525  2.8152  0.8279  1.6197
20601SOL     OW65590   7.872   9.060   9.111 -0.1945  0.1348  0.1639
20601SOL    HW165591   7.838   9.130   9.166 -3.2850 -1.0213 -0.0634
20601SOL    HW265592   7.926   9.007   9.169 -1.0135  0.5503  1.3341
20602SOL     OW65593   9.363   0.498   6.013  0.0731 -0.0218  0.6019
20602SOL    HW165594   9.423   0.531   6.080 -1.1996 -0.1301  1.8521
20602SOL    HW265595   9.277   0.532   6.039 -0.3916  0.3794 -1.2999
20603SOL     OW65596   1.359   0.905   1.352 -0.5082 -0.0397  0.3857
20603SOL    HW165597   1.451   0.882   1.357 -0.3322  0.7161  0.7536
20603SOL    HW265598   1.314   0.822   1.336  0.2900 -0.3103 -0.5152
20604SOL     OW65599   0.095   9.646   3.070 -0.6155  0.3331  1.1275
20604SOL    HW165600   0.069   9.737   3.054  0.4442  0.5850  0.7533
20604SOL    HW265601   0.059   9.597   2.996  0.0857  0.7109  0.5105
20605SOL     OW65602   3.872   3.287   9.503 -0.0172 -0.3035 -0.2057
20605SOL    HW165603   3.825   3.370   9.500  0.1643 -0.1886  0.1547
20605SOL    HW265604   3.806   3.222   9.526  0.0764 -0.0856  0.6951
20606SOL     OW65605   9.292   0.479   2.072  0.3500  0.4815  0.4615
20606SOL    HW165606   9.302   0.459   2.165  1.2261  0.4753  0.3746
20606SOL    HW265607   9.202   0.510   2.064  0.1552  0.1460  1.2468
20607SOL     OW65608  10.183   7.927   8.741  0.2723  0.2904 -0.4040
20607SOL    HW165609  10.245   7.987   8.698  1.3189  0.1257  0.8321
20607SOL    HW265610  10.233   7.847   8.756 -0.1900  0.2019  0.7581
20608SOL     OW65611   3.596  10.124   6.441  0.0584  0.4653 -0.8385
20608SOL    HW165612   3.674  10.176   6.423  1.0135 -0.1349  1.3166
20608SOL    HW265613   3.583  10.072   6.361  0.0735  2.6789 -2.3829
20609SOL     OW65614   6.373   2.302   6.660 -0.3742  0.6972 -0.2386
20609SOL    HW165615   6.304   2.338   6.604 -0.2226 -0.6595 -1.3688
20609SOL    HW265616   6.445   2.284   6.599 -0.2243 -0.8720  0.3622
20610SOL     OW65617   3.951   3.537   6.108 -0.5904 -0.3350 -0.0697
20610SOL    HW165618   3.961   3.524   6.203 -0.5102 -1.4052 -0.2026
20610SOL    HW265619   3.880   3.477   6.084  0.0484 -0.8107 -0.8303
20611SOL     OW65620   1.114   6.437   5.846  0.0613 -0.4710  0.3678
20611SOL    HW165621   1.166   6.487   5.910 -0.1467  1.3474 -0.7949
20611SOL    HW265622   1.029   6.482   5.844  0.2226 -0.1667 -1.5079
20612SOL     OW65623   2.708   4.790   9.535  0.4314 -0.9527  0.3818
20612SOL    HW165624   2.783   4.767   9.590 -0.5374  1.0055  2.6651
20612SOL    HW265625   2.632   4.785   9.594 -0.6934  1.0519 -0.7908
20613SOL     OW65626   7.501   1.929   3.222  0.1183 -0.0631  0.0868
20613SOL    HW165627   7.451   2.002   3.185 -0.7218 -0.7109 -0.0650
20613SOL    HW265628   7.518   1.956   3.313 -2.4338 -0.7476  0.8502
20614SOL     OW65629  10.145  10.198   1.089 -0.3595  0.1540 -0.2380
20614SOL    HW165630  10.082  10.198   1.162  0.6405  0.0075  0.6514
20614SOL    HW265631  10.098  10.239   1.017 -2.1151 -1.5507 -0.1582
20615SOL     OW65632   2.893   7.976   9.884  0.1916  0.2865 -0.0623
20615SOL    HW165633   2.797   7.972   9.881 -0.0160 -0.5546  3.1226
20615SOL    HW265634   2.913   8.069   9.897 -0.0080  0.7050 -2.3626
20616SOL     OW65635   9.015   3.421   2.643 -0.8021  0.2822 -0.0916
20616SOL    HW165636   8.994   3.507   2.677 -0.4436  0.0233  0.8057
20616SOL    HW265637   9.016   3.432   2.548 -0.1771  1.3920  0.0409
20617SOL     OW65638   5.226  10.117   4.655 -0.0323  0.0491 -0.2075
20617SOL    HW165639   5.274  10.197   4.631  0.4002  0.0056  0.5013
20617SOL    HW265640   5.250  10.054   4.586  1.8340 -0.3209  0.7114
20618SOL     OW65641   3.451   8.824   2.643 -0.6724  0.1551 -0.0001
20618SOL    HW165642   3.452   8.904   2.696  1.0309  0.6717 -0.7137
20618SOL    HW265643   3.450   8.856   2.553  0.3350 -0.6003 -0.2939
20619SOL     OW65644   3.824   8.706   9.035  0.6934  0.0405  0.0003
20619SOL    HW165645   3.768   8.646   8.986  0.2222 -1.1140  1.8374
20619SOL    HW265646   3.788   8.793   9.018  1.3016 -0.1293 -2.5985
20620SOL     OW65647   0.885   2.921   7.388 -0.3208 -0.3291  0.4995
20620SOL    HW165648   0.968   2.880   7.413 -0.0908  1.5475  3.2817
20620SOL    HW265649   0.880   3.001   7.441 -3.8745 -0.3079  0.4309
20621SOL     OW65650   5.397   2.138   0.591  0.1199 -0.4935  0.4128
20621SOL    HW165651   5.492   2.141   0.606 -0.0755  1.0194  1.6324
20621SOL    HW265652   5.362   2.092   0.667 -0.0093 -2.9398 -1.0328
20622SOL     OW65653   9.331   5.464   7.314  0.2123  0.0383 -0.4992
20622SOL    HW165654   9.349   5.515   7.235  1.0134 -0.4237 -0.6193
20622SOL    HW265655   9.323   5.374   7.283 -3.2727  0.2419 -0.6254
20623SOL     OW65656   8.006   4.377   2.441 -0.0613 -0.4608  0.3154
20623SOL    HW165657   8.077   4.396   2.380 -0.1444 -0.7957  0.1115
20623SOL    HW265658   7.943   4.447   2.427 -0.7693 -1.3371 -1.0546
20624SOL     OW65659   7.619   7.890   3.511 -0.6074 -0.4164 -0.1632
20624SOL    HW165660   7.600   7.853   3.597 -0.2074 -0.6230 -0.1606
20624SOL    HW265661   7.714   7.894   3.507 -0.6396  1.8423  0.3488
20625SOL     OW65662   4.488   4.463   6.541  0.0293  0.3842  0.3406
20625SOL    HW165663   4.476   4.464   6.636 -1.4171 -1.1479  0.2288
20625SOL    HW265664   4.541   4.385   6.524 -0.7566 -0.0585 -0.1703
20626SOL     OW65665   7.000   7.852   9.971  0.1602 -0.4487 -0.0035
20626SOL    HW165666   7.015   7.933  10.019  0.0930  0.0596 -0.8368
20626SOL    HW265667   6.978   7.788  10.039 -1.2529  0.5696  0.5477
20627SOL     OW65668   8.013   1.739   7.523 -0.0037 -0.0097  0.2566
20627SOL    HW165669   8.013   1.828   7.487  0.2384 -0.3603 -0.6391
20627SOL    HW265670   7.957   1.744   7.600  0.5583  1.0739  0.6119
20628SOL     OW65671   7.655   7.376   2.769  0.1317 -0.8632  0.2346
20628SOL    HW165672   7.580   7.338   2.814 -0.5154  0.5434  0.3896
20628SOL    HW265673   7.668   7.320   2.692 -1.1808 -1.0171  0.1094
20629SOL     OW65674   1.086   6.868   5.726 -0.3381  0.1584  0.9596
20629SOL    HW165675   1.046   6.801   5.670 -0.3810  0.0803  1.0843
20629SOL    HW265676   1.013   6.909   5.772 -0.2773  0.0383  1.1625
20630SOL     OW65677   9.259   3.009   9.441 -0.4303 -0.5846  0.1485
20630SOL    HW165678   9.241   2.993   9.349 -0.6781 -2.2245  0.4347
20630SOL    HW265679   9.181   3.055   9.473 -0.0784  0.5389 -0.5748
20631SOL     OW65680   8.619   6.829   7.959  0.0480 -0.8555 -0.3536
20631SOL    HW165681   8.569   6.766   7.907  0.1238 -0.9021 -0.3687
20631SOL    HW265682   8.710   6.816   7.932 -0.1438  0.8207 -2.0972
20632SOL     OW65683   5.565   1.244   8.604  0.3940 -0.2209  0.3805
20632SOL    HW165684   5.488   1.300   8.607  0.4469  0.0517 -1.6718
20632SOL    HW265685   5.538   1.163   8.646  0.1542  1.1068  2.9465
20633SOL     OW65686   3.984   8.922   3.372 -0.4182 -0.5685 -0.2481
20633SOL    HW165687   4.075   8.953   3.365  0.0263 -1.7583  0.0180
20633SOL    HW265688   3.992   8.829   3.394 -1.6636 -1.2710 -2.4172
20634SOL     OW65689   6.822   6.567   0.964 -1.0981 -0.1370  0.6384
20634SOL    HW165690   6.830   6.523   0.880  1.9263  0.6967  0.3670
20634SOL    HW265691   6.791   6.655   0.942 -1.5567 -0.3172  0.5542
20635SOL     OW65692   0.449   2.587   3.956  0.1366  0.5002  0.1194
20635SOL    HW165693   0.480   2.506   3.917 -1.0086 -0.3069  0.8190
20635SOL    HW265694   0.365   2.564   3.997 -0.9402  2.3514 -0.8851
20636SOL     OW65695   9.007   7.201   4.880 -0.3554  0.0237  0.3523
20636SOL    HW165696   8.977   7.292   4.879  0.7642  0.4625  2.1159
20636SOL    HW265697   8.926   7.149   4.881 -1.0143  1.0316  0.6550
20637SOL     OW65698   8.385   7.228   0.390  0.4182  0.3792  0.4227
20637SOL    HW165699   8.301   7.212   0.347  0.4871 -0.1508  0.4720
20637SOL    HW265700   8.449   7.225   0.319  0.6397 -1.4204  0.6434
20638SOL     OW65701   8.608   3.214   2.329  0.1603 -0.2159  0.0141
20638SOL    HW165702   8.611   3.267   2.249  0.6702 -2.0164 -1.2271
20638SOL    HW265703   8.520   3.177   2.331 -0.7993  1.9715  1.8257
20639SOL     OW65704   1.813   3.375   1.823 -0.0748  0.4362  0.4843
20639SOL    HW165705   1.802   3.281   1.809 -1.0355  0.5177  0.6334
20639SOL    HW265706   1.856   3.406   1.743  0.9177 -0.2388  0.7412
20640SOL     OW65707   2.527   8.766   5.440  0.0931  0.2690 -0.1268
20640SOL    HW165708   2.597   8.716   5.399  1.0950  2.0568 -0.7490
20640SOL    HW265709   2.490   8.818   5.369 -1.5374 -0.2367  0.3031
20641SOL     OW65710   8.493   9.965   2.045 -1.0112 -0.1059 -0.2464
20641SOL    HW165711   8.526  10.053   2.026  3.0239 -1.5406 -0.9534
20641SOL    HW265712   8.504   9.917   1.963 -2.4118 -1.4814  0.3246
20642SOL     OW65713   9.151   4.412   8.755 -0.5574 -0.3433 -0.4688
20642SOL    HW165714   9.134   4.442   8.666  1.0966 -0.7781 -0.9524
20642SOL    HW265715   9.224   4.350   8.747 -0.7498 -0.8317  1.1175
20643SOL     OW65716   9.114   2.489   6.201  0.5983 -0.2146  0.6786
20643SOL    HW165717   9.175   2.416   6.207  1.4051  0.4453  0.6938
20643SOL    HW265718   9.158   2.552   6.144 -0.6033 -0.2336 -0.2966
20644SOL     OW65719   3.558   7.938   3.591 -0.3455 -0.3541 -0.1067
20644SOL    HW165720   3.653   7.936   3.578 -0.4782 -1.3061 -1.1490
20644SOL    HW265721   3.523   7.966   3.506 -1.0820 -2.3826 -0.5267
20645SOL     OW65722   7.933   0.401   7.378  0.3721 -0.2303  0.6387
20645SOL    HW165723   7.938   0.387   7.473  0.4905 -1.8067  0.4269
20645SOL    HW265724   8.022   0.385   7.347 -0.2037 -2.5494 -0.0352
20646SOL     OW65725   8.165   1.818   9.881  0.1196 -0.4401 -0.4795
20646SOL    HW165726   8.200   1.763   9.952 -3.4501 -0.9004  1.1401
20646SOL    HW265727   8.179   1.766   9.802 -1.4974 -2.9882  0.7746
20647SOL     OW65728   6.239   5.669   8.429 -0.1205 -0.3673 -0.4040
20647SOL    HW165729   6.186   5.604   8.383 -0.2761 -0.5379  0.0048
20647SOL    HW265730   6.226   5.648   8.522 -1.8426  1.5228 -0.1494
20648SOL     OW65731   5.749  10.330  10.309 -0.1823  0.2624  0.6477
20648SOL    HW165732   5.786  10.242  10.310  1.7204  0.9130 -1.3800
20648SOL    HW265733   5.732  10.347  10.216 -0.2956  2.1036  0.9694
20649SOL     OW65734   4.732   5.312   8.867  0.6293 -0.3111 -0.1147
20649SOL    HW165735   4.711   5.367   8.791  1.8829 -0.1837 -0.3923
20649SOL    HW265736   4.652   5.313   8.920 -0.4793 -0.8688 -1.6970
20650SOL     OW65737   5.062   0.676   3.931  0.0574  0.3110 -0.8034
20650SOL    HW165738   5.061   0.770   3.912 -0.4977  0.0871 -1.9872
20650SOL    HW265739   5.154   0.656   3.947  0.4086  0.7999 -2.0426
20651SOL     OW65740   2.481   7.315   9.827 -0.2174 -0.6029 -0.1602
20651SOL    HW165741   2.527   7.275   9.901 -0.5681 -0.3725  0.1894
20651SOL    HW265742   2.407   7.256   9.809  0.1824 -0.9498 -0.6923
20652SOL     OW65743   6.785   7.001   3.129 -0.1511 -0.1612 -0.1335
20652SOL    HW165744   6.744   7.080   3.163  1.1178  0.2450  0.5260
20652SOL    HW265745   6.734   6.929   3.166 -1.3493  0.3369 -0.7861
20653SOL     OW65746   6.423   0.578   8.672  0.0431  0.2056 -0.1448
20653SOL    HW165747   6.434   0.507   8.735  0.9025  0.3031 -0.1711
20653SOL    HW265748   6.400   0.654   8.725  1.9560  0.5829  0.2200
20654SOL     OW65749   1.900   3.192   0.850  0.0033  0.0043 -0.3375
20654SOL    HW165750   1.814   3.153   0.865  0.0176  0.8614  2.5815
20654SOL    HW265751   1.960   3.118   0.844 -0.6591 -0.5418 -0.2415
20655SOL     OW65752   3.661   1.248   8.343  0.7237  0.1993  0.3083
20655SOL    HW165753   3.663   1.341   8.322 -0.3936  0.5206  1.4587
20655SOL    HW265754   3.607   1.209   8.275  1.4826  0.3186 -0.3753
20656SOL     OW65755   7.028   0.364   9.580 -0.8097  0.0939  0.2245
20656SOL    HW165756   6.950   0.331   9.623 -0.2591 -1.4853  0.0485
20656SOL    HW265757   7.098   0.305   9.607  0.1324  0.8631 -0.4389
20657SOL     OW65758   2.954   2.183   3.768  0.0331  0.0367  0.4255
20657SOL    HW165759   2.974   2.107   3.821  2.2804 -0.3145 -0.8063
20657SOL    HW265760   2.980   2.258   3.821  0.2003 -0.1940  0.6663
20658SOL     OW65761   5.578   8.847   0.293  0.0570  0.1621 -0.2266
20658SOL    HW165762   5.491   8.870   0.261 -0.6934 -0.9660  0.8839
20658SOL    HW265763   5.596   8.762   0.252  1.0865  0.8201 -1.2084
20659SOL     OW65764   7.785   6.165   4.601  0.1195 -0.1430 -0.0029
20659SOL    HW165765   7.736   6.240   4.568 -1.1331 -0.7984  0.3229
20659SOL    HW265766   7.875   6.198   4.610 -0.2890  1.1517 -0.3797
20660SOL     OW65767   8.622   1.017   5.740 -0.2981 -0.2620  0.2703
20660SOL    HW165768   8.535   0.982   5.762 -0.2546  0.0799  1.0304
20660SOL    HW265769   8.653   1.056   5.822  0.5953 -0.4188  0.0157
20661SOL     OW65770   2.871   3.174   3.116 -0.3223  0.2706 -0.1759
20661SOL    HW165771   2.817   3.103   3.150 -0.1876  0.9064  1.4365
20661SOL    HW265772   2.935   3.130   3.059 -0.8592 -0.7769  0.0081
20662SOL     OW65773   3.545   2.130   4.338 -0.5410 -0.2998  0.6639
20662SOL    HW165774   3.581   2.126   4.250 -0.6253 -1.0450  0.6558
20662SOL    HW265775   3.615   2.166   4.392 -1.7311  4.2648 -0.3306
20663SOL     OW65776   6.358   8.507   9.378  0.3571  0.3965 -0.5589
20663SOL    HW165777   6.351   8.598   9.406  1.0971  0.5955 -1.0082
20663SOL    HW265778   6.354   8.510   9.282 -0.4653 -0.1311 -0.5633
20664SOL     OW65779   5.613   6.180   4.959 -0.1176  0.3650 -0.0134
20664SOL    HW165780   5.571   6.202   4.876 -0.7942  1.6505  0.6295
20664SOL    HW265781   5.569   6.099   4.987 -0.9984  0.7711 -0.1689
20665SOL     OW65782   1.600   9.586   2.098 -0.1109 -0.4810 -0.0496
20665SOL    HW165783   1.653   9.662   2.120  0.1354 -0.7067  0.1573
20665SOL    HW265784   1.607   9.529   2.175  0.7760 -1.2929 -0.7002
20666SOL     OW65785   4.577   8.358   4.953  0.3310  0.2411  0.0527
20666SOL    HW165786   4.499   8.414   4.953 -1.0666 -1.5009 -2.1818
20666SOL    HW265787   4.549   8.279   4.998  0.5300 -0.6776 -1.3696
20667SOL     OW65788   9.408   2.506   2.483  0.2188 -0.0576 -0.0479
20667SOL    HW165789   9.366   2.496   2.398  1.1090 -1.6800 -0.3232
20667SOL    HW265790   9.403   2.419   2.523  0.3439  0.5381  1.3138
20668SOL     OW65791   4.489   0.593   5.607 -0.3454  0.0925  0.2250
20668SOL    HW165792   4.579   0.607   5.577 -0.3198  0.4439  0.4654
20668SOL    HW265793   4.470   0.668   5.663 -0.1709 -0.8928  1.6399
20669SOL     OW65794   2.863   4.011   9.089  0.1411  0.0022 -0.3221
20669SOL    HW165795   2.882   4.007   8.995 -1.8836  0.0442 -0.7660
20669SOL    HW265796   2.949   4.020   9.130  1.1451 -0.9050 -2.1082
20670SOL     OW65797   3.207   4.902   2.974  0.3442  0.3375  0.1013
20670SOL    HW165798   3.199   4.904   3.070 -0.1460  1.3800  0.0496
20670SOL    HW265799   3.183   4.990   2.946 -0.8337 -0.3316 -1.0930
20671SOL     OW65800   6.632   4.391   0.932  0.1446 -0.2584 -0.0758
20671SOL    HW165801   6.699   4.400   0.999  1.0362  0.8741 -1.0650
20671SOL    HW265802   6.589   4.477   0.930 -0.8474 -0.7485  0.0482
20672SOL     OW65803   6.019   9.121   6.820  0.2679 -0.0430 -0.3759
20672SOL    HW165804   6.111   9.148   6.815 -0.1661  1.4462 -0.9432
20672SOL    HW265805   5.980   9.156   6.740 -0.8373 -0.4832 -0.0415
20673SOL     OW65806   4.481   0.805   6.373  0.1106  0.9204 -0.0510
20673SOL    HW165807   4.566   0.847   6.361  0.4492  1.1360  2.5598
20673SOL    HW265808   4.502   0.712   6.387 -0.1612  0.8324 -0.2147
20674SOL     OW65809   8.605   2.617   7.086  0.4094 -0.2796 -0.0116
20674SOL    HW165810   8.667   2.690   7.086 -0.6024  0.6829  1.8372
20674SOL    HW265811   8.658   2.540   7.106  1.2958  0.1804 -0.5318
20675SOL     OW65812   5.949   3.592   7.230 -0.2677  0.2669  0.0393
20675SOL    HW165813   5.973   3.626   7.144  2.4459 -1.6859 -0.0823
20675SOL    HW265814   5.868   3.543   7.214 -0.2652  0.6279 -1.2036
20676SOL     OW65815   1.108   4.273   8.429 -0.0662 -0.2278 -0.2846
20676SOL    HW165816   1.120   4.178   8.424 -0.8765 -0.2848 -2.8937
20676SOL    HW265817   1.014   4.286   8.431 -0.0806  0.4935 -2.5469
20677SOL     OW65818   0.188   7.107   8.838 -0.0367  0.7104  0.2696
20677SOL    HW165819   0.128   7.176   8.810 -0.6976 -0.0496 -0.2361
20677SOL    HW265820   0.136   7.026   8.833  1.0368  0.0227 -0.2628
20678SOL     OW65821   2.108   7.294   7.234  0.0972 -0.3757 -0.1704
20678SOL    HW165822   2.145   7.290   7.146 -0.6454 -0.1221 -0.5041
20678SOL    HW265823   2.183   7.314   7.290  0.5967 -0.6371 -0.7258
20679SOL     OW65824   2.846   2.915   0.051 -0.2688 -0.2115  0.5883
20679SOL    HW165825   2.785   2.963  -0.005  4.0308  2.1382 -2.6681
20679SOL    HW265826   2.843   2.961   0.135 -2.2948  0.2853  0.2991
20680SOL     OW65827   0.040   9.422   8.625 -0.6994  0.1137  0.0911
20680SOL    HW165828   0.035   9.446   8.532 -0.4775  1.5035  0.4136
20680SOL    HW265829  -0.051   9.419   8.653 -0.7284  1.2798  0.1863
20681SOL     OW65830   6.172   5.307   9.319 -0.3814  0.0257 -0.3235
20681SOL    HW165831   6.086   5.294   9.360 -0.4446 -1.0403 -0.7587
20681SOL    HW265832   6.234   5.266   9.378 -0.3576 -0.6015 -0.7716
20682SOL     OW65833   4.628   2.018   4.781 -0.5925  0.0943 -0.6604
20682SOL    HW165834   4.594   1.934   4.812  0.7962 -0.4588 -0.5799
20682SOL    HW265835   4.634   2.072   4.860 -2.5390  0.6828 -0.8708
20683SOL     OW65836   4.518   2.618   6.470  0.1205  0.6004 -0.5380
20683SOL    HW165837   4.454   2.589   6.405  0.8580 -0.6739 -0.7378
20683SOL    HW265838   4.558   2.696   6.432  0.2298  0.1248 -1.4207
20684SOL     OW65839   8.175   8.843   9.609  0.3882  0.2272 -0.7016
20684SOL    HW165840   8.250   8.788   9.633 -0.9387 -0.8640  1.2617
20684SOL    HW265841   8.168   8.907   9.680  0.2399  1.1612 -1.5430
20685SOL     OW65842   2.577   5.134   2.570  0.2017  0.7311  0.0453
20685SOL    HW165843   2.606   5.158   2.659 -1.9895  0.0139  1.0187
20685SOL    HW265844   2.548   5.043   2.578  0.0133  0.6517 -1.4219
20686SOL     OW65845   9.067   9.847   8.681 -0.4919  0.0510 -0.0814
20686SOL    HW165846   9.161   9.833   8.687 -0.7570 -1.7148  0.4487
20686SOL    HW265847   9.034   9.836   8.770 -1.2195  0.4319 -0.2907
20687SOL     OW65848   5.532   6.824   4.216  0.2423 -0.1515  0.0593
20687SOL    HW165849   5.604   6.801   4.157 -0.3787 -0.3363 -0.6520
20687SOL    HW265850   5.568   6.891   4.274  0.6156  0.7013 -1.1277
20688SOL     OW65851   9.951   0.328   4.596  0.4741 -0.1590  0.0272
20688SOL    HW165852   9.974   0.255   4.654  3.1494  1.7342  1.5700
20688SOL    HW265853   9.974   0.297   4.509  0.0997 -1.6734  0.4260
20689SOL     OW65854   7.858   8.218   9.030 -0.0978 -0.0059 -0.0197
20689SOL    HW165855   7.855   8.275   9.107 -1.1421 -0.1425  0.0634
20689SOL    HW265856   7.859   8.278   8.956 -0.5690  0.1353  0.0809
20690SOL     OW65857   5.394   5.785   4.587 -0.4924  0.2921  0.1487
20690SOL    HW165858   5.383   5.745   4.673 -1.2659  0.8509  0.3276
20690SOL    HW265859   5.381   5.714   4.525  1.0061 -0.3159  0.4923
20691SOL     OW65860   5.756   1.958   6.883  0.2632 -0.2877  0.6167
20691SOL    HW165861   5.721   1.869   6.888 -0.0754 -0.0841  3.3182
20691SOL    HW265862   5.693   2.012   6.930 -0.1950  1.6860 -2.0350
20692SOL     OW65863   5.991   3.582   4.561  0.3980  1.1454  0.0360
20692SOL    HW165864   5.954   3.506   4.517  0.9927  1.0310 -0.2716
20692SOL    HW265865   5.928   3.653   4.543 -1.0109  0.4001  1.6807
20693SOL     OW65866   8.886   4.465   2.686  0.4132  0.0695  0.0654
20693SOL    HW165867   8.856   4.389   2.636  0.6157  2.4574 -4.2696
20693SOL    HW265868   8.954   4.431   2.744 -1.9875 -3.4951  1.1475
20694SOL     OW65869   0.270   0.799   0.260  0.2269 -0.1576  0.0864
20694SOL    HW165870   0.211   0.852   0.207  1.9025  0.2155 -1.5391
20694SOL    HW265871   0.292   0.853   0.335  0.8485  0.9674 -0.8654
20695SOL     OW65872   5.089   8.083   4.446 -0.2995  0.2260  0.1418
20695SOL    HW165873   5.104   8.000   4.399  0.8127  0.4288  0.1161
20695SOL    HW265874   5.031   8.059   4.518 -0.7794 -0.3863 -0.4332
20696SOL     OW65875   3.653   6.173   8.563  0.3781  0.3903  0.0064
20696SOL    HW165876   3.729   6.221   8.597  0.6049 -0.0841  0.1862
20696SOL    HW265877   3.610   6.138   8.641  1.9301 -2.2600 -0.2017
20697SOL     OW65878   6.447   3.019  10.091 -0.2675 -0.3358 -0.1427
20697SOL    HW165879   6.537   2.994  10.112 -0.3849 -0.4626  0.2248
20697SOL    HW265880   6.425   2.969  10.013  0.7155  1.3036 -1.5419
20698SOL     OW65881   2.755   4.871   3.383  0.0736  0.3497 -0.0930
20698SOL    HW165882   2.740   4.913   3.298  0.6951  1.4804  0.3217
20698SOL    HW265883   2.740   4.778   3.368 -0.8988  0.6597 -1.1769
20699SOL     OW65884   3.704   7.378   1.887  0.0550 -0.7471  0.4113
20699SOL    HW165885   3.688   7.298   1.837  0.6118  0.0912 -1.1586
20699SOL    HW265886   3.784   7.359   1.937  0.5831 -0.9317 -0.4947
20700SOL     OW65887   2.166   3.497   0.776 -0.2612 -0.1343 -0.2623
20700SOL    HW165888   2.111   3.575   0.768 -2.5025 -1.5528  0.3575
20700SOL    HW265889   2.174   3.463   0.687 -1.4395 -0.5553 -0.2221
20701SOL     OW65890   3.096  10.012   6.537  0.8709 -0.1626 -0.4846
20701SOL    HW165891   3.049   9.976   6.612  0.1852 -0.5055 -1.0568
20701SOL    HW265892   3.177  10.048   6.573  0.1550  0.4748  0.5458
20702SOL     OW65893   5.286   0.022   8.287 -0.1583 -0.5252 -0.3833
20702SOL    HW165894   5.278   0.116   8.272  0.5416 -0.5126 -0.7337
20702SOL    HW265895   5.264   0.011   8.379  1.5524  0.2537  0.1646
20703SOL     OW65896   0.911   4.430   3.406 -0.7271 -0.1426 -0.1038
20703SOL    HW165897   0.956   4.411   3.488 -3.8618  0.5777  1.9903
20703SOL    HW265898   0.939   4.518   3.382 -0.4229 -0.0153  0.6989
20704SOL     OW65899   0.555   8.284   3.430 -0.1407 -0.5492  0.5267
20704SOL    HW165900   0.545   8.294   3.524  0.8021  0.7860  0.5079
20704SOL    HW265901   0.618   8.352   3.404 -0.2245 -1.0110 -1.0318
20705SOL     OW65902   2.164   7.727   6.569 -0.6163 -0.9735  0.5199
20705SOL    HW165903   2.155   7.792   6.638  0.3147 -0.0923 -0.1719
20705SOL    HW265904   2.085   7.738   6.515 -0.0506  0.2190 -0.1026
20706SOL     OW65905   2.525   9.856   5.156 -0.1217  0.7959  0.0975
20706SOL    HW165906   2.447   9.800   5.159  0.7666 -0.5126 -0.2093
20706SOL    HW265907   2.571   9.828   5.077  0.7603  1.4198  0.3776
20707SOL     OW65908   1.637   4.908   3.999 -0.1902 -0.2512 -0.2141
20707SOL    HW165909   1.625   4.887   3.906  0.6374 -0.8041 -0.2044
20707SOL    HW265910   1.580   4.847   4.045 -2.2758  1.4156 -0.4080
20708SOL     OW65911   1.410   5.325   5.633 -0.2473 -0.1793 -0.0188
20708SOL    HW165912   1.470   5.317   5.559  3.1926 -1.1223  2.6314
20708SOL    HW265913   1.369   5.239   5.640  2.1272 -1.3004  1.1750
20709SOL     OW65914   7.330   7.832   7.365 -0.1365  0.2627 -0.4849
20709SOL    HW165915   7.395   7.773   7.327 -0.2510  0.6269 -1.2462
20709SOL    HW265916   7.383   7.896   7.413  0.0011 -0.2491  0.0718
20710SOL     OW65917   9.294   3.622   1.658 -0.0649 -0.2778 -0.1684
20710SOL    HW165918   9.343   3.704   1.647 -1.5353  0.6884  0.1690
20710SOL    HW265919   9.275   3.618   1.752 -1.3167 -0.1848 -0.3980
20711SOL     OW65920   8.116   9.897   9.225  0.1335  0.2352 -0.5693
20711SOL    HW165921   8.153   9.964   9.168  1.1766  0.6832  0.5831
20711SOL    HW265922   8.150   9.919   9.312 -3.1262  0.9177  0.6997
20712SOL     OW65923   7.283   6.586   1.474 -0.0826 -0.0788 -0.2186
20712SOL    HW165924   7.376   6.606   1.486 -0.5230  1.6105  0.6926
20712SOL    HW265925   7.253   6.556   1.560 -0.4537 -0.3254 -0.4306
20713SOL     OW65926   6.415   1.676   5.173 -0.0785 -0.2632  0.0470
20713SOL    HW165927   6.413   1.770   5.156 -0.9981 -0.4739 -1.1957
20713SOL    HW265928   6.333   1.659   5.220  0.0410 -0.4669  0.1846
20714SOL     OW65929   2.363   9.293   5.774 -0.0560  0.1725  0.2976
20714SOL    HW165930   2.359   9.377   5.821 -0.4326 -0.3387  1.2095
20714SOL    HW265931   2.410   9.235   5.833 -0.4806 -0.4677  0.0164
20715SOL     OW65932   2.103   2.193   9.916  0.2429 -0.6246  0.2002
20715SOL    HW165933   2.028   2.201   9.859  0.3696 -0.1357  0.0988
20715SOL    HW265934   2.110   2.278   9.959  1.1351 -0.4346 -0.2952
20716SOL     OW65935   4.322   3.970   4.556  0.0247 -0.2882  0.0831
20716SOL    HW165936   4.299   3.878   4.567 -0.5143 -0.3229 -1.1400
20716SOL    HW265937   4.413   3.968   4.524 -0.5793 -0.5207 -1.7267
20717SOL     OW65938   7.600   2.373   0.288  0.2908  0.2160  0.7403
20717SOL    HW165939   7.549   2.309   0.336 -2.0435  0.5404 -1.0940
20717SOL    HW265940   7.559   2.457   0.309 -1.2283  0.3124 -2.0913
20718SOL     OW65941   5.470   9.719  10.101  0.0287  0.0320 -0.0687
20718SOL    HW165942   5.544   9.660  10.086 -0.2716 -0.4509  0.3418
20718SOL    HW265943   5.417   9.711  10.022  1.4892  2.0110 -1.3428
20719SOL     OW65944   7.724   0.414   0.801  0.2681 -0.2249 -0.4477
20719SOL    HW165945   7.701   0.369   0.720  0.6941  0.2404 -0.8373
20719SOL    HW265946   7.661   0.381   0.865 -1.2118  0.6897 -1.3599
20720SOL     OW65947   2.228   2.690   0.061 -0.2018  0.2076 -0.1001
20720SOL    HW165948   2.196   2.779   0.049 -0.1840  0.2107 -0.1256
20720SOL    HW265949   2.272   2.691   0.146 -1.3432 -0.1082  0.5155
20721SOL     OW65950   3.773   7.030   0.185  0.2215 -0.2024 -0.3340
20721SOL    HW165951   3.773   7.105   0.245 -0.9939 -0.8402  0.4981
20721SOL    HW265952   3.681   7.016   0.164  0.3717 -1.7895 -0.0645
20722SOL     OW65953   1.124   0.447   2.180  0.1974  0.1363  0.2102
20722SOL    HW165954   1.149   0.500   2.104  2.1774  2.1737  2.1046
20722SOL    HW265955   1.040   0.482   2.207 -0.5265 -0.6055 -0.9760
20723SOL     OW65956   4.680   1.008   9.196  0.0652  0.1855  0.2430
20723SOL    HW165957   4.595   0.995   9.238  0.2284  1.6567  1.0712
20723SOL    HW265958   4.662   0.993   9.103 -0.5119 -2.1126  0.6455
20724SOL     OW65959   6.051   5.788   5.085 -0.4710 -0.8026  0.0044
20724SOL    HW165960   6.131   5.837   5.100 -1.0134  0.3078 -0.6352
20724SOL    HW265961   5.980   5.849   5.107 -1.1534 -1.3577 -0.6013
20725SOL     OW65962   1.177   8.515   1.688 -0.3944  0.0774 -0.2492
20725SOL    HW165963   1.213   8.587   1.740 -0.3568  0.3348 -0.6264
20725SOL    HW265964   1.217   8.526   1.602 -1.2824  0.2891 -0.6414
20726SOL     OW65965   7.256   2.173   1.413 -0.6466  0.0378 -0.0754
20726SOL    HW165966   7.229   2.103   1.353 -0.3660 -0.0208 -0.1330
20726SOL    HW265967   7.243   2.254   1.363 -1.5591  0.0736  0.2043
20727SOL     OW65968   7.038   5.880   8.463 -0.0684 -0.2327  0.3546
20727SOL    HW165969   6.982   5.808   8.435 -1.0207  1.1143 -1.4322
20727SOL    HW265970   7.127   5.844   8.458 -0.5918 -1.6548  0.7757
20728SOL     OW65971   5.555   1.294   4.191 -0.3298 -0.0106 -0.1669
20728SOL    HW165972   5.471   1.248   4.194 -0.3156 -0.1691 -1.6812
20728SOL    HW265973   5.536   1.382   4.221 -1.0116 -0.0821 -0.3796
20729SOL     OW65974   7.482   3.441   6.816  0.4172 -0.2360  0.1745
20729SOL    HW165975   7.569   3.467   6.785 -0.7699  1.3082 -2.1474
20729SOL    HW265976   7.499   3.367   6.875  3.2264 -0.4435 -0.7349
20730SOL     OW65977   5.180   6.782  10.188 -0.1326 -0.1520  0.2158
20730SOL    HW165978   5.234   6.859  10.206 -1.5844  0.8773  0.3834
20730SOL    HW265979   5.153   6.750  10.274  0.7207 -1.0779  0.1634
20731SOL     OW65980   9.276   2.878   4.136  0.8053 -0.1170  0.4571
20731SOL    HW165981   9.302   2.802   4.084 -0.8117 -0.6029  0.3125
20731SOL    HW265982   9.238   2.842   4.216 -0.2126  0.5209  0.2802
20732SOL     OW65983   1.238   7.498   5.886 -0.5509  0.2418 -0.2313
20732SOL    HW165984   1.268   7.427   5.829 -2.5306 -2.5083  1.8875
20732SOL    HW265985   1.160   7.533   5.842 -1.8785 -1.6447  0.5158
20733SOL     OW65986   5.688   4.579   4.588 -0.7420  0.3717  0.6540
20733SOL    HW165987   5.663   4.496   4.628  0.2493 -0.2433  0.0443
20733SOL    HW265988   5.783   4.583   4.599 -0.8955  1.9932  1.7042
20734SOL     OW65989   8.248   3.584   8.743  0.7736 -0.2452 -0.4150
20734SOL    HW165990   8.241   3.657   8.804  0.2911 -1.6361  1.2855
20734SOL    HW265991   8.299   3.618   8.670  2.8004  1.0673  1.4800
20735SOL     OW65992   7.941   5.451   3.769  0.7158  0.0248 -0.6846
20735SOL    HW165993   8.011   5.513   3.791 -0.3149  0.1009  3.1743
20735SOL    HW265994   7.863   5.505   3.762  0.0039 -0.5816  1.6250
20736SOL     OW65995   3.617   3.327   7.493  0.2714  0.2050 -0.0595
20736SOL    HW165996   3.666   3.351   7.414  2.0131 -0.9425  0.6028
20736SOL    HW265997   3.627   3.402   7.551 -1.9690  1.5324 -1.2764
20737SOL     OW65998   5.720   1.109   4.813  0.0826  0.1418  0.8896
20737SOL    HW165999   5.753   1.094   4.902  2.6495 -1.0324 -0.1642
20737SOL    HW266000   5.749   1.197   4.791  2.4572 -0.7668  0.0888
20738SOL     OW66001   7.580   6.084   5.481 -0.0115 -0.7511 -0.0297
20738SOL    HW166002   7.578   6.095   5.576 -1.5034  0.7638 -0.1745
20738SOL    HW266003   7.598   6.172   5.447 -2.1860 -0.6538 -1.1500
20739SOL     OW66004   2.728   0.058   7.096 -0.0643  0.0164 -0.2527
20739SOL    HW166005   2.723  -0.037   7.087 -1.2725  0.0123  0.2443
20739SOL    HW266006   2.815   0.081   7.063  0.9386 -1.4489  1.1823
20740SOL     OW66007   7.292   7.512   8.598  0.0707 -0.4236  0.4768
20740SOL    HW166008   7.212   7.462   8.579 -0.0462  0.6942 -2.5620
20740SOL    HW266009   7.363   7.449   8.588 -0.2812 -0.8027  0.3521
20741SOL     OW66010   3.449   1.849   5.750 -0.3722  0.5623 -0.1281
20741SOL    HW166011   3.363   1.859   5.711 -1.3297  1.2153  2.0057
20741SOL    HW266012   3.454   1.757   5.776  0.3548  0.0712 -1.8593
20742SOL     OW66013   3.233   4.031   2.173  0.5735 -0.6497  0.1625
20742SOL    HW166014   3.169   4.095   2.141 -0.3128 -1.0268  1.1180
20742SOL    HW266015   3.191   3.946   2.156  0.8297 -0.8995  0.7796
20743SOL     OW66016   6.855   0.969   1.703  0.0112  0.2741  0.9012
20743SOL    HW166017   6.908   0.942   1.629  0.8484  1.5261  1.0187
20743SOL    HW266018   6.915   0.971   1.777  0.2171  3.0895  0.7612
20744SOL     OW66019   6.261   1.493   3.591 -0.3568 -0.0514 -0.3692
20744SOL    HW166020   6.224   1.507   3.678  0.3759  2.8742 -0.3955
20744SOL    HW266021   6.194   1.445   3.543 -2.0707  0.9102  0.9477
20745SOL     OW66022   2.134   6.330   1.765  0.1602  0.6020  0.3948
20745SOL    HW166023   2.066   6.397   1.774 -0.5548 -0.1903  0.9917
20745SOL    HW266024   2.154   6.328   1.671 -0.4588  1.0144  0.2509
20746SOL     OW66025   3.674   4.439   4.287 -0.0182 -0.5292  0.1996
20746SOL    HW166026   3.599   4.485   4.247  1.6566  0.9443 -1.4516
20746SOL    HW266027   3.726   4.509   4.325  2.0294 -1.1210 -1.3445
20747SOL     OW66028   4.842   6.186   9.393 -0.6992  0.8336 -0.2665
20747SOL    HW166029   4.837   6.243   9.470  0.4325 -2.4729  2.5341
20747SOL    HW266030   4.932   6.195   9.363 -0.1418 -0.3610  0.9820
20748SOL     OW66031   3.517   6.928  10.136 -0.1726 -0.4372 -0.0903
20748SOL    HW166032   3.524   6.833  10.135  0.3693 -0.3983 -1.2852
20748SOL    HW266033   3.443   6.947  10.079 -0.0548 -0.1277 -0.1398
20749SOL     OW66034   9.126   3.678   0.575  0.2032 -0.2023 -0.2909
20749SOL    HW166035   9.057   3.620   0.544 -0.4959  0.0573  0.7278
20749SOL    HW266036   9.092   3.714   0.657  1.1880  0.6031 -0.2191
20750SOL     OW66037   3.905   6.039   0.881  0.2216  0.2675 -1.1959
20750SOL    HW166038   3.929   5.957   0.838  0.3720 -0.5565  0.3809
20750SOL    HW266039   3.979   6.097   0.866  1.6187 -0.9940  0.4184
20751SOL     OW66040   7.335   9.346   9.496  0.0289  0.1931 -0.0345
20751SOL    HW166041   7.323   9.359   9.590  0.3486 -0.2329  0.0677
20751SOL    HW266042   7.250   9.312   9.466 -0.6870  2.0537 -0.2370
20752SOL     OW66043   1.699   8.965   5.641 -0.0111 -0.2565  0.1041
20752SOL    HW166044   1.713   9.033   5.706 -0.7848 -0.5253  0.5645
20752SOL    HW266045   1.767   8.900   5.658  0.0953 -0.0873  0.3248
20753SOL     OW66046   4.056   5.277   4.263 -0.0522  0.2595 -0.1213
20753SOL    HW166047   4.145   5.275   4.228  0.4158  0.0719  1.0395
20753SOL    HW266048   4.002   5.306   4.189  0.8189 -0.6176 -1.1342
20754SOL     OW66049   8.574   2.367   9.564 -0.0040  0.3345  0.5054
20754SOL    HW166050   8.668   2.356   9.556 -0.1693 -1.3759  0.5897
20754SOL    HW266051   8.551   2.323   9.646 -0.9236  0.4447  0.3225
20755SOL     OW66052   9.687   1.404   7.325 -0.1539 -0.4765  0.3824
20755SOL    HW166053   9.701   1.499   7.316  1.1994 -0.8788 -2.5863
20755SOL    HW266054   9.592   1.394   7.319 -0.2903  0.6499  0.3349
20756SOL     OW66055   3.974   4.744   7.878  0.3405 -0.6117  0.4328
20756SOL    HW166056   3.880   4.764   7.881 -0.1789 -2.8559  1.0145
20756SOL    HW266057   4.004   4.785   7.796 -0.9947  0.6220  0.5154
20757SOL     OW66058   5.541   4.143  10.123 -0.3150 -0.2421 -0.2069
20757SOL    HW166059   5.468   4.195  10.088 -1.0760  0.0532  1.7116
20757SOL    HW266060   5.614   4.204  10.127 -0.3173 -0.1834 -0.8882
20758SOL     OW66061   4.183   7.114   0.637  0.5135  0.5176  0.2909
20758SOL    HW166062   4.234   7.141   0.561 -1.2565 -3.2050 -2.5217
20758SOL    HW266063   4.093   7.140   0.616 -0.0800 -1.0039  0.8091
20759SOL     OW66064   8.381   5.333   1.107 -0.0645  0.1261 -0.0869
20759SOL    HW166065   8.472   5.343   1.078  0.3210  0.3863  1.1536
20759SOL    HW266066   8.339   5.415   1.083  0.2335  0.3192  0.0418
20760SOL     OW66067   2.814   5.958   5.172 -0.4971 -0.3253  0.1901
20760SOL    HW166068   2.867   6.020   5.122 -0.3941 -0.1570  0.5079
20760SOL    HW266069   2.872   5.883   5.186 -0.8770 -0.8587 -0.9004
20761SOL     OW66070   8.703   9.599   6.383 -0.8891 -0.3546  0.4813
20761SOL    HW166071   8.751   9.542   6.443  0.9806  0.3937 -0.2351
20761SOL    HW266072   8.651   9.656   6.440 -0.4315 -0.7572  1.3211
20762SOL     OW66073   7.422   7.369   9.205  0.1309  0.0989  0.1245
20762SOL    HW166074   7.397   7.290   9.255  2.0148 -0.0058  0.9806
20762SOL    HW266075   7.448   7.432   9.272 -0.5892  1.2063 -0.6014
20763SOL     OW66076   0.727   9.657   4.530  0.0936 -0.2787 -0.1317
20763SOL    HW166077   0.647   9.615   4.561 -0.1650 -0.4443 -0.9887
20763SOL    HW266078   0.703   9.695   4.445  0.4096  1.3429  0.4587
20764SOL     OW66079   3.434   7.887   3.863 -0.4145 -0.2734  0.3739
20764SOL    HW166080   3.518   7.862   3.823 -1.6198 -1.2450 -1.7072
20764SOL    HW266081   3.409   7.810   3.915 -0.9277 -0.8018 -0.6214
20765SOL     OW66082   7.445   0.473   6.415  0.1133  0.1859  0.2280
20765SOL    HW166083   7.373   0.451   6.474  1.1460 -1.6564  0.9027
20765SOL    HW266084   7.403   0.517   6.341 -1.6748 -0.7305  0.6405
20766SOL     OW66085   3.274   0.390   8.925 -0.1533 -0.7250 -0.1417
20766SOL    HW166086   3.369   0.382   8.913 -0.3968 -2.2208 -1.4157
20766SOL    HW266087   3.237   0.320   8.871 -2.0821  1.2441 -1.5416
20767SOL     OW66088   1.427   7.788   1.344  0.8526  0.3425  0.3284
20767SOL    HW166089   1.353   7.729   1.358  0.5196  0.8490  0.7506
20767SOL    HW266090   1.484   7.741   1.284  0.8902 -0.6733  1.1297
20768SOL     OW66091   5.956   0.989   1.638  0.3514 -0.0323  0.0905
20768SOL    HW166092   5.990   1.074   1.611  0.5721 -1.0227 -3.1033
20768SOL    HW266093   5.971   0.931   1.563 -0.7550 -2.6499  1.7281
20769SOL     OW66094   3.451   5.534   9.052 -0.2399  0.2619  0.3699
20769SOL    HW166095   3.362   5.563   9.030  0.0347  0.6760 -0.2328
20769SOL    HW266096   3.492   5.612   9.092  0.6329  0.8888 -1.6168
20770SOL     OW66097   0.255   9.986   2.675 -0.1943 -0.2913 -0.3200
20770SOL    HW166098   0.207  10.066   2.694  1.8353  0.9228 -0.1135
20770SOL    HW266099   0.201   9.916   2.713  0.1367  1.3346  3.5871
20771SOL     OW66100   1.537   5.841   2.070 -0.6779  0.0808 -0.1202
20771SOL    HW166101   1.579   5.854   1.985 -2.1629 -0.0309 -0.8976
20771SOL    HW266102   1.546   5.925   2.115  0.5675 -0.0126 -0.1559
20772SOL     OW66103   4.785   3.675   3.666  0.4366  0.3023  0.1976
20772SOL    HW166104   4.839   3.680   3.745  0.7548  0.8842 -0.0512
20772SOL    HW266105   4.847   3.679   3.594  0.0517  1.4013 -0.0964
20773SOL     OW66106   9.935   5.833   0.976  0.2373 -0.4533 -0.2225
20773SOL    HW166107  10.008   5.892   0.953  1.7773 -2.2528 -0.1604
20773SOL    HW266108   9.914   5.788   0.894  0.4467 -1.2620  0.1611
20774SOL     OW66109   3.717   1.230   9.095  0.3652  0.7106 -0.0429
20774SOL    HW166110   3.662   1.191   9.027  1.0619 -0.9551  0.3066
20774SOL    HW266111   3.765   1.156   9.132 -0.8182  1.3447  3.0673
20775SOL     OW66112   1.466   4.266   8.867  0.0289  0.3202  0.2672
20775SOL    HW166113   1.408   4.332   8.831  0.5959 -0.1943 -1.6969
20775SOL    HW266114   1.423   4.238   8.948 -2.3971  0.0694 -1.0222
20776SOL     OW66115   7.183   9.744   0.656  0.1673 -0.2136 -0.0844
20776SOL    HW166116   7.208   9.652   0.666 -0.3175 -0.5899 -1.8557
20776SOL    HW266117   7.095   9.740   0.617 -0.2633  1.0223  0.7063
20777SOL     OW66118   2.167   1.534   2.482  0.4417 -0.0930 -0.1018
20777SOL    HW166119   2.238   1.515   2.422  1.7281 -0.6406  1.5039
20777SOL    HW266120   2.129   1.448   2.502  0.8724 -0.0738  0.8396
20778SOL     OW66121   5.768   4.005   0.058 -0.2596 -0.5421  0.2190
20778SOL    HW166122   5.766   4.013  -0.037 -0.8721 -2.1358  0.0659
20778SOL    HW266123   5.677   4.012   0.085 -0.2549 -1.5547  0.5307
20779SOL     OW66124   9.376   0.104   3.804  0.3042  0.2147 -0.6049
20779SOL    HW166125   9.326   0.025   3.823 -0.6573  0.7212 -0.9744
20779SOL    HW266126   9.414   0.129   3.889 -1.6001  0.8505  0.1111
20780SOL     OW66127   4.355   9.913   0.629 -0.0281 -0.0801 -0.5101
20780SOL    HW166128   4.369   9.961   0.548 -1.0969  0.5193 -0.3520
20780SOL    HW266129   4.398   9.829   0.615  2.4514  1.0867 -0.5723
20781SOL     OW66130   1.770   6.369   0.574 -0.0603 -0.2912 -0.3773
20781SOL    HW166131   1.747   6.385   0.483 -1.8651 -0.9626 -0.0978
20781SOL    HW266132   1.775   6.456   0.613 -0.8153 -0.0478 -0.8007
20782SOL     OW66133  10.206   9.098   6.006 -0.2357 -0.3337 -0.1309
20782SOL    HW166134  10.243   9.167   6.061  0.4370  0.4559 -1.5283
20782SOL    HW266135  10.279   9.039   5.989 -0.6425 -1.0251  0.4899
20783SOL     OW66136   8.494   3.435   7.851  0.2260 -0.1293 -0.1932
20783SOL    HW166137   8.569   3.381   7.826 -0.5117 -0.2629 -2.3100
20783SOL    HW266138   8.519   3.473   7.936  2.1825 -1.0621 -0.2925
20784SOL     OW66139   9.504   0.281   7.137  0.2380 -0.2316  0.2059
20784SOL    HW166140   9.533   0.372   7.146  2.3099 -0.8526  0.4198
20784SOL    HW266141   9.502   0.265   7.043 -3.2596  0.8865 -0.0356
20785SOL     OW66142  10.336   2.051   7.751  0.1285 -0.0295 -0.2570
20785SOL    HW166143  10.425   2.017   7.746  0.2497 -0.2221  2.1474
20785SOL    HW266144  10.334   2.122   7.687  1.6360 -0.7689 -1.1872
20786SOL     OW66145   2.752   8.689   8.190  0.0210 -0.0875  0.2488
20786SOL    HW166146   2.814   8.683   8.263  1.5700  0.3205 -0.9565
20786SOL    HW266147   2.771   8.612   8.137  2.4117  1.9264 -2.1976
20787SOL     OW66148   7.810   9.808   6.895 -0.3173 -0.0117 -0.1298
20787SOL    HW166149   7.834   9.860   6.972 -0.3513  0.6145 -0.5357
20787SOL    HW266150   7.726   9.844   6.867  0.3970  0.8057 -1.3565
20788SOL     OW66151   2.537   6.175   7.621 -0.4196  0.0400  0.2238
20788SOL    HW166152   2.464   6.121   7.591 -1.8536  1.9803 -0.0153
20788SOL    HW266153   2.565   6.134   7.703 -0.9899 -1.4051 -0.2722
20789SOL     OW66154   1.779   1.426   2.969  0.0142  0.3430  0.1897
20789SOL    HW166155   1.853   1.436   2.909  1.1958 -1.1170  1.3229
20789SOL    HW266156   1.813   1.372   3.040 -2.2326 -0.5980  0.6287
20790SOL     OW66157   1.754   8.001   1.408 -0.0327  0.0521 -0.5683
20790SOL    HW166158   1.742   7.985   1.314 -0.0454  1.6774 -0.8709
20790SOL    HW266159   1.683   7.952   1.450 -0.4231 -0.1599 -1.4512
20791SOL     OW66160   9.595   1.181   5.308 -0.3887  0.2310  0.2868
20791SOL    HW166161   9.591   1.105   5.366  2.1504 -0.2884 -0.1348
20791SOL    HW266162   9.531   1.242   5.345 -0.1638 -0.7991  2.5455
20792SOL     OW66163   1.212   5.481   2.951  0.0790 -0.5265  0.0114
20792SOL    HW166164   1.139   5.505   3.008  0.7047 -1.8461  1.4429
20792SOL    HW266165   1.175   5.482   2.863 -1.0349  1.1162  0.4605
20793SOL     OW66166   4.350   2.356   8.444 -0.1853 -0.4971 -0.4934
20793SOL    HW166167   4.386   2.350   8.532 -0.8422 -2.2775 -0.3245
20793SOL    HW266168   4.397   2.289   8.394 -1.2959 -0.9461 -0.9564
20794SOL     OW66169   2.131   9.046   8.544  0.1268 -0.3597  0.1057
20794SOL    HW166170   2.175   9.013   8.466  1.9141  0.6703  0.6209
20794SOL    HW266171   2.100   9.134   8.520  0.2873 -0.2159  0.4120
20795SOL     OW66172   4.773   7.456   2.341  0.4494 -0.6428  0.3315
20795SOL    HW166173   4.778   7.369   2.301 -1.6430 -0.3064 -0.8331
20795SOL    HW266174   4.770   7.439   2.435  0.2184 -1.8255  0.1286
20796SOL     OW66175   2.738   1.023   0.853  0.3407 -0.0128  0.5531
20796SOL    HW166176   2.686   0.952   0.891  0.3695  0.5274  1.6566
20796SOL    HW266177   2.821   0.982   0.827 -0.3955 -0.7650 -0.7019
20797SOL     OW66178   5.500   5.179   4.776  0.5054  0.0179  0.1916
20797SOL    HW166179   5.471   5.103   4.726 -2.0031  1.0412 -0.0761
20797SOL    HW266180   5.505   5.249   4.712 -3.2728  1.4873  1.2469
20798SOL     OW66181   8.389   5.216   5.815 -0.2440 -0.1643 -0.1656
20798SOL    HW166182   8.475   5.254   5.835 -1.1209  1.0537  1.6487
20798SOL    HW266183   8.327   5.275   5.858 -1.8763 -2.0772  0.2567
20799SOL     OW66184   1.491   1.347  10.216  0.1329 -0.3152 -0.1667
20799SOL    HW166185   1.534   1.430  10.197  1.4290 -0.6498  1.1554
20799SOL    HW266186   1.561   1.283  10.216 -0.3608 -0.9236  1.7856
20800SOL     OW66187   9.310   2.178   5.685 -0.0659  0.4660 -0.1175
20800SOL    HW166188   9.306   2.191   5.780 -0.5293  0.4896 -0.1369
20800SOL    HW266189   9.239   2.233   5.651  0.6757  1.1791 -0.5537
20801SOL     OW66190   6.353   7.039   0.262 -0.1268 -0.3555 -0.3881
20801SOL    HW166191   6.439   7.000   0.275  0.3040  0.1265 -1.6563
20801SOL    HW266192   6.335   7.084   0.345  1.2639  0.3279 -0.4195
20802SOL     OW66193   3.017   8.781   9.501  0.0716  0.6266  0.9091
20802SOL    HW166194   2.947   8.749   9.558  0.9043  0.0217  1.6338
20802SOL    HW266195   3.025   8.873   9.523 -0.6105  0.7441  0.6893
20803SOL     OW66196   0.552   4.010   6.937 -0.6501  0.1301 -0.4314
20803SOL    HW166197   0.598   3.930   6.963 -0.8230 -0.1225 -0.8952
20803SOL    HW266198   0.595   4.037   6.856 -1.1517  0.0335 -0.7320
20804SOL     OW66199   1.896   3.082   7.236  0.3258 -0.3313  0.1861
20804SOL    HW166200   1.951   3.027   7.292  1.6430  2.2401  1.6390
20804SOL    HW266201   1.807   3.070   7.270  0.0445 -3.5536 -1.3465
20805SOL     OW66202   6.114   9.190   2.598  0.1437  0.2537  0.6369
20805SOL    HW166203   6.101   9.096   2.586  0.5850  0.1377  1.0266
20805SOL    HW266204   6.026   9.226   2.605 -0.0212 -0.1631  0.7217
20806SOL     OW66205   9.773   7.369   8.206 -0.0846 -0.1874  0.0889
20806SOL    HW166206   9.865   7.382   8.184 -0.0073 -0.6436  0.1301
20806SOL    HW266207   9.744   7.298   8.149  0.1759 -1.5256  1.5225
20807SOL     OW66208   8.955   0.033   6.149  0.3971  0.4822  0.2995
20807SOL    HW166209   9.046   0.017   6.173  0.1781 -0.4179  0.5500
20807SOL    HW266210   8.904  -0.003   6.222 -0.2136 -0.6970 -0.6754
20808SOL     OW66211   4.535   4.973   8.175 -0.2392  0.2704 -0.2643
20808SOL    HW166212   4.564   4.947   8.262 -0.0551  2.0743  0.2560
20808SOL    HW266213   4.581   4.914   8.116 -0.6475 -1.2262  0.8598
20809SOL     OW66214   4.861   8.429   0.586  0.0756  0.1370 -0.7277
20809SOL    HW166215   4.902   8.383   0.513  2.2958  0.0628  0.4795
20809SOL    HW266216   4.932   8.445   0.648 -1.7781 -0.1943  1.6397
20810SOL     OW66217   8.843   7.458   3.888  0.0725 -0.3913 -0.0848
20810SOL    HW166218   8.825   7.545   3.852 -0.3759 -0.4479  0.0008
20810SOL    HW266219   8.902   7.474   3.961  1.3974 -0.3155 -1.1301
20811SOL     OW66220   9.789   2.733   3.537 -0.0575 -0.5352  0.0097
20811SOL    HW166221   9.756   2.652   3.576 -2.6929  1.3118  1.9677
20811SOL    HW266222   9.856   2.764   3.598  0.4748 -0.8692 -0.3937
20812SOL     OW66223   7.700   3.730   3.803 -0.1454  0.5975 -0.4012
20812SOL    HW166224   7.675   3.803   3.746  1.1817  0.1780 -1.5696
20812SOL    HW266225   7.795   3.723   3.793 -0.0701 -0.3834  0.8026
20813SOL     OW66226   7.970   9.954   5.873  0.6338 -0.0668  0.2186
20813SOL    HW166227   7.990   9.883   5.812  2.3508  0.6699 -0.1459
20813SOL    HW266228   7.941  10.026   5.816  1.4191  0.3497  0.3394
20814SOL     OW66229   9.554   5.716   4.380  0.2456 -0.2523  0.7499
20814SOL    HW166230   9.471   5.685   4.418  0.6299 -0.8649  1.1133
20814SOL    HW266231   9.582   5.787   4.438 -2.6157  3.7196 -2.2234
20815SOL     OW66232   9.630   2.665   5.295 -0.1384 -0.2833 -0.5995
20815SOL    HW166233   9.555   2.605   5.291 -0.1047 -0.2751 -2.8710
20815SOL    HW266234   9.701   2.617   5.252  0.8162  0.2148  0.3655
20816SOL     OW66235   9.040   8.649   5.394 -0.1190  0.2789 -0.4763
20816SOL    HW166236   9.021   8.684   5.481  0.5923  0.5543 -0.4221
20816SOL    HW266237   9.017   8.719   5.334  0.4534  0.5117 -0.4290
20817SOL     OW66238   5.914   5.237   3.260  0.2417  0.1617  0.1910
20817SOL    HW166239   5.852   5.175   3.221 -1.1524  1.8717 -0.4137
20817SOL    HW266240   5.975   5.257   3.189  0.6973 -0.5092  0.3885
20818SOL     OW66241   7.554   6.074   3.013  0.0411 -0.4536  0.3039
20818SOL    HW166242   7.605   6.129   2.953 -0.7868 -0.3146 -0.2897
20818SOL    HW266243   7.604   5.993   3.018  1.3300  0.3610  1.2623
20819SOL     OW66244   2.140   1.591   1.352  0.3399  0.2673  0.0233
20819SOL    HW166245   2.090   1.548   1.283 -0.5039  0.9587  0.1831
20819SOL    HW266246   2.077   1.602   1.423  0.4596  1.9228 -0.0850
20820SOL     OW66247   7.196   7.179   3.382  0.9251 -0.3856  0.8234
20820SOL    HW166248   7.184   7.171   3.476  2.6401 -2.2885  0.9484
20820SOL    HW266249   7.289   7.197   3.370  1.1872 -2.2744 -0.5324
20821SOL     OW66250   3.835   8.683   8.212  0.0244  0.0392  0.0570
20821SOL    HW166251   3.879   8.712   8.292 -0.7689  0.5758  0.3053
20821SOL    HW266252   3.775   8.754   8.190  1.3097  0.6417 -1.8811
20822SOL     OW66253   4.666   1.324   3.305 -0.0741  0.0326 -0.2808
20822SOL    HW166254   4.728   1.308   3.234  0.6225  0.0846  0.2982
20822SOL    HW266255   4.580   1.305   3.267  0.0330  2.2187 -1.8289
20823SOL     OW66256   9.979   6.660   2.118  0.1717 -0.1941 -0.1898
20823SOL    HW166257  10.040   6.668   2.191 -0.5296  0.4630  0.3397
20823SOL    HW266258  10.009   6.582   2.070 -0.2662 -1.5376  1.6344
20824SOL     OW66259   5.983   6.941   9.619  0.2716 -0.2884 -0.3960
20824SOL    HW166260   6.019   7.030   9.619 -0.3300 -0.0421 -0.0712
20824SOL    HW266261   6.028   6.898   9.546  1.0246  0.0899 -0.1696
20825SOL     OW66262   3.984   2.581   6.326  0.1632  0.3986 -0.5305
20825SOL    HW166263   4.020   2.514   6.383  0.0401 -0.5723 -1.5497
20825SOL    HW266264   3.929   2.533   6.264 -0.7195  1.5524 -0.6752
20826SOL     OW66265   1.340   5.673   8.116  0.3172  0.7181 -0.2689
20826SOL    HW166266   1.370   5.754   8.075  0.6502 -0.4492 -2.4931
20826SOL    HW266267   1.245   5.673   8.102  0.3411  0.6525 -0.4378
20827SOL     OW66268   3.213   1.952   1.329 -0.0958  0.0639  0.1741
20827SOL    HW166269   3.135   1.974   1.278 -1.0483 -0.4267  1.3641
20827SOL    HW266270   3.200   1.997   1.412  2.0577  1.9501 -0.4024
20828SOL     OW66271   8.871   8.875   1.021 -0.2332  0.0128 -0.0031
20828SOL    HW166272   8.934   8.804   1.005  1.2046  0.9705  1.1067
20828SOL    HW266273   8.919   8.938   1.076 -1.8546  1.2706  0.0602
20829SOL     OW66274   7.429   4.340   3.859  0.2058 -0.0985  0.6168
20829SOL    HW166275   7.407   4.286   3.935 -0.1698  1.5175  1.6936
20829SOL    HW266276   7.465   4.420   3.896 -0.6880  1.0366 -0.8755
20830SOL     OW66277   5.214   2.570  10.214 -0.3082  0.0678 -0.0271
20830SOL    HW166278   5.127   2.552  10.179  0.1584  0.4491 -1.4696
20830SOL    HW266279   5.227   2.664  10.199 -0.6355  0.5812  2.5425
20831SOL     OW66280   7.301   9.981   3.873 -0.2604  0.5235 -0.5801
20831SOL    HW166281   7.313   9.992   3.967 -0.3755 -2.5214 -0.0989
20831SOL    HW266282   7.375  10.028   3.834  2.1913 -1.4904  1.2909
20832SOL     OW66283   5.901   4.735   6.989  0.0467 -0.7039  0.0632
20832SOL    HW166284   5.837   4.780   7.044  1.3478 -0.7073  1.6675
20832SOL    HW266285   5.849   4.693   6.920 -1.5700 -0.0277  0.8223
20833SOL     OW66286   8.068   1.468   7.111  0.3977  0.0096  0.4846
20833SOL    HW166287   8.026   1.383   7.095 -0.3746  0.2014  1.4398
20833SOL    HW266288   8.036   1.495   7.197  0.7054  1.2351  0.2281
20834SOL     OW66289   5.758   3.424   1.084 -0.3569  0.5264 -0.3723
20834SOL    HW166290   5.762   3.352   1.148 -1.3932  0.0946 -0.7665
20834SOL    HW266291   5.800   3.498   1.128 -0.5612  0.0821  0.5910
20835SOL     OW66292   5.849   3.880   3.915  0.3171  0.1269  0.2097
20835SOL    HW166293   5.932   3.916   3.944 -0.8982  2.2632  1.3045
20835SOL    HW266294   5.847   3.791   3.951  1.0854  0.9012  2.3185
20836SOL     OW66295   9.537   5.805   9.109 -0.3218 -0.5155 -0.0868
20836SOL    HW166296   9.591   5.772   9.037 -1.5355 -0.0803 -1.2435
20836SOL    HW266297   9.474   5.734   9.125 -0.7256 -0.1790 -0.1829
20837SOL     OW66298   8.116  10.276   1.820  0.3794 -0.2314 -0.2019
20837SOL    HW166299   8.025  10.256   1.799 -0.2238  2.4516 -0.4832
20837SOL    HW266300   8.139  10.349   1.762  1.1102  2.3253  2.9956
20838SOL     OW66301   4.323   8.545   3.603 -0.1741  0.2198  0.1231
20838SOL    HW166302   4.373   8.556   3.684 -2.8331  1.5844  1.7417
20838SOL    HW266303   4.288   8.456   3.608  0.8027 -0.1954 -0.2561
20839SOL     OW66304   0.588   2.929   0.869  0.3713 -0.3238  0.1327
20839SOL    HW166305   0.569   2.969   0.954  3.3463  1.2045  0.1776
20839SOL    HW266306   0.560   2.995   0.805  0.5781 -0.3517  0.0144
20840SOL     OW66307   5.019   9.615   6.419 -0.3113 -0.1926 -0.3891
20840SOL    HW166308   4.993   9.703   6.444 -0.3027  0.0985 -1.3978
20840SOL    HW266309   5.095   9.627   6.362  0.1345 -0.8917  0.0275
20841SOL     OW66310   8.732   6.918   6.099 -0.3119 -0.4184 -0.0099
20841SOL    HW166311   8.668   6.863   6.145  1.0179 -1.7858  0.2804
20841SOL    HW266312   8.786   6.856   6.051  1.0269  0.6761  0.0342
20842SOL     OW66313   4.710   1.644   6.691 -0.1793  0.0528  0.0496
20842SOL    HW166314   4.704   1.725   6.742  1.6326  0.0596  0.2954
20842SOL    HW266315   4.707   1.574   6.757 -0.0805 -0.0242 -0.0281
20843SOL     OW66316   7.065   4.814   3.766  0.1759  0.2356  0.1763
20843SOL    HW166317   7.049   4.873   3.839  0.1559 -0.6100  0.8598
20843SOL    HW266318   7.097   4.733   3.805 -1.3112 -0.7886 -0.6003
20844SOL     OW66319   3.343   7.651   4.008  0.2507 -0.7294  0.3748
20844SOL    HW166320   3.410   7.598   4.051 -0.4743 -2.7079 -0.7998
20844SOL    HW266321   3.267   7.594   4.003 -0.6382  0.4886 -0.7901
20845SOL     OW66322   3.353   3.124   4.119 -0.3000 -0.0114 -0.2873
20845SOL    HW166323   3.259   3.117   4.104 -0.5477  2.3962 -0.2461
20845SOL    HW266324   3.386   3.034   4.111 -2.6736 -1.0057  0.3267
20846SOL     OW66325   9.291   5.873   6.403  0.6121 -0.1679 -0.0070
20846SOL    HW166326   9.282   5.946   6.464 -0.9435 -1.2187  1.1171
20846SOL    HW266327   9.341   5.908   6.330  1.0918  1.6142  1.1207
20847SOL     OW66328   8.627   7.936   7.890 -0.3150  0.3302  0.2846
20847SOL    HW166329   8.717   7.967   7.895  0.1796 -0.7116 -1.2403
20847SOL    HW266330   8.609   7.931   7.796 -0.7865 -2.6356  0.4299
20848SOL     OW66331  10.274   9.926   1.344  0.0779 -0.4250 -0.2502
20848SOL    HW166332  10.196   9.981   1.336  0.3481  0.1744  1.0445
20848SOL    HW266333  10.347   9.986   1.327  0.3327 -0.5799  0.2777
20849SOL     OW66334   4.968   3.022   1.992  0.6656  0.0604 -0.1883
20849SOL    HW166335   4.952   3.114   2.012  1.6916  0.4688 -1.1371
20849SOL    HW266336   5.037   3.023   1.926 -2.0490 -1.2205 -3.3294
20850SOL     OW66337   1.523   1.953   2.700  0.2866  0.3657 -0.3851
20850SOL    HW166338   1.603   2.002   2.714 -0.4011  1.0522  1.3393
20850SOL    HW266339   1.515   1.948   2.605  2.0433  0.7966 -0.5902
20851SOL     OW66340   8.010   8.032   5.433  0.2823  0.4305 -0.1135
20851SOL    HW166341   8.091   8.008   5.389 -0.3921  0.5856 -1.5043
20851SOL    HW266342   8.037   8.090   5.503  1.3846  0.3803 -0.4806
20852SOL     OW66343   8.825   1.702   4.118  0.2935  0.2537 -0.4138
20852SOL    HW166344   8.898   1.746   4.161  0.2837 -1.5824  1.6676
20852SOL    HW266345   8.787   1.769   4.061  4.0894  1.0470 -2.3537
20853SOL     OW66346   0.782   7.949   9.929  0.7920  0.7071 -0.0127
20853SOL    HW166347   0.747   8.032   9.960 -0.2921  0.8227 -1.4664
20853SOL    HW266348   0.877   7.960   9.934  0.6626  2.0033 -0.1113
20854SOL     OW66349   6.828   7.348  10.028  0.0075 -0.0931  0.1255
20854SOL    HW166350   6.844   7.443  10.025 -2.0961  0.3441 -3.2657
20854SOL    HW266351   6.915   7.309  10.025  0.8987  1.7858 -0.3192
20855SOL     OW66352   9.847   1.667   1.388  0.4873 -0.6974 -0.3273
20855SOL    HW166353   9.809   1.734   1.330  0.1333 -3.2720 -3.3576
20855SOL    HW266354   9.941   1.671   1.371  1.0286  1.5117  2.4947
20856SOL     OW66355   2.717   0.556   7.588  0.1467 -0.2623 -0.0459
20856SOL    HW166356   2.634   0.522   7.556 -0.1644 -0.2815  0.7660
20856SOL    HW266357   2.693   0.618   7.657  0.8180 -0.8145  0.7015
20857SOL     OW66358   8.709   8.178   4.692 -0.2291  0.2436 -0.1184
20857SOL    HW166359   8.648   8.252   4.684 -1.0593 -0.2547  1.2591
20857SOL    HW266360   8.779   8.211   4.748 -0.7488 -0.0861  0.7405
20858SOL     OW66361   1.453   1.279   7.607 -0.3198 -0.1624  0.3580
20858SOL    HW166362   1.401   1.219   7.660 -1.2033  0.5429  0.3085
20858SOL    HW266363   1.538   1.235   7.599 -0.2432 -0.4349  2.0946
20859SOL     OW66364   6.992   3.733   4.747 -0.7634 -0.8995 -0.1354
20859SOL    HW166365   6.920   3.671   4.747 -0.8066 -0.8535  0.2786
20859SOL    HW266366   6.963   3.803   4.806 -0.8290 -0.3530 -0.7996
20860SOL     OW66367   9.114   3.544   1.000 -0.3369  0.3320 -0.5579
20860SOL    HW166368   9.024   3.562   0.975  0.0445  0.2500 -2.0909
20860SOL    HW266369   9.115   3.550   1.095 -1.7710  1.1728 -0.5800
20861SOL     OW66370   4.673   5.960   5.441 -0.3326 -0.0300 -0.4153
20861SOL    HW166371   4.731   5.895   5.480 -2.0487 -1.6552 -0.4414
20861SOL    HW266372   4.624   5.996   5.516 -1.2069 -0.6660 -0.6689
20862SOL     OW66373   2.512   4.317   3.169  0.0161 -0.0760 -0.3596
20862SOL    HW166374   2.607   4.313   3.182  0.1024  1.3620 -0.4067
20862SOL    HW266375   2.476   4.259   3.236  0.9020 -0.0808  0.1255
20863SOL     OW66376   9.790   9.323   4.633 -0.1335 -0.5443  0.4943
20863SOL    HW166377   9.877   9.361   4.643 -0.9563  1.3805  1.0147
20863SOL    HW266378   9.774   9.324   4.539 -0.1396  0.5540  0.4860
20864SOL     OW66379   6.623   9.579   2.288  0.4758 -0.0668 -0.0400
20864SOL    HW166380   6.602   9.559   2.379  0.5512 -0.8545 -0.1944
20864SOL    HW266381   6.691   9.647   2.293 -0.8442  1.2789  0.4684
20865SOL     OW66382   4.298   5.885   1.067 -0.8012  0.6561  0.1434
20865SOL    HW166383   4.386   5.920   1.054 -0.6052  0.3311  0.5654
20865SOL    HW266384   4.244   5.962   1.084 -0.2164  0.7158  1.9059
20866SOL     OW66385   1.385   5.382   1.114  0.2061 -0.1231 -0.2707
20866SOL    HW166386   1.303   5.355   1.154  1.4662 -1.7991  1.3965
20866SOL    HW266387   1.445   5.392   1.188  1.9157 -0.5461 -1.5398
20867SOL     OW66388   3.597   0.274   1.201  0.6308 -0.7935  0.3109
20867SOL    HW166389   3.690   0.297   1.197  1.5238 -4.1892 -2.0442
20867SOL    HW266390   3.554   0.340   1.147  1.7216  0.4142  0.8553
20868SOL     OW66391   5.890  10.337   9.787  0.2597  0.0737  1.1807
20868SOL    HW166392   5.963  10.323   9.847  1.7277 -1.2124 -0.7586
20868SOL    HW266393   5.838  10.257   9.792  0.8305 -0.3826  0.2414
20869SOL     OW66394   1.047   4.499   3.647 -0.0507  0.3865  0.0354
20869SOL    HW166395   1.106   4.539   3.710  1.0699 -1.0762 -0.0376
20869SOL    HW266396   1.002   4.430   3.697 -1.5113  1.2651  0.0103
20870SOL     OW66397   7.872   9.823   5.122  0.2406 -0.7789 -0.7520
20870SOL    HW166398   7.880   9.732   5.151  1.5988 -0.8168 -1.1732
20870SOL    HW266399   7.814   9.820   5.046 -0.7087 -1.1120 -0.0327
20871SOL     OW66400  10.098   4.759   9.061 -0.2730  0.5920  0.0661
20871SOL    HW166401  10.008   4.787   9.076 -0.4147  0.0820  0.1914
20871SOL    HW266402  10.130   4.733   9.148 -0.2900 -0.0383 -0.1097
20872SOL     OW66403   4.685   7.026   9.246 -0.0819 -0.0762 -0.4119
20872SOL    HW166404   4.640   7.109   9.258  1.2985  1.0313 -2.3633
20872SOL    HW266405   4.778   7.046   9.257  0.3244 -1.2110 -1.4466
20873SOL     OW66406   4.677   7.263   3.744  0.4647 -0.6667  0.5875
20873SOL    HW166407   4.666   7.355   3.766 -0.0166  0.2489 -2.8955
20873SOL    HW266408   4.756   7.260   3.689  0.4300 -2.3199  0.5647
20874SOL     OW66409   6.754   5.875   4.595  0.0183  0.5764  0.2731
20874SOL    HW166410   6.833   5.862   4.648 -0.6456 -0.7007  0.9900
20874SOL    HW266411   6.718   5.787   4.584 -0.5540  0.9741 -1.2491
20875SOL     OW66412   0.982   0.284   9.640 -0.3438  0.1599  0.0350
20875SOL    HW166413   0.920   0.288   9.712  0.4868 -0.4931  0.8037
20875SOL    HW266414   0.938   0.230   9.574 -1.0300  0.6102  0.1060
20876SOL     OW66415   1.625   5.652   5.078  0.3389  0.7404  0.2062
20876SOL    HW166416   1.658   5.730   5.124 -1.6286  1.1234  1.0431
20876SOL    HW266417   1.573   5.687   5.006  0.8987  0.1509 -0.5042
20877SOL     OW66418   1.366   7.695   0.332 -0.5563 -0.0830  0.1584
20877SOL    HW166419   1.448   7.661   0.370 -0.6966  0.0559  0.5933
20877SOL    HW266420   1.327   7.746   0.403  0.1369  1.8501 -0.7606
20878SOL     OW66421   8.337   8.341   3.425 -0.5275 -0.6607  0.2194
20878SOL    HW166422   8.264   8.392   3.389  0.1709  0.0905 -0.1837
20878SOL    HW266423   8.344   8.265   3.368 -0.3773 -0.2316 -0.3452
20879SOL     OW66424   3.072   7.370   3.397  0.1936  0.1589 -0.4537
20879SOL    HW166425   2.977   7.376   3.385  0.3888  0.9631 -1.7101
20879SOL    HW266426   3.083   7.362   3.492 -1.1804 -1.2189 -0.3644
20880SOL     OW66427   1.152   3.199   8.627  0.3903 -0.0536  0.3618
20880SOL    HW166428   1.095   3.128   8.596 -0.0208 -0.8464  2.7248
20880SOL    HW266429   1.221   3.206   8.561 -1.7930  0.1987 -2.0541
20881SOL     OW66430   5.321   2.055   0.846  0.5387 -0.6273  0.2772
20881SOL    HW166431   5.313   2.150   0.838 -0.9265 -0.6426  1.0435
20881SOL    HW266432   5.402   2.041   0.895  0.1046  0.3282  1.3305
20882SOL     OW66433   3.470   6.903   4.060  0.8092  0.4588 -0.4506
20882SOL    HW166434   3.456   6.984   4.110  0.1438 -0.9610  1.8187
20882SOL    HW266435   3.449   6.927   3.970 -1.0473  2.4112  0.4017
20883SOL     OW66436   1.981   1.433   5.812  0.5006  0.4730 -0.0309
20883SOL    HW166437   1.997   1.355   5.865  0.2487 -0.5251 -1.3894
20883SOL    HW266438   2.034   1.501   5.854  1.0983 -0.5293  0.8938
20884SOL     OW66439   3.905   1.812   8.716 -0.2814  0.4533 -0.5163
20884SOL    HW166440   3.973   1.783   8.655  0.1737 -0.1443  0.2526
20884SOL    HW266441   3.855   1.732   8.735 -1.6171  1.0138 -1.5717
20885SOL     OW66442   4.446   7.682  10.010 -0.0281  0.3312 -0.4273
20885SOL    HW166443   4.500   7.638   9.944 -1.3240 -0.3860 -1.0378
20885SOL    HW266444   4.365   7.703   9.965 -0.9565 -0.1760  0.9317
20886SOL     OW66445   3.555   2.231   5.919  0.1868  0.2171  0.5963
20886SOL    HW166446   3.479   2.252   5.866 -0.2048 -1.8501  0.2759
20886SOL    HW266447   3.585   2.316   5.952 -1.2314  1.2436 -0.6242
20887SOL     OW66448   3.607   9.254   2.546  0.3711  0.2373 -0.2234
20887SOL    HW166449   3.693   9.283   2.578  0.7164 -0.6826 -0.2959
20887SOL    HW266450   3.545   9.286   2.612  1.1564 -2.4720  1.9946
20888SOL     OW66451   0.590   7.775   9.927  0.6559  0.1433  0.0728
20888SOL    HW166452   0.618   7.706   9.867  3.0322 -2.4216  3.7326
20888SOL    HW266453   0.665   7.834   9.932  0.4782  0.3304  0.5283
20889SOL     OW66454   2.113   9.258   7.106 -0.2363 -0.3544  0.4585
20889SOL    HW166455   2.170   9.219   7.172 -0.6880  0.9994  1.6923
20889SOL    HW266456   2.157   9.240   7.023  0.5701 -1.7051  1.1535
20890SOL     OW66457   7.947   9.822   1.753  0.3324  0.4250 -0.2707
20890SOL    HW166458   7.984   9.887   1.813 -0.3460  0.1886  0.4132
20890SOL    HW266459   7.854   9.843   1.749  0.1564 -0.3269 -0.2701
20891SOL     OW66460   0.579   6.952   5.133 -0.0621 -0.3370  0.5187
20891SOL    HW166461   0.508   6.926   5.074 -0.6789  1.0822  0.5938
20891SOL    HW266462   0.646   6.884   5.122 -0.6190 -0.6758 -0.9896
20892SOL     OW66463   4.441   7.992   3.249 -0.4653  0.1801  0.7057
20892SOL    HW166464   4.375   7.948   3.196  0.2437 -1.3365  1.0332
20892SOL    HW266465   4.404   8.079   3.266 -0.9785  0.5085 -1.7150
20893SOL     OW66466   9.513   0.855   9.605  0.4623 -0.3665 -0.1123
20893SOL    HW166467   9.564   0.791   9.654  0.0157 -0.5454  0.1284
20893SOL    HW266468   9.535   0.939   9.646 -0.8979 -0.6503  1.2968
20894SOL     OW66469   2.978   9.933   3.724 -0.3967  0.4089 -0.1491
20894SOL    HW166470   2.966   9.974   3.639 -1.3097  0.3013 -0.0778
20894SOL    HW266471   2.890   9.929   3.762  0.1233  1.4393  1.2614
20895SOL     OW66472   7.920   7.586   8.873 -0.3924  0.2732  0.1217
20895SOL    HW166473   7.858   7.601   8.944 -0.4097 -0.6478  0.3188
20895SOL    HW266474   7.976   7.515   8.906  2.7300  2.9918  1.2227
20896SOL     OW66475   9.589   2.630   3.301 -0.4862  0.3390 -0.3130
20896SOL    HW166476   9.504   2.644   3.259 -0.8991 -1.8912 -0.3486
20896SOL    HW266477   9.638   2.576   3.238  0.4107  0.3662  0.3343
20897SOL     OW66478   8.768   8.905   1.369  0.1710  0.5002  0.0880
20897SOL    HW166479   8.853   8.913   1.327  0.1215 -2.5372 -0.8610
20897SOL    HW266480   8.773   8.822   1.417 -1.9044  0.7764  0.9072
20898SOL     OW66481   7.642   5.904   6.698 -0.4117  0.0707  0.0412
20898SOL    HW166482   7.552   5.889   6.726 -0.9603  1.4078 -0.8981
20898SOL    HW266483   7.640   5.891   6.603  0.5790 -0.7322  0.1187
20899SOL     OW66484   6.078   4.591   7.905 -0.2319 -0.2380  0.2277
20899SOL    HW166485   6.034   4.535   7.842  0.5234  0.2528 -0.7615
20899SOL    HW266486   6.009   4.648   7.940 -1.0488 -1.8670  1.3903
20900SOL     OW66487   8.346   2.784   1.334 -0.1491 -0.5312 -0.2449
20900SOL    HW166488   8.361   2.760   1.242 -2.3137 -2.7838 -0.1138
20900SOL    HW266489   8.420   2.745   1.381  0.7807  0.3260 -0.9561
20901SOL     OW66490   4.803   1.707   6.070 -0.3455 -1.1923  0.2295
20901SOL    HW166491   4.741   1.661   6.014  0.5719 -1.0986 -0.8879
20901SOL    HW266492   4.859   1.755   6.010  0.5882 -0.9795  1.2405
20902SOL     OW66493   9.862   3.261   6.972 -0.3902 -0.3055 -0.1836
20902SOL    HW166494   9.840   3.179   7.016  1.6777 -0.5909  0.4360
20902SOL    HW266495   9.789   3.319   6.992 -0.5654 -1.1237  1.7863
20903SOL     OW66496   7.851   6.228   0.180  0.0865 -0.0670 -0.1554
20903SOL    HW166497   7.946   6.224   0.171  0.2837 -0.6100  1.8933
20903SOL    HW266498   7.834   6.218   0.273 -2.0077 -0.2473 -0.4957
20904SOL     OW66499   6.884   8.066   3.897  0.1058 -0.1679 -0.1081
20904SOL    HW166500   6.868   7.978   3.862 -0.3241  0.3289 -1.2002
20904SOL    HW266501   6.967   8.057   3.945 -0.1518 -1.2648  0.1694
20905SOL     OW66502   7.797  10.344   2.149  0.1273  0.2435  0.0731
20905SOL    HW166503   7.807  10.436   2.171  0.2440  0.1308  0.4962
20905SOL    HW266504   7.880  10.304   2.174 -0.1702 -0.0986  0.5368
20906SOL     OW66505   9.030   9.968  10.137  0.3172  0.2489  0.4431
20906SOL    HW166506   8.982  10.045  10.107  0.6982  0.5537  0.6044
20906SOL    HW266507   9.025   9.907  10.064 -0.1310  0.3608  0.3764
20907SOL     OW66508   9.509   5.207   4.932  0.1287  0.5830  0.3078
20907SOL    HW166509   9.599   5.229   4.955 -0.0880  0.5881  1.1645
20907SOL    HW266510   9.456   5.270   4.981 -0.3849 -0.0939  0.6233
20908SOL     OW66511   6.815   0.461   3.644  0.4869  0.2368 -0.0141
20908SOL    HW166512   6.832   0.534   3.585  0.2560  1.3052  1.1757
20908SOL    HW266513   6.893   0.456   3.699  0.0939  0.2714  0.5649
20909SOL     OW66514   7.959   5.686   2.156 -0.0603  0.5790  0.4976
20909SOL    HW166515   8.039   5.737   2.141 -0.7160  1.3725 -0.4122
20909SOL    HW266516   7.924   5.670   2.068  0.3858 -1.9166  0.6948
20910SOL     OW66517   7.702   2.474   1.310  0.4395 -0.2862 -0.0927
20910SOL    HW166518   7.638   2.502   1.376  1.0981  1.4161 -0.1316
20910SOL    HW266519   7.773   2.537   1.318  0.7514 -0.3233 -2.1289
20911SOL     OW66520   5.092   6.071   1.362 -0.2898  0.5151 -0.5006
20911SOL    HW166521   5.052   6.023   1.435  0.9855 -2.2459 -1.5045
20911SOL    HW266522   5.066   6.162   1.377 -3.3598 -0.4927  1.1974
20912SOL     OW66523   9.651   2.289   2.341 -0.3316 -0.0734 -0.0316
20912SOL    HW166524   9.663   2.279   2.247 -0.4511 -1.4480  0.0781
20912SOL    HW266525   9.727   2.341   2.370  0.1356 -0.3356 -0.7633
20913SOL     OW66526   7.736   8.673   9.335 -0.0689  0.2419 -0.4858
20913SOL    HW166527   7.808   8.735   9.349 -1.6648  2.5238 -1.7076
20913SOL    HW266528   7.723   8.632   9.420  2.2815  0.1758 -0.0999
20914SOL     OW66529   4.329   2.385   2.985 -0.1284 -0.0605  0.3944
20914SOL    HW166530   4.299   2.451   2.921  1.2454  0.6830  0.4660
20914SOL    HW266531   4.379   2.323   2.932  0.1888  0.0196  0.5993
20915SOL     OW66532   8.886   4.829   7.497 -0.4167  0.1043  0.5283
20915SOL    HW166533   8.972   4.821   7.455 -0.7692  0.8128 -0.3651
20915SOL    HW266534   8.864   4.740   7.524 -0.1227 -0.3735 -0.7096
20916SOL     OW66535   7.768   5.635   6.786  0.0495 -0.1018 -0.2460
20916SOL    HW166536   7.685   5.682   6.793 -0.1731 -0.7137  2.3881
20916SOL    HW266537   7.828   5.683   6.842  1.3492 -0.0252 -1.6336
20917SOL     OW66538   6.469   7.667   6.741  0.1851  0.4528 -0.3698
20917SOL    HW166539   6.476   7.709   6.827 -0.2406 -1.2730  0.5347
20917SOL    HW266540   6.560   7.652   6.715  0.3070 -0.5859  0.5943
20918SOL     OW66541   3.677   1.975   8.291  0.1762 -0.2760  0.0074
20918SOL    HW166542   3.751   2.003   8.236 -0.8391 -0.1136 -1.3245
20918SOL    HW266543   3.717   1.950   8.374  1.7697 -0.5372 -0.8004
20919SOL     OW66544   5.640   9.269   7.708  0.2958 -0.0901  0.0421
20919SOL    HW166545   5.637   9.365   7.707 -0.4651 -0.0800  1.5667
20919SOL    HW266546   5.656   9.245   7.616 -3.9938  1.3560 -1.3234
20920SOL     OW66547   6.376   2.380   2.168 -0.4029 -0.5170 -0.3090
20920SOL    HW166548   6.319   2.367   2.244 -0.6143  1.2932 -0.1349
20920SOL    HW266549   6.411   2.293   2.151 -1.1513 -1.1669  1.2190
20921SOL     OW66550   1.815   9.919   9.973 -0.7826 -0.4389  0.3064
20921SOL    HW166551   1.872   9.888  10.044  0.2660 -0.9567 -0.7327
20921SOL    HW266552   1.869   9.982   9.925 -1.8190  0.6390  0.5127
20922SOL     OW66553   3.650   2.647   1.854  0.0870  0.1337 -0.7311
20922SOL    HW166554   3.740   2.614   1.857 -0.1240 -0.5084 -1.1403
20922SOL    HW266555   3.626   2.658   1.946 -0.0489 -1.5179 -0.5398
20923SOL     OW66556   3.140   4.997   8.046 -0.0870 -0.1612 -0.1311
20923SOL    HW166557   3.181   5.046   8.118  3.4539 -0.6338 -1.6143
20923SOL    HW266558   3.126   4.909   8.083 -2.7090  0.7532  1.2925
20924SOL     OW66559   9.987   1.872   1.742  0.3723  0.7656 -0.4628
20924SOL    HW166560   9.943   1.940   1.794  0.7702  1.0675 -0.5157
20924SOL    HW266561   9.996   1.911   1.655  0.3630  0.5390 -0.5661
20925SOL     OW66562   5.855   7.465   8.512 -0.2220 -0.3116  0.2455
20925SOL    HW166563   5.781   7.474   8.452 -0.2985 -3.0168 -0.2095
20925SOL    HW266564   5.846   7.376   8.547  1.6987  0.0215  1.7220
20926SOL     OW66565   1.254   1.580  10.001 -0.4321 -0.0479 -0.1671
20926SOL    HW166566   1.231   1.646  10.065  0.1905  0.6019 -0.6044
20926SOL    HW266567   1.272   1.629   9.921  1.0768 -0.6315 -0.2168
20927SOL     OW66568   2.611   0.830   2.141  0.4295 -0.1301  0.0047
20927SOL    HW166569   2.539   0.883   2.175  0.9829  0.7034 -0.1021
20927SOL    HW266570   2.570   0.747   2.116 -0.1709 -0.3776  1.6905
20928SOL     OW66571   5.014   2.072   0.890 -0.4426 -0.0466  0.1201
20928SOL    HW166572   5.011   2.034   0.802 -1.6418  1.4636 -0.5385
20928SOL    HW266573   5.060   2.155   0.880  0.4735 -0.4015  1.1729
20929SOL     OW66574   6.452   7.098   3.621 -0.5916 -0.0404  0.5945
20929SOL    HW166575   6.517   7.080   3.688 -0.6672 -0.3484  0.5849
20929SOL    HW266576   6.502   7.136   3.549 -0.1473 -1.8040 -0.0882
20930SOL     OW66577   9.841   9.398   3.411  0.4411  0.7174  0.7097
20930SOL    HW166578   9.849   9.493   3.415 -0.7063  0.8347  0.5400
20930SOL    HW266579   9.753   9.383   3.378 -0.1734 -0.4072  2.7005
20931SOL     OW66580   2.025   9.451   7.799  0.1651 -0.4833  0.2569
20931SOL    HW166581   1.952   9.418   7.851  0.1234  0.1598  0.6251
20931SOL    HW266582   2.029   9.544   7.821  0.9924 -0.4806  0.1106
20932SOL     OW66583   6.694   7.368   7.421  0.0552  0.0791 -0.2685
20932SOL    HW166584   6.785   7.363   7.451  0.3478 -1.5458 -1.3277
20932SOL    HW266585   6.701   7.390   7.328 -0.6835  0.6407 -0.2031
20933SOL     OW66586  10.137   1.656   7.903 -0.0385  0.1984  0.4674
20933SOL    HW166587  10.049   1.617   7.905 -0.2709  0.3233 -2.7658
20933SOL    HW266588  10.122   1.749   7.886  0.6992  0.1893 -0.2948
20934SOL     OW66589   9.404   6.502   3.035 -0.4097  0.2730 -0.4400
20934SOL    HW166590   9.485   6.503   2.982 -0.2081 -2.1199 -0.2839
20934SOL    HW266591   9.379   6.594   3.041  1.7852  1.0074 -1.2965
20935SOL     OW66592   7.303   8.421  10.016 -0.0694  0.1489  0.2944
20935SOL    HW166593   7.333   8.510   9.998  0.0189  0.2894  1.0837
20935SOL    HW266594   7.322   8.408  10.109 -1.7704 -0.0300  0.6430
20936SOL     OW66595   2.804   1.306   7.141  0.2455 -0.9345  0.3290
20936SOL    HW166596   2.865   1.244   7.181  2.2607  1.3113  0.9785
20936SOL    HW266597   2.770   1.357   7.215  0.6256  0.3998 -0.3869
20937SOL     OW66598   9.832   0.539   6.074  0.1724  0.2817  0.3927
20937SOL    HW166599   9.815   0.604   6.006 -1.5462 -0.0733  0.4563
20937SOL    HW266600   9.899   0.580   6.129 -1.5350  2.4180  0.9878
20938SOL     OW66601   8.881   0.448   5.101  0.0930 -0.1998 -0.3201
20938SOL    HW166602   8.828   0.387   5.152  1.0242 -0.5213  0.2909
20938SOL    HW266603   8.875   0.531   5.148  0.0898 -0.2247 -0.2763
20939SOL     OW66604   7.650   7.679   0.235 -0.4046  0.2287 -0.3456
20939SOL    HW166605   7.662   7.691   0.329  0.4106  0.1104 -0.4284
20939SOL    HW266606   7.591   7.750   0.210 -0.4578  0.3947  0.2206
20940SOL     OW66607   0.638   7.969   4.735  0.5188  0.4610 -0.8240
20940SOL    HW166608   0.556   7.989   4.690  0.3310  0.4095 -0.5062
20940SOL    HW266609   0.665   8.051   4.775  0.2815  0.3294 -0.3830
20941SOL     OW66610   7.255   9.787   3.684 -0.0055  0.6551  0.0661
20941SOL    HW166611   7.282   9.853   3.748 -0.2664  0.7803  0.0448
20941SOL    HW266612   7.320   9.794   3.613  0.8921 -0.1630  0.7611
20942SOL     OW66613   0.138   9.658   9.927 -0.2921 -0.8594 -0.3473
20942SOL    HW166614   0.199   9.720   9.886 -1.4773 -0.5232 -1.6623
20942SOL    HW266615   0.185   9.627  10.005  1.1685  0.1011 -0.7967
20943SOL     OW66616   2.100   6.898   2.438  0.6135  0.0269  0.6245
20943SOL    HW166617   2.150   6.927   2.514 -0.3139  0.1258  1.2053
20943SOL    HW266618   2.043   6.829   2.472  0.6079 -0.3368 -0.1067
20944SOL     OW66619   5.982   1.940   4.478 -0.2901  0.1990  0.1917
20944SOL    HW166620   6.059   1.994   4.458  1.1987 -1.9891 -0.2411
20944SOL    HW266621   6.014   1.873   4.537 -2.3050  0.2469  1.4228
20945SOL     OW66622   2.393   4.117   3.320  0.2481 -0.2959  0.0650
20945SOL    HW166623   2.300   4.132   3.338 -0.1368 -1.3091 -0.9436
20945SOL    HW266624   2.393   4.045   3.257  1.6178  1.0150 -1.5064
20946SOL     OW66625   5.934   7.746   9.702  0.0025 -0.5301 -0.3949
20946SOL    HW166626   5.945   7.683   9.774  0.1637 -1.2130 -1.0078
20946SOL    HW266627   5.854   7.793   9.725  0.0630 -0.7187  0.2465
20947SOL     OW66628   3.793   3.435   4.576  0.1552 -0.0997 -0.2268
20947SOL    HW166629   3.720   3.377   4.598  0.5809 -0.6754 -0.2928
20947SOL    HW266630   3.759   3.490   4.506 -1.3208  1.9840  1.9788
20948SOL     OW66631   7.810   0.303  10.223  0.4268 -0.0771  0.3174
20948SOL    HW166632   7.856   0.331  10.144  2.9223 -1.4956  1.1503
20948SOL    HW266633   7.865   0.333  10.295 -1.8657  1.3194  1.6079
20949SOL     OW66634   5.165   1.805   8.191 -0.2798  0.4898 -0.0600
20949SOL    HW166635   5.146   1.898   8.176 -1.4927  0.0504 -1.5524
20949SOL    HW266636   5.258   1.797   8.173 -0.1189  1.4472  0.2564
20950SOL     OW66637   2.920   9.494   2.929  0.3029  0.2526 -0.0209
20950SOL    HW166638   2.898   9.504   3.021 -0.8333 -0.0154 -0.2495
20950SOL    HW266639   2.836   9.477   2.885  0.8431  0.1829 -1.0743
20951SOL     OW66640   2.527   0.249   9.947  0.0354  0.4120  0.2927
20951SOL    HW166641   2.593   0.180   9.959 -0.5571 -0.0649  0.8549
20951SOL    HW266642   2.479   0.222   9.869 -0.2046  0.1781  0.5198
20952SOL     OW66643   7.316   7.565   1.028  0.5020 -0.4793 -0.4051
20952SOL    HW166644   7.362   7.531   1.104 -1.5984  0.9810  1.6708
20952SOL    HW266645   7.334   7.659   1.029 -1.3736 -0.0712 -0.2881
20953SOL     OW66646   5.404   3.521   2.111  0.0600 -0.0707  0.3857
20953SOL    HW166647   5.379   3.498   2.021 -0.7304  1.8443  0.0599
20953SOL    HW266648   5.383   3.443   2.162 -0.4085 -0.8516 -0.9429
20954SOL     OW66649   0.988   0.992   4.830  0.0739  0.1165 -0.2404
20954SOL    HW166650   0.894   0.985   4.849 -0.4419  0.4871 -2.4218
20954SOL    HW266651   1.014   1.074   4.872 -1.0211  0.9670 -1.1606
20955SOL     OW66652   9.291   9.409   6.399  0.2172 -0.1554 -0.1060
20955SOL    HW166653   9.319   9.461   6.324  1.0238 -0.2549  0.1207
20955SOL    HW266654   9.350   9.435   6.470 -1.0009  0.4936  0.7168
20956SOL     OW66655   6.323   6.353   1.899 -0.3069  0.6338 -0.2740
20956SOL    HW166656   6.298   6.266   1.869 -0.0858  0.6684 -0.5647
20956SOL    HW266657   6.354   6.397   1.820 -0.2554  0.9178 -0.0951
20957SOL     OW66658   4.715   5.420   6.271 -0.6508  0.0871 -0.5319
20957SOL    HW166659   4.777   5.383   6.208 -0.7767 -0.8582 -0.1288
20957SOL    HW266660   4.765   5.428   6.352 -0.7019  0.5628 -0.5457
20958SOL     OW66661   1.619   1.736   5.329 -0.2416 -0.5455  0.4969
20958SOL    HW166662   1.680   1.809   5.342 -0.7980 -0.2160  1.3020
20958SOL    HW266663   1.565   1.763   5.255  0.8896 -1.0524 -0.5457
20959SOL     OW66664   6.377   3.273   0.391  0.5034 -0.0891 -0.3912
20959SOL    HW166665   6.313   3.284   0.321  0.2262  1.1002  0.0274
20959SOL    HW266666   6.325   3.268   0.471  0.8868  3.7252  0.3123
20960SOL     OW66667   8.978   0.236   8.206 -0.1372  0.1422 -0.0165
20960SOL    HW166668   8.893   0.279   8.216  0.2380  0.6732  1.0319
20960SOL    HW266669   8.957   0.149   8.170 -1.2175 -0.1166  1.1626
20961SOL     OW66670   3.432   9.882  10.035  0.1155 -0.4867  0.1512
20961SOL    HW166671   3.353   9.828  10.047 -1.9377  2.1227 -0.5605
20961SOL    HW266672   3.409   9.941   9.964  1.7836  1.9819  1.5279
20962SOL     OW66673   7.700   1.333   3.675  0.3205 -0.1891  0.0612
20962SOL    HW166674   7.654   1.252   3.698 -0.5679  0.0948 -0.6861
20962SOL    HW266675   7.793   1.311   3.687  0.0598 -1.1050  0.5193
20963SOL     OW66676   6.992   5.421   4.591  0.3178 -0.7910 -0.1769
20963SOL    HW166677   6.981   5.438   4.685 -0.0026 -0.7964 -0.2127
20963SOL    HW266678   6.903   5.405   4.559  0.3859 -0.4630 -0.5443
20964SOL     OW66679   2.188   0.025   6.638 -0.1514  0.0800 -0.1853
20964SOL    HW166680   2.169  -0.045   6.700 -0.4782 -1.8498 -2.3181
20964SOL    HW266681   2.124   0.093   6.658 -2.2369 -1.7417 -0.2931
20965SOL     OW66682   2.667   4.162   5.090  0.2256 -0.1792  0.5164
20965SOL    HW166683   2.589   4.189   5.042  0.6162  0.9269  0.4801
20965SOL    HW266684   2.640   4.083   5.138 -0.5416 -0.5213 -0.4653
20966SOL     OW66685   9.532   3.882   7.000  0.3098 -0.0205  0.4324
20966SOL    HW166686   9.623   3.858   7.019 -0.2734 -1.4386  1.6529
20966SOL    HW266687   9.536   3.974   6.976  1.8511  0.4600  2.3102
20967SOL     OW66688   7.248   1.613   4.959  0.1281 -0.4912  0.0820
20967SOL    HW166689   7.339   1.633   4.934  0.0030  0.0090  0.0172
20967SOL    HW266690   7.226   1.536   4.907 -0.1973  0.6563 -1.5844
20968SOL     OW66691   3.127   5.038   9.456  0.7448 -0.0551 -0.3119
20968SOL    HW166692   3.205   5.084   9.486  1.3241 -1.3523  0.2376
20968SOL    HW266693   3.142   5.022   9.363 -0.1148  2.0973 -0.8861
20969SOL     OW66694   4.896   9.707   1.856 -0.3809 -0.8616  0.5374
20969SOL    HW166695   4.907   9.621   1.815  1.3444 -0.6560  0.5253
20969SOL    HW266696   4.801   9.714   1.870 -0.8716 -1.6646 -1.8320
20970SOL     OW66697   2.309   7.051   3.945  1.1533 -0.7014 -0.0652
20970SOL    HW166698   2.251   7.059   4.021  1.3005  0.1810 -0.0456
20970SOL    HW266699   2.302   6.958   3.920 -0.6886 -0.5160 -0.3804
20971SOL     OW66700   9.751   8.641   4.816  0.1918 -0.5340  0.0265
20971SOL    HW166701   9.749   8.695   4.896 -0.2299  1.5232 -1.2877
20971SOL    HW266702   9.817   8.684   4.761 -0.5545 -1.0257 -1.2949
20972SOL     OW66703   2.756   4.559   2.999 -0.1462 -0.4571 -0.1817
20972SOL    HW166704   2.742   4.626   2.933 -0.4200 -0.6245 -0.2975
20972SOL    HW266705   2.748   4.476   2.952 -0.7406 -0.5847  0.1273
20973SOL     OW66706   3.687   5.572   6.851 -0.0319  0.2310 -0.2650
20973SOL    HW166707   3.673   5.481   6.875 -0.9526  0.6221  0.7461
20973SOL    HW266708   3.745   5.606   6.919 -1.9097  1.1029  0.9638
20974SOL     OW66709   8.235   8.565   2.790  0.4677  0.2089  0.0359
20974SOL    HW166710   8.257   8.473   2.800 -2.5697 -0.5349  0.8905
20974SOL    HW266711   8.238   8.601   2.878  0.6003  0.6650 -0.1494
20975SOL     OW66712   5.934   8.493   8.745 -0.2211  0.4267 -0.2531
20975SOL    HW166713   5.842   8.502   8.769 -0.5886  0.6530 -1.6673
20975SOL    HW266714   5.982   8.512   8.826 -1.4334 -1.3218  0.9482
20976SOL     OW66715   2.089   1.498   5.167  0.4144  0.0863 -0.0462
20976SOL    HW166716   2.006   1.545   5.163  0.2661 -0.2123 -0.6802
20976SOL    HW266717   2.146   1.546   5.107  1.1022  1.0253  1.3004
20977SOL     OW66718   0.495   0.843   8.946 -0.2385 -0.1512 -0.2058
20977SOL    HW166719   0.580   0.798   8.950 -1.1988 -1.9080  2.0670
20977SOL    HW266720   0.493   0.897   9.024 -1.6958 -1.0914  0.4354
20978SOL     OW66721   2.875   5.202   4.672 -0.2276  0.3073  0.6128
20978SOL    HW166722   2.793   5.250   4.677 -0.7180  0.3236 -3.7786
20978SOL    HW266723   2.849   5.110   4.668 -0.0227  0.2711 -0.0811
20979SOL     OW66724   1.999   0.095   8.654 -0.3598  0.8656  0.2463
20979SOL    HW166725   1.954   0.012   8.640 -0.6234  1.1771 -0.8637
20979SOL    HW266726   1.928   0.160   8.659 -0.2371  0.9023  2.3016
20980SOL     OW66727   3.864   3.796   9.043 -0.5819 -0.7375 -0.5551
20980SOL    HW166728   3.870   3.889   9.022  3.3814 -0.6161  0.2253
20980SOL    HW266729   3.881   3.752   8.959 -1.4940 -0.7566 -0.7364
20981SOL     OW66730   6.345   2.734   3.989 -0.5325  0.3476  0.7306
20981SOL    HW166731   6.438   2.712   3.978 -0.8071 -0.2012 -0.6684
20981SOL    HW266732   6.329   2.725   4.083  0.5446 -0.7019  0.8314
20982SOL     OW66733   7.303   5.224   3.380 -0.5562 -0.3401  0.6219
20982SOL    HW166734   7.365   5.195   3.314 -0.2532  0.9320  0.3244
20982SOL    HW266735   7.337   5.189   3.462  0.3840  0.0855  0.4234
20983SOL     OW66736   8.694   2.069   5.609 -0.6258 -0.1161  0.0915
20983SOL    HW166737   8.711   2.031   5.523 -1.2032  1.5849 -0.8195
20983SOL    HW266738   8.665   2.158   5.590  0.5117  0.7394  2.1136
20984SOL     OW66739   4.733   3.699   2.625  0.4463 -0.2048 -0.3438
20984SOL    HW166740   4.750   3.781   2.578  1.3121  1.0151  1.9813
20984SOL    HW266741   4.815   3.650   2.616 -0.2738 -1.1736 -2.2595
20985SOL     OW66742   4.562   6.441   8.400  0.2547  0.0620 -0.1449
20985SOL    HW166743   4.619   6.506   8.358 -0.2072 -0.3317 -1.4298
20985SOL    HW266744   4.495   6.422   8.334 -0.4059 -0.7056  0.7274
20986SOL     OW66745   6.141  10.061   1.237  0.2566  0.0779 -0.1867
20986SOL    HW166746   6.188  10.124   1.291 -0.2518 -1.4921  2.2266
20986SOL    HW266747   6.187   9.978   1.250  0.2852 -0.3299 -2.4531
20987SOL     OW66748  10.318   6.689   4.529  0.2986 -0.5586  0.0680
20987SOL    HW166749  10.308   6.734   4.613 -1.5470 -0.6884 -0.0509
20987SOL    HW266750  10.398   6.637   4.540 -0.5153 -1.4954  2.1872
20988SOL     OW66751   3.840   0.693   1.046 -0.2846  0.0942  0.0185
20988SOL    HW166752   3.874   0.671   0.959  2.4019 -0.4774  1.1135
20988SOL    HW266753   3.763   0.748   1.029 -0.0315 -0.2649 -2.6935
20989SOL     OW66754   6.239   4.932   0.918 -0.0470 -0.3002 -0.2052
20989SOL    HW166755   6.172   4.945   0.985  0.4665 -0.0398  0.2624
20989SOL    HW266756   6.303   4.875   0.959  0.8765  0.8205 -0.0480
20990SOL     OW66757   7.453   3.769   0.479 -0.2782 -0.0645  0.0057
20990SOL    HW166758   7.452   3.675   0.463  1.5439 -0.1680  0.3553
20990SOL    HW266759   7.504   3.780   0.559 -2.1671  1.0961  1.1484
20991SOL     OW66760   6.958   2.897   5.011 -0.1846 -0.0024 -0.0425
20991SOL    HW166761   6.997   2.895   5.098 -1.6158 -1.0640  0.6238
20991SOL    HW266762   6.974   2.985   4.979  1.1827  0.1180  0.9003
20992SOL     OW66763   8.653   8.669   7.771 -0.3856  0.0797  0.0028
20992SOL    HW166764   8.733   8.713   7.742 -1.6300  1.6168 -1.2796
20992SOL    HW266765   8.598   8.665   7.693 -1.5010 -1.1307  0.8099
20993SOL     OW66766   4.289   4.195   8.412  0.0292  0.2455 -0.4893
20993SOL    HW166767   4.335   4.201   8.496 -0.3611 -0.7305 -0.1922
20993SOL    HW266768   4.270   4.102   8.401 -1.9842  0.6095 -0.5318
20994SOL     OW66769   9.134   6.482   4.377  0.5306 -0.1796 -0.1729
20994SOL    HW166770   9.223   6.458   4.400  1.0484  1.9686  0.2729
20994SOL    HW266771   9.124   6.572   4.409 -1.1211  0.3655 -1.9881
20995SOL     OW66772   3.123   1.517   3.960 -0.0955 -0.3460 -0.1282
20995SOL    HW166773   3.091   1.497   3.872 -1.2942 -0.2342  0.2700
20995SOL    HW266774   3.218   1.516   3.951 -0.1762  1.2589 -1.7844
20996SOL     OW66775   8.144   1.213   1.411 -0.2072 -0.0073 -0.3607
20996SOL    HW166776   8.208   1.162   1.360 -1.1847 -0.3759 -1.2565
20996SOL    HW266777   8.124   1.157   1.486 -0.5902 -0.5630 -0.8648
20997SOL     OW66778   8.299   5.575   2.007  0.2609 -0.3920 -0.0967
20997SOL    HW166779   8.294   5.622   2.090  2.7586 -0.4426  0.1771
20997SOL    HW266780   8.325   5.486   2.031 -0.7048 -0.8916 -0.8418
20998SOL     OW66781   6.083   8.930   3.219  0.0827 -0.3651  0.2592
20998SOL    HW166782   6.007   8.874   3.201  1.2427 -1.5404 -1.2163
20998SOL    HW266783   6.159   8.873   3.205  1.2614  0.4817  2.7408
20999SOL     OW66784   5.879   0.895   2.989 -0.5164 -0.0724 -0.5648
20999SOL    HW166785   5.790   0.929   2.999 -0.3333  0.0643  0.8455
20999SOL    HW266786   5.926   0.929   3.066  0.5772 -0.6913 -0.9383
21000SOL     OW66787   0.445   3.826   0.814 -0.0027 -1.2348  0.1014
21000SOL    HW166788   0.488   3.743   0.831  1.1181 -0.7404 -0.2095
21000SOL    HW266789   0.351   3.807   0.821  0.2514 -2.0351  2.3047
21001SOL     OW66790   2.659   8.949   1.738  0.3622  0.1461  0.0390
21001SOL    HW166791   2.650   8.894   1.660  0.2493 -0.5808  0.5499
21001SOL    HW266792   2.648   8.888   1.811 -1.7827  1.1502  0.6480
21002SOL     OW66793   0.624   9.778   8.623 -0.2584 -0.6154 -0.0898
21002SOL    HW166794   0.550   9.779   8.561 -0.7972 -2.1218  0.4800
21002SOL    HW266795   0.679   9.851   8.595  0.1554 -1.9329 -3.1518
21003SOL     OW66796   7.699   3.148   6.612 -0.0094  0.1449  0.1291
21003SOL    HW166797   7.653   3.084   6.558 -1.3511 -0.4232  1.8650
21003SOL    HW266798   7.788   3.113   6.620 -0.6817 -1.4989  0.9510
21004SOL     OW66799   8.822   6.667  10.106  0.4083 -0.0239 -0.8228
21004SOL    HW166800   8.773   6.746  10.087 -1.9839 -0.8709  1.3080
21004SOL    HW266801   8.827   6.663  10.201  1.8526 -1.6558 -0.9016
21005SOL     OW66802   9.310   6.404   3.282  0.2612  0.0231 -0.5811
21005SOL    HW166803   9.291   6.310   3.279  0.6645 -0.0447 -2.1555
21005SOL    HW266804   9.359   6.421   3.201 -2.1099  2.0863 -1.7356
21006SOL     OW66805   1.682   0.116   9.754 -0.1254 -1.0759 -0.4992
21006SOL    HW166806   1.600   0.133   9.801 -0.1050 -2.6647  0.1665
21006SOL    HW266807   1.738   0.191   9.775 -0.2521 -1.5513  1.7433
21007SOL     OW66808   4.221   5.274   7.859 -0.1005  0.5123 -0.2398
21007SOL    HW166809   4.162   5.204   7.834 -1.4685  0.4647  2.6775
21007SOL    HW266810   4.233   5.263   7.954  0.8283  3.3028  0.0669
21008SOL     OW66811   0.939   5.227   7.463 -0.5167  0.3419 -0.3290
21008SOL    HW166812   0.901   5.172   7.394 -0.8916  0.9569 -0.6261
21008SOL    HW266813   0.866   5.282   7.492 -0.6048 -0.5220  1.1991
21009SOL     OW66814   4.764   8.006  10.329 -0.2117  0.1850 -0.4011
21009SOL    HW166815   4.673   7.997  10.356 -0.0587 -0.3890 -0.0496
21009SOL    HW266816   4.764   8.078  10.266 -0.9622 -0.0454 -0.6711
21010SOL     OW66817   2.508   8.342   9.726 -0.2652  0.2300  0.0440
21010SOL    HW166818   2.453   8.421   9.721  1.4729  1.4543 -0.3883
21010SOL    HW266819   2.529   8.322   9.635  0.8628  0.4018  0.2592
21011SOL     OW66820   5.242   6.876   9.446 -0.3474 -0.4465 -0.8051
21011SOL    HW166821   5.229   6.914   9.533 -0.5194  0.6333 -1.2822
21011SOL    HW266822   5.336   6.883   9.431 -0.1753 -1.5378 -0.3209
21012SOL     OW66823   9.500   9.537   2.802  0.0426  0.0463 -0.8883
21012SOL    HW166824   9.461   9.534   2.889  2.6846  2.9688  0.5649
21012SOL    HW266825   9.425   9.546   2.742 -1.7119  1.1513  1.3364
21013SOL     OW66826   2.614  10.140   6.799  0.4563  0.4166 -0.2883
21013SOL    HW166827   2.548  10.204   6.826 -1.2606 -1.3939  0.0890
21013SOL    HW266828   2.696  10.188   6.798 -0.3112  2.0043  2.6210
21014SOL     OW66829   5.647   4.555   5.093 -0.4877 -0.5955 -0.0705
21014SOL    HW166830   5.734   4.532   5.061 -0.9404 -1.3962 -0.7840
21014SOL    HW266831   5.648   4.650   5.101  0.8572 -0.6890  1.1756
21015SOL     OW66832   4.081   9.591   8.286  0.0777  0.2735  0.0949
21015SOL    HW166833   4.169   9.572   8.317  0.3754  2.5544  0.8873
21015SOL    HW266834   4.094   9.653   8.214 -0.8644  1.0378  0.5566
21016SOL     OW66835   3.071   3.593   8.241 -0.2878 -0.0307 -0.0999
21016SOL    HW166836   3.035   3.673   8.204  0.4989 -0.6524 -2.4055
21016SOL    HW266837   3.165   3.611   8.252 -0.1987 -0.4429 -0.1345
21017SOL     OW66838   6.617   3.438   2.468  0.1403 -0.0031 -0.4484
21017SOL    HW166839   6.548   3.372   2.470  0.1902 -0.0395  0.6268
21017SOL    HW266840   6.665   3.425   2.549  2.3640 -0.9665 -1.8121
21018SOL     OW66841   3.049   4.462   3.325  0.9013 -0.3167 -0.3091
21018SOL    HW166842   3.053   4.452   3.230  2.8063 -0.7331 -0.2279
21018SOL    HW266843   3.139   4.486   3.350 -0.1259  2.5820  1.1025
21019SOL     OW66844   9.823   4.755   8.645  0.4957  0.0417  0.5622
21019SOL    HW166845   9.750   4.693   8.647  0.3925 -0.0270 -1.9306
21019SOL    HW266846   9.872   4.732   8.566  1.2420  2.2436  0.3054
21020SOL     OW66847   9.555   1.276   3.954 -0.5885 -0.2430  0.5935
21020SOL    HW166848   9.566   1.182   3.969  0.6996 -0.3420 -0.7382
21020SOL    HW266849   9.611   1.317   4.020  1.1929 -0.5359 -0.6530
21021SOL     OW66850   5.746   1.888   5.302  0.6349 -0.2215 -0.1160
21021SOL    HW166851   5.664   1.853   5.336 -0.1590  2.1128  0.5602
21021SOL    HW266852   5.798   1.908   5.380  1.2988 -0.4243 -0.4960
21022SOL     OW66853   5.010   6.544   3.412  0.1806 -0.4525 -0.2254
21022SOL    HW166854   5.012   6.535   3.508 -1.3265  0.2167 -0.0927
21022SOL    HW266855   4.989   6.456   3.381  2.3945 -1.0776 -0.0847
21023SOL     OW66856   1.218   2.757   5.111 -0.0753  0.2337 -0.6409
21023SOL    HW166857   1.229   2.852   5.121 -1.5189  0.3961 -0.4357
21023SOL    HW266858   1.261   2.721   5.189 -0.6821  0.8084 -0.0221
21024SOL     OW66859   9.689   7.846   7.279 -0.4149  0.4821  0.5939
21024SOL    HW166860   9.676   7.789   7.355  1.1472  0.2113  0.7047
21024SOL    HW266861   9.623   7.818   7.216 -0.6509 -0.4344  1.2272
21025SOL     OW66862   0.274   0.652   7.153 -0.4553 -0.3301 -0.4519
21025SOL    HW166863   0.279   0.594   7.078 -1.9872  2.0553 -2.5698
21025SOL    HW266864   0.191   0.631   7.196 -0.1413 -0.8955 -0.1124
21026SOL     OW66865   5.720   3.238   6.005  0.0868 -0.2148  0.1401
21026SOL    HW166866   5.693   3.239   6.097 -0.4683  0.2878 -0.0151
21026SOL    HW266867   5.711   3.330   5.977  0.7829 -0.2621 -0.2664
21027SOL     OW66868   9.064   8.363   0.703 -0.1461  0.3734  0.8770
21027SOL    HW166869   9.093   8.355   0.612 -0.4683  0.3642  0.7733
21027SOL    HW266870   8.974   8.329   0.703  0.9191 -2.7892  1.8301
21028SOL     OW66871   9.276   6.025   3.860  0.3457 -0.0550  0.0675
21028SOL    HW166872   9.262   6.119   3.851  1.7841  0.2719  0.8970
21028SOL    HW266873   9.244   5.987   3.778 -2.6255  0.8355  0.6994
21029SOL     OW66874   4.793   1.151   9.782  0.4111 -0.1286  0.1189
21029SOL    HW166875   4.703   1.131   9.760  0.8051 -0.3003 -1.4529
21029SOL    HW266876   4.805   1.114   9.870 -0.9489 -0.3382  0.2357
21030SOL     OW66877   5.655   9.000   4.477  0.0751 -0.5174  1.1367
21030SOL    HW166878   5.597   8.933   4.512  0.5223 -0.7111  1.5184
21030SOL    HW266879   5.669   9.060   4.551  0.1120 -0.3027  0.9567
21031SOL     OW66880   6.806   6.407   5.352  0.1459 -0.7540 -0.3092
21031SOL    HW166881   6.835   6.318   5.330  1.0957 -0.7882  0.9047
21031SOL    HW266882   6.790   6.403   5.447 -0.8005  0.1178 -0.4193
21032SOL     OW66883   9.844   0.202   6.377 -0.0946 -0.0968  0.5466
21032SOL    HW166884   9.805   0.156   6.303 -0.9796  1.2424  0.1447
21032SOL    HW266885   9.789   0.279   6.389  1.9763  1.4978  0.4395
21033SOL     OW66886   7.484   8.863   9.867 -0.3747 -0.1175 -0.2772
21033SOL    HW166887   7.458   8.955   9.869  0.1537  0.0567 -1.1289
21033SOL    HW266888   7.572   8.862   9.904 -1.3860 -0.6764  2.3881
21034SOL     OW66889   8.431   1.026   4.367  0.1691 -0.3001  0.0256
21034SOL    HW166890   8.397   0.970   4.297  0.9172 -0.9370  0.1629
21034SOL    HW266891   8.455   0.966   4.437  1.0059  0.1814  0.1685
21035SOL     OW66892   0.666   9.575   5.543 -0.4676  0.0532 -0.4674
21035SOL    HW166893   0.584   9.623   5.534  0.5699  1.5430 -3.4436
21035SOL    HW266894   0.652   9.515   5.616 -3.3057  1.9612  0.7039
21036SOL     OW66895   8.508   2.190   5.828  0.0154  0.2028  0.5287
21036SOL    HW166896   8.526   2.138   5.749 -0.5084 -1.2206  1.3141
21036SOL    HW266897   8.526   2.280   5.801  2.2713 -0.4704 -0.5127
21037SOL     OW66898   5.541   5.397   4.218  0.3650 -0.2777  0.2851
21037SOL    HW166899   5.631   5.388   4.248  0.5901  1.0938  0.0644
21037SOL    HW266900   5.515   5.485   4.245 -0.4498 -0.1481 -0.8651
21038SOL     OW66901   6.340   2.317   5.940 -0.2440 -0.0280 -0.1250
21038SOL    HW166902   6.257   2.285   5.903 -0.3527  0.3453 -0.2131
21038SOL    HW266903   6.357   2.259   6.014 -0.3288 -0.4182 -0.4060
21039SOL     OW66904   9.508   5.848   6.985 -0.3230  0.4981  0.6364
21039SOL    HW166905   9.457   5.906   6.928  0.0589  0.0347 -0.1944
21039SOL    HW266906   9.570   5.805   6.926 -2.7915 -3.3505  0.4927
21040SOL     OW66907   9.773   0.862   2.959  0.1858 -0.0073 -0.6462
21040SOL    HW166908   9.724   0.879   2.878 -1.2338  0.0217  0.1868
21040SOL    HW266909   9.712   0.813   3.014  0.0277  2.4688  1.5458
21041SOL     OW66910   3.579   0.183   1.807 -0.0776 -0.0732  0.2005
21041SOL    HW166911   3.613   0.186   1.896 -0.8497 -0.2055  0.4996
21041SOL    HW266912   3.532   0.265   1.796  0.0188 -0.0553 -0.0939
21042SOL     OW66913   1.353   0.844   0.427  0.3829 -0.5409 -0.0101
21042SOL    HW166914   1.382   0.807   0.511  0.4827  0.8452  0.6007
21042SOL    HW266915   1.342   0.768   0.370 -0.7330 -1.6448  1.5606
21043SOL     OW66916   3.293   3.697   5.008 -0.0791  0.2051  0.3708
21043SOL    HW166917   3.309   3.607   4.980  1.2535  0.9763 -1.5974
21043SOL    HW266918   3.360   3.713   5.076 -2.1741 -1.1129  2.8994
21044SOL     OW66919   4.645   5.760   9.669 -0.1168 -0.1900 -0.1582
21044SOL    HW166920   4.700   5.829   9.632 -1.0916  0.3481 -0.6579
21044SOL    HW266921   4.693   5.679   9.652  2.0098  0.4482  2.1722
21045SOL     OW66922   5.821   5.798   7.995  0.1061  0.7830 -0.2372
21045SOL    HW166923   5.769   5.725   7.962  0.6003  0.2260  0.1845
21045SOL    HW266924   5.877   5.824   7.922 -0.1983  0.8578 -0.4427
21046SOL     OW66925   5.540   4.944   8.104  0.5383  0.0281 -0.4308
21046SOL    HW166926   5.550   4.853   8.078  0.6270 -0.2533  0.5539
21046SOL    HW266927   5.447   4.953   8.126  1.1042 -0.7006  2.5673
21047SOL     OW66928   1.153   7.401   1.905  0.1136  0.6375 -0.2288
21047SOL    HW166929   1.088   7.349   1.953  0.5939  1.9382  1.9888
21047SOL    HW266930   1.233   7.348   1.907  0.3772  1.0357  1.2970
21048SOL     OW66931   2.184   5.226   7.027  0.2356  0.4453  0.0857
21048SOL    HW166932   2.141   5.164   7.086 -0.5698  1.3967  0.5209
21048SOL    HW266933   2.214   5.172   6.954  1.6306 -0.8418  1.5129
21049SOL     OW66934   5.247   1.892   6.496 -0.4209 -0.0344  0.0672
21049SOL    HW166935   5.220   1.803   6.471 -0.5087 -0.6805  2.2236
21049SOL    HW266936   5.203   1.906   6.580  0.2239  1.7639  0.1235
21050SOL     OW66937   4.895   3.054   8.154  0.3052 -0.1823 -0.3357
21050SOL    HW166938   4.905   2.968   8.114  1.2801 -0.1342 -0.2043
21050SOL    HW266939   4.887   3.114   8.079 -0.6435 -0.4042 -0.4251
21051SOL     OW66940   6.489   0.943   7.845 -0.3596  0.2281  0.0602
21051SOL    HW166941   6.501   0.906   7.758  0.0617 -0.6311  0.4723
21051SOL    HW266942   6.495   1.037   7.832 -2.0116  0.2340 -1.1061
21052SOL     OW66943   0.589   7.391   0.427  0.5186  0.1343  0.4678
21052SOL    HW166944   0.645   7.314   0.417  0.8161  0.2593  1.1234
21052SOL    HW266945   0.624   7.437   0.504  1.6889  2.0550 -1.1198
21053SOL     OW66946   4.504   3.029   4.335  0.6304  0.0273 -0.7267
21053SOL    HW166947   4.501   2.976   4.415  1.6821  0.4061 -0.4173
21053SOL    HW266948   4.528   2.967   4.266  0.2465 -0.2021 -0.6545
21054SOL     OW66949   4.886   8.796   2.691 -0.5564 -0.3967 -0.3850
21054SOL    HW166950   4.829   8.870   2.709 -1.5422 -1.5298  1.4156
21054SOL    HW266951   4.829   8.729   2.654  0.1915 -0.5373 -1.3384
21055SOL     OW66952   2.591   7.338   3.249  0.0566  0.6351  0.6218
21055SOL    HW166953   2.644   7.350   3.171 -0.3557 -0.9577  0.0614
21055SOL    HW266954   2.526   7.408   3.245 -0.6622 -0.0803 -1.0912
21056SOL     OW66955   2.676   0.860   5.267 -0.2063  0.2611  0.2931
21056SOL    HW166956   2.640   0.937   5.221  0.6053  0.2587 -0.3842
21056SOL    HW266957   2.712   0.806   5.197  1.4777  0.4672  0.9456
21057SOL     OW66958   1.933   5.987   8.386 -0.7790 -0.0990  0.2757
21057SOL    HW166959   2.015   5.956   8.425 -0.6749 -0.8359 -0.4988
21057SOL    HW266960   1.873   5.913   8.395 -1.2496  0.3110  0.5164
21058SOL     OW66961   1.276   3.248   6.821 -0.2051  0.0667  0.1146
21058SOL    HW166962   1.348   3.187   6.806  0.2980  0.7518 -0.3465
21058SOL    HW266963   1.212   3.227   6.753 -0.4457 -0.5369  0.5192
21059SOL     OW66964   5.299   6.050   0.736 -0.1915  0.0434 -0.2013
21059SOL    HW166965   5.219   6.026   0.781 -0.2069  0.4664  0.0029
21059SOL    HW266966   5.306   6.145   0.748  1.2489 -0.2085  1.2842
21060SOL     OW66967   3.614   4.579   7.782 -0.1573  0.1720  0.1029
21060SOL    HW166968   3.641   4.513   7.719 -0.3478  0.2313 -0.0426
21060SOL    HW266969   3.622   4.536   7.867 -2.4144 -0.8329 -0.1055
21061SOL     OW66970   1.168   6.041   6.336 -0.5357  0.0860 -0.7270
21061SOL    HW166971   1.210   6.092   6.405 -0.5378 -0.3838 -0.3748
21061SOL    HW266972   1.074   6.046   6.355 -0.5642  0.2971 -0.9293
21062SOL     OW66973   5.524  10.240   2.914  0.1799  0.1911 -0.4353
21062SOL    HW166974   5.566  10.218   2.997  0.6443  2.1787 -0.0844
21062SOL    HW266975   5.430  10.245   2.935  0.4276  2.1744  0.3826
21063SOL     OW66976   7.502   3.314   6.518 -0.5005 -0.3826 -0.1553
21063SOL    HW166977   7.554   3.256   6.574 -0.4942 -0.3621 -0.1400
21063SOL    HW266978   7.560   3.335   6.445 -0.4321 -0.2401 -0.0622
21064SOL     OW66979   2.747   8.149   4.494 -0.0040 -0.0177  0.2222
21064SOL    HW166980   2.691   8.080   4.458 -0.9667  0.0681  1.4900
21064SOL    HW266981   2.781   8.195   4.418 -1.5044 -0.2013 -0.5904
21065SOL     OW66982   8.243   7.718  10.035  0.5580  0.4567  0.4065
21065SOL    HW166983   8.311   7.689  10.096  0.4807 -1.2024 -0.2475
21065SOL    HW266984   8.285   7.787   9.984  2.4012 -1.5913 -1.0899
21066SOL     OW66985   7.688   1.625   8.888  0.0848  0.0752 -0.3308
21066SOL    HW166986   7.599   1.592   8.875  0.0914 -0.3529  0.6335
21066SOL    HW266987   7.681   1.689   8.958  1.0983 -2.9668  2.8186
21067SOL     OW66988   9.164   1.122   9.164 -0.1674 -0.1149  0.1892
21067SOL    HW166989   9.135   1.062   9.232 -1.1137 -1.7325 -1.5440
21067SOL    HW266990   9.098   1.192   9.165 -0.6548 -0.5684  0.3951
21068SOL     OW66991   9.655   3.078   0.834 -0.3387 -0.1324  0.5808
21068SOL    HW166992   9.593   3.148   0.812 -0.9612 -1.1517 -1.1758
21068SOL    HW266993   9.678   3.094   0.926 -2.0493  1.1611  0.8442
21069SOL     OW66994   2.853   7.814   8.878 -0.2720 -0.3499  0.0764
21069SOL    HW166995   2.866   7.812   8.783  1.1780 -1.8622  0.2568
21069SOL    HW266996   2.822   7.903   8.896  1.8542  0.8169 -1.5324
21070SOL     OW66997   4.057   9.365   1.188 -0.1263  0.2883 -0.2329
21070SOL    HW166998   4.084   9.417   1.112 -3.3369 -0.0486 -1.7380
21070SOL    HW266999   4.010   9.427   1.244  0.2206  0.0134  0.3821
21071SOL     OW67000   6.738   8.434   8.905  0.2162  0.1564 -0.2769
21071SOL    HW167001   6.731   8.345   8.939  0.5614  0.2296 -0.0137
21071SOL    HW267002   6.827   8.461   8.926 -0.1776  0.9068  0.4658
21072SOL     OW67003   9.874   8.708   1.535 -0.0185  0.0255 -0.0004
21072SOL    HW167004   9.856   8.645   1.465 -1.2288  1.0612 -0.6810
21072SOL    HW267005   9.882   8.792   1.489 -0.9749  0.7473  1.0986
21073SOL     OW67006   0.130   2.048   6.084  0.0067 -0.4827 -0.3640
21073SOL    HW167007   0.222   2.071   6.096 -0.4827  1.0287  0.8558
21073SOL    HW267008   0.120   1.965   6.130  0.7183 -0.5693 -0.3546
21074SOL     OW67009   7.041   8.963   6.703  0.3034  0.2976 -0.0234
21074SOL    HW167010   6.971   8.985   6.642 -1.3371  0.1887  1.7188
21074SOL    HW267011   7.028   8.870   6.722  1.6715 -0.0295 -0.5354
21075SOL     OW67012   0.539   6.506   5.955  0.4577 -0.4128 -0.3226
21075SOL    HW167013   0.633   6.512   5.944  0.7776 -1.1320  1.6335
21075SOL    HW267014   0.515   6.583   6.007 -0.0020 -0.3243 -0.6591
21076SOL     OW67015   8.856   6.665   7.104 -0.4086  0.1834 -0.3557
21076SOL    HW167016   8.892   6.590   7.057  2.0989  0.5477  0.7585
21076SOL    HW267017   8.899   6.662   7.190  0.7280  3.4771 -0.6608
21077SOL     OW67018   7.484   3.884   3.120 -0.7177  0.6374 -0.4762
21077SOL    HW167019   7.545   3.812   3.100  2.4463  2.6703  1.1124
21077SOL    HW267020   7.424   3.846   3.184 -1.5501 -1.5500 -2.3639
21078SOL     OW67021   0.936   1.651   4.692  0.3924  0.8194  0.5309
21078SOL    HW167022   1.012   1.669   4.748  0.3299  0.8016  0.6225
21078SOL    HW267023   0.967   1.669   4.603  0.0721  2.3109  0.6823
21079SOL     OW67024   4.649   5.213   2.657  0.6145 -0.1434 -0.3469
21079SOL    HW167025   4.728   5.249   2.617  1.2054 -0.2261  0.7265
21079SOL    HW267026   4.677   5.130   2.696 -0.4265 -1.1356 -1.5908
21080SOL     OW67027   4.105   6.069   1.138 -0.2796 -0.3296  0.2430
21080SOL    HW167028   4.100   6.159   1.108 -1.4948 -0.6232 -0.5170
21080SOL    HW267029   4.074   6.071   1.229  0.8010  0.1587  0.6236
21081SOL     OW67030   8.673   6.786   1.679 -0.3582  0.0035 -0.2488
21081SOL    HW167031   8.629   6.869   1.696 -0.7864 -0.2102 -0.3007
21081SOL    HW267032   8.659   6.734   1.758  0.1869  0.0961 -0.0866
21082SOL     OW67033   9.654   0.874   7.528  0.0591 -0.0748 -0.2054
21082SOL    HW167034   9.596   0.930   7.476  1.8274  2.6107  0.5016
21082SOL    HW267035   9.659   0.918   7.613  1.8338 -1.1223  0.2677
21083SOL     OW67036   1.439   4.065   5.830  0.0089 -0.2132 -0.0904
21083SOL    HW167037   1.486   4.036   5.752  1.4252  1.2895  0.1545
21083SOL    HW267038   1.505   4.109   5.884 -0.6426 -2.1925  2.5452
21084SOL     OW67039   3.165   7.222   7.932 -0.9394  0.0419  0.0582
21084SOL    HW167040   3.078   7.256   7.955 -1.2287 -0.1958 -0.6752
21084SOL    HW267041   3.149   7.160   7.861 -0.4610 -1.9432  1.5953
21085SOL     OW67042   2.565   2.370   6.208 -0.4440 -0.0334  0.3898
21085SOL    HW167043   2.592   2.281   6.184 -0.1076  0.2133 -0.1836
21085SOL    HW267044   2.600   2.425   6.137 -0.7662  0.5367  0.6685
21086SOL     OW67045   6.065   2.366   2.602 -0.9367  0.1479  0.3437
21086SOL    HW167046   5.985   2.388   2.650 -0.3238 -0.5195  1.7142
21086SOL    HW267047   6.136   2.377   2.666  0.0074  0.1146 -0.6619
21087SOL     OW67048   0.462   0.172   7.328  0.0514 -0.3709  0.2578
21087SOL    HW167049   0.508   0.195   7.247  1.0115 -0.8502  0.6400
21087SOL    HW267050   0.498   0.232   7.393  0.1510 -0.7594  0.5643
21088SOL     OW67051   5.420   4.284   7.566  0.0499 -0.2786 -0.0862
21088SOL    HW167052   5.391   4.199   7.533  1.0816  0.0843 -2.1318
21088SOL    HW267053   5.504   4.299   7.522  0.8177  0.9693  1.6787
21089SOL     OW67054   5.246   9.773   9.807 -0.3192  0.4644  0.1109
21089SOL    HW167055   5.207   9.709   9.865  0.3734  0.8182  0.9965
21089SOL    HW267056   5.340   9.753   9.808 -0.4948 -1.0419 -2.7885
21090SOL     OW67057   8.184   8.581   1.565  0.2316 -0.2426 -0.0011
21090SOL    HW167058   8.133   8.587   1.645 -1.2756  1.7250 -0.9983
21090SOL    HW267059   8.265   8.628   1.584  0.0110 -0.0569  0.4912
21091SOL     OW67060   2.697   8.509   1.369 -0.4233  0.6604 -0.6439
21091SOL    HW167061   2.602   8.494   1.374 -0.2169 -0.6030  0.0762
21091SOL    HW267062   2.711   8.543   1.281 -1.6341  1.6509 -0.4885
21092SOL     OW67063   5.684   5.463   8.192 -0.2517 -0.0134  0.3615
21092SOL    HW167064   5.714   5.380   8.155 -1.4068 -0.0010 -0.6646
21092SOL    HW267065   5.609   5.488   8.137 -0.6665  1.1040  1.3986
21093SOL     OW67066   6.173   1.785   2.796  0.0142  0.1010 -0.7912
21093SOL    HW167067   6.211   1.735   2.868 -0.8681  0.1860 -0.2634
21093SOL    HW267068   6.157   1.719   2.728 -0.9740 -0.3259 -0.1691
21094SOL     OW67069   7.353   1.132   1.846 -0.3998  0.2992  0.7369
21094SOL    HW167070   7.399   1.074   1.785  0.0488 -0.3862  1.6965
21094SOL    HW267071   7.415   1.146   1.917 -1.6216 -0.6197  2.0513
21095SOL     OW67072   9.634   4.487   0.275  0.1334 -0.2485 -0.0988
21095SOL    HW167073   9.715   4.436   0.282  0.9006  1.0275  0.6760
21095SOL    HW267074   9.660   4.567   0.230 -0.5495  0.4944  0.7998
21096SOL     OW67075   1.257   1.341   8.920  0.2721  0.7352 -0.4393
21096SOL    HW167076   1.249   1.311   9.011 -1.4233  0.6311 -0.6074
21096SOL    HW267077   1.350   1.328   8.900  0.7252  0.9208  1.3194
21097SOL     OW67078   7.674   9.717   4.588  0.2009  0.0819  0.2297
21097SOL    HW167079   7.751   9.681   4.544  0.1341  0.4228 -0.1768
21097SOL    HW267080   7.702   9.804   4.617  0.1411 -0.0133  0.5793
21098SOL     OW67081   3.556   5.362   8.206  0.7544 -0.2765  0.4404
21098SOL    HW167082   3.611   5.309   8.148 -1.9386 -1.0151 -1.6281
21098SOL    HW267083   3.537   5.441   8.156 -1.1734 -0.6768  0.4801
21099SOL     OW67084   8.093   3.545   5.566 -0.1970 -0.5197 -0.5945
21099SOL    HW167085   8.006   3.584   5.574 -1.0781 -2.4642 -0.2435
21099SOL    HW267086   8.102   3.525   5.473  1.0817  2.1697 -1.1629
21100SOL     OW67087   6.330   8.960   1.332  0.4616 -0.1741  0.0021
21100SOL    HW167088   6.260   8.946   1.396 -1.8245  2.4300 -1.7280
21100SOL    HW267089   6.410   8.966   1.385 -1.2351  1.3518  2.6040
21101SOL     OW67090   9.849   3.917   7.368  0.6057  0.5176 -0.5850
21101SOL    HW167091   9.881   3.829   7.387 -2.3949 -0.5482  0.1867
21101SOL    HW267092   9.812   3.947   7.451 -2.6219  0.4898 -1.8829
21102SOL     OW67093   7.321   4.295   9.352  0.1934  0.1583  0.6535
21102SOL    HW167094   7.415   4.291   9.337  0.0836 -0.0301 -0.0215
21102SOL    HW267095   7.287   4.215   9.312 -0.3673  0.7172 -0.0189
21103SOL     OW67096   8.334   2.213   0.252  0.1790 -0.0710  0.0886
21103SOL    HW167097   8.257   2.259   0.284 -0.8663 -1.6113 -0.1222
21103SOL    HW267098   8.313   2.189   0.162 -0.0143 -2.3658  0.6891
21104SOL     OW67099   4.062  10.022   3.796  0.2892  0.2878 -0.0149
21104SOL    HW167100   3.987   9.963   3.786 -1.7685  2.5981  0.6938
21104SOL    HW267101   4.112   9.985   3.869 -1.7464  0.1437  1.4071
21105SOL     OW67102   5.143   0.434   9.030 -0.2104  0.1843  0.1476
21105SOL    HW167103   5.124   0.438   9.124 -0.1618 -1.0344  0.2268
21105SOL    HW267104   5.238   0.435   9.025 -0.2013 -0.4811  0.1584
21106SOL     OW67105   1.827   4.605   9.587  0.1762 -0.3937 -0.7496
21106SOL    HW167106   1.780   4.566   9.514 -0.1567 -2.2666  0.3927
21106SOL    HW267107   1.768   4.596   9.662  1.6370 -1.2476  0.3647
21107SOL     OW67108   3.511   0.756   7.750  0.1777 -0.4147  0.4219
21107SOL    HW167109   3.441   0.811   7.715  0.4486  0.6494  1.5090
21107SOL    HW267110   3.587   0.813   7.754  1.1598 -1.5561 -0.7474
21108SOL     OW67111   1.870   6.450   3.655  0.5284 -0.2600 -0.0476
21108SOL    HW167112   1.784   6.489   3.639  0.5112 -0.6868 -1.0977
21108SOL    HW267113   1.931   6.525   3.654  0.1758  0.0369  0.6499
21109SOL     OW67114   2.967   1.392   6.437 -0.2210 -0.0461  0.0863
21109SOL    HW167115   2.881   1.435   6.435 -1.0269 -1.6097 -0.3548
21109SOL    HW267116   3.029   1.464   6.431 -1.5131  1.0920 -0.2709
21110SOL     OW67117   1.124   6.390   9.769  0.3962  0.2505  0.1389
21110SOL    HW167118   1.180   6.447   9.822  0.1027  0.2088  0.5021
21110SOL    HW267119   1.047   6.444   9.750  0.3191  0.1275  0.1031
21111SOL     OW67120   3.413   7.976   2.711 -0.1733  0.0911 -0.6159
21111SOL    HW167121   3.427   7.929   2.793 -1.8820 -0.0563 -0.3620
21111SOL    HW267122   3.374   8.059   2.738  1.9154  1.2934 -1.1226
21112SOL     OW67123   2.225  10.185   8.650 -0.0348 -0.1959 -0.3652
21112SOL    HW167124   2.134  10.213   8.655 -0.7359 -2.3863  0.5189
21112SOL    HW267125   2.237  10.128   8.726  1.9166 -0.4033 -0.7701
21113SOL     OW67126   2.472   1.376   4.702 -0.0603 -0.0893 -0.1465
21113SOL    HW167127   2.539   1.337   4.646 -1.0026  0.2523 -1.5483
21113SOL    HW267128   2.397   1.391   4.644 -1.2605 -0.1926  1.3157
21114SOL     OW67129   3.300   5.289   3.162  0.0648  0.1982 -0.1173
21114SOL    HW167130   3.395   5.295   3.166  0.0840 -0.7006  1.9581
21114SOL    HW267131   3.269   5.348   3.231 -0.6896 -2.1139  1.6700
21115SOL     OW67132   2.389   6.951   6.211  0.1609 -0.1469 -0.1265
21115SOL    HW167133   2.334   7.027   6.191  0.0316 -0.2913 -0.3221
21115SOL    HW267134   2.465   6.960   6.155  0.8523  0.6138  0.8946
21116SOL     OW67135   2.698   7.923   5.074 -0.1589  0.3068  0.1883
21116SOL    HW167136   2.789   7.948   5.092 -0.8729  2.4641  1.2122
21116SOL    HW267137   2.685   7.947   4.982  0.9360 -2.3425 -0.7647
21117SOL     OW67138   0.670  10.008   5.944 -0.1519  0.3718  0.0697
21117SOL    HW167139   0.755   9.965   5.929 -1.0221 -0.6989 -2.4527
21117SOL    HW267140   0.684  10.098   5.916  0.1293  0.1566 -0.5120
21118SOL     OW67141   2.188   7.415   2.117  0.4181 -0.1018 -0.2478
21118SOL    HW167142   2.150   7.327   2.118 -1.9551  0.8623  0.3888
21118SOL    HW267143   2.234   7.422   2.201 -0.5847 -0.2593  0.3258
21119SOL     OW67144   3.733   4.024   1.045  0.8305 -0.1099 -0.0444
21119SOL    HW167145   3.719   4.026   1.140 -2.3460  3.5534 -0.3037
21119SOL    HW267146   3.653   3.986   1.010  1.0280  0.5431 -1.2610
21120SOL     OW67147   8.101   5.356   3.122 -0.1296 -0.1287 -0.1457
21120SOL    HW167148   8.179   5.385   3.171 -1.4255  0.8725  1.4341
21120SOL    HW267149   8.100   5.412   3.044  0.8115 -0.2684 -0.2767
21121SOL     OW67150   1.256   0.388   0.351  0.6875  0.1668 -0.0977
21121SOL    HW167151   1.244   0.372   0.444  1.7114  0.9288  0.1818
21121SOL    HW267152   1.178   0.351   0.310 -0.8455  1.7191  1.2533
21122SOL     OW67153  10.097   5.434   4.843 -0.7226 -0.0590  0.3952
21122SOL    HW167154  10.171   5.486   4.874 -0.1487  0.2488 -1.3591
21122SOL    HW267155  10.098   5.356   4.898 -0.2580  0.7909  1.6386
21123SOL     OW67156   1.980  10.248   0.838 -0.0695  0.2589 -0.5704
21123SOL    HW167157   1.899  10.237   0.888  0.9615 -0.6020  0.9785
21123SOL    HW267158   1.994  10.343   0.837 -0.1394  0.3039  0.7590
21124SOL     OW67159   6.186   5.636   3.612  0.4794 -0.3536  0.6946
21124SOL    HW167160   6.163   5.721   3.649 -0.4963 -0.8743  1.3350
21124SOL    HW267161   6.121   5.575   3.649  0.8787 -1.2957 -0.1000
21125SOL     OW67162   0.816   5.332   1.045  0.9464  0.1840 -0.0243
21125SOL    HW167163   0.740   5.378   1.011  0.7427 -0.7945 -0.9322
21125SOL    HW267164   0.890   5.388   1.023  0.7003  0.1043 -1.0907
21126SOL     OW67165   7.881   2.976   6.144 -0.5125  0.1899  0.1813
21126SOL    HW167166   7.791   2.990   6.115 -1.2151 -1.9236  1.2240
21126SOL    HW267167   7.904   2.889   6.113 -0.3389 -1.0542  3.4336
21127SOL     OW67168   5.399   6.829   1.290  0.5839  0.3819  0.2684
21127SOL    HW167169   5.350   6.779   1.225 -0.7785  1.1379  0.6697
21127SOL    HW267170   5.370   6.794   1.374  0.9884  0.6112  0.5082
21128SOL     OW67171   5.662   3.381   3.071 -0.4493 -0.2625 -0.2661
21128SOL    HW167172   5.599   3.434   3.120  0.0069 -0.0962  0.1412
21128SOL    HW267173   5.695   3.318   3.135  0.6996  0.4277 -0.1639
21129SOL     OW67174   7.039   4.111   8.185  0.1202 -0.0769 -0.5742
21129SOL    HW167175   7.106   4.178   8.172  0.9181 -1.0257 -1.4966
21129SOL    HW267176   7.084   4.028   8.170 -0.8049 -0.8513  0.7337
21130SOL     OW67177   9.536   6.419   8.756 -0.3575  0.0633  0.1552
21130SOL    HW167178   9.616   6.397   8.804  0.2522 -0.2419 -0.9607
21130SOL    HW267179   9.543   6.512   8.738  0.1894 -0.1314 -0.6996
21131SOL     OW67180   0.642   3.529   8.229  0.1512  0.1322 -0.0265
21131SOL    HW167181   0.672   3.605   8.180 -0.8812  0.0223 -0.8725
21131SOL    HW267182   0.585   3.564   8.297  0.6380  0.1959  0.3531
21132SOL     OW67183   4.758   9.240   1.597  0.1897 -0.2966 -0.1023
21132SOL    HW167184   4.683   9.186   1.574  1.4271 -1.8847 -0.6135
21132SOL    HW267185   4.767   9.302   1.525 -0.5531 -0.1733 -0.0901
21133SOL     OW67186   3.875   7.782   2.812 -0.1314 -0.3846  0.3501
21133SOL    HW167187   3.926   7.750   2.737 -0.7078 -0.7316  0.0950
21133SOL    HW267188   3.902   7.873   2.823 -0.0073 -0.3431 -0.2552
21134SOL     OW67189   9.126   6.087   7.758 -0.2964 -0.1769  0.2144
21134SOL    HW167190   9.134   6.009   7.702 -2.0392 -0.1500 -0.1156
21134SOL    HW267191   9.214   6.125   7.758  0.6256 -2.1932  0.4855
21135SOL     OW67192   0.039   0.676   3.469 -0.2526  0.4299 -0.0238
21135SOL    HW167193  -0.004   0.756   3.501 -0.3330  0.0025  0.9796
21135SOL    HW267194  -0.008   0.654   3.389 -1.0955  0.6637  0.3904
21136SOL     OW67195   3.084   4.058   9.517 -0.4541 -0.5394  0.5145
21136SOL    HW167196   3.079   4.073   9.423  0.7149 -0.8043  0.3924
21136SOL    HW267197   3.097   3.963   9.526 -0.4073 -0.4955  0.9351
21137SOL     OW67198   5.336   4.959   7.434 -0.0980  0.0762  0.4626
21137SOL    HW167199   5.285   4.911   7.370  2.0518 -2.6973  0.6215
21137SOL    HW267200   5.286   4.951   7.516 -1.5957  1.4448 -0.2752
21138SOL     OW67201   7.840   0.832   5.519 -0.3146 -0.9382  0.0690
21138SOL    HW167202   7.816   0.808   5.609 -0.3414 -0.5195  0.1756
21138SOL    HW267203   7.912   0.774   5.498  1.8293  1.0261  1.5091
21139SOL     OW67204   9.507   1.742   6.214 -0.0295  0.2335  0.4930
21139SOL    HW167205   9.520   1.806   6.144  1.7840  0.5190  1.0302
21139SOL    HW267206   9.516   1.793   6.295 -0.8059 -0.3223  0.9467
21140SOL     OW67207   8.494   7.512   1.626 -0.2223  0.4248  0.3582
21140SOL    HW167208   8.537   7.562   1.695 -2.2144 -0.0358  2.0259
21140SOL    HW267209   8.400   7.527   1.640 -0.7521 -1.0991 -1.1627
21141SOL     OW67210   5.089   5.899   8.639  0.1903 -0.0461  0.4369
21141SOL    HW167211   5.136   5.967   8.592 -0.0908 -0.6809 -0.7864
21141SOL    HW267212   5.132   5.895   8.725  0.1702  1.6861  0.5553
21142SOL     OW67213   8.611   5.514   5.596 -0.3398  0.1799 -0.4576
21142SOL    HW167214   8.655   5.438   5.556  0.6030 -0.0691  0.9713
21142SOL    HW267215   8.636   5.588   5.540 -0.0726 -0.3299 -1.0330
21143SOL     OW67216   2.661   6.137   1.966 -0.0420  0.0395  0.1131
21143SOL    HW167217   2.579   6.178   1.995 -1.3739 -1.6194 -1.1440
21143SOL    HW267218   2.661   6.150   1.871  1.3052  0.2120  0.1184
21144SOL     OW67219   2.954   1.272   4.813 -0.6107 -0.1063 -0.5839
21144SOL    HW167220   3.046   1.300   4.806 -0.5083 -0.6049 -1.2742
21144SOL    HW267221   2.906   1.337   4.762 -0.5771 -0.1665 -0.6925
21145SOL     OW67222   1.264   6.722   1.380 -0.2007 -0.1297 -0.3176
21145SOL    HW167223   1.190   6.769   1.420 -0.0595  0.5123 -0.7881
21145SOL    HW267224   1.225   6.645   1.340 -1.1881  1.7733 -3.3490
21146SOL     OW67225   8.728   8.303   3.897 -0.2661  0.0969 -0.2349
21146SOL    HW167226   8.648   8.350   3.874 -0.1281  1.5060  1.8883
21146SOL    HW267227   8.699   8.216   3.922 -0.8432 -0.1308 -1.6035
21147SOL     OW67228   8.814   3.455   8.308 -0.2225 -0.3608 -0.8674
21147SOL    HW167229   8.774   3.533   8.346 -1.5846  0.4332 -3.6647
21147SOL    HW267230   8.904   3.481   8.288 -0.6788  0.5682 -1.8208
21148SOL     OW67231   0.478   5.546   4.924 -0.3344  0.6373  0.3728
21148SOL    HW167232   0.398   5.525   4.875 -0.8381  1.3764  0.8661
21148SOL    HW267233   0.494   5.469   4.979 -0.8338  0.5791  0.4396
21149SOL     OW67234  10.089   2.814   0.054  0.1338  0.3555 -0.4585
21149SOL    HW167235  10.150   2.760   0.104  0.0119 -1.6875 -2.4012
21149SOL    HW267236  10.084   2.772  -0.032 -3.0863  1.1241 -0.7553
21150SOL     OW67237   2.695   4.709   8.057  0.1851  0.0262 -0.2665
21150SOL    HW167238   2.772   4.752   8.020  0.8043 -0.4797  0.4049
21150SOL    HW267239   2.722   4.617   8.067 -0.3416 -0.0623  0.4100
21151SOL     OW67240   2.202   7.501  10.064  0.0600  0.1886 -0.2707
21151SOL    HW167241   2.275   7.444  10.088  0.8899  1.3496  0.0106
21151SOL    HW267242   2.243   7.582  10.033 -1.1012  0.8358 -0.1789
21152SOL     OW67243   5.325   9.070   9.657  0.1881  0.4128  0.1487
21152SOL    HW167244   5.309   9.153   9.703 -1.7170  0.0869  0.1644
21152SOL    HW267245   5.375   9.018   9.719  1.7234  1.6457  0.0121
21153SOL     OW67246   8.434   0.076   8.027  0.3753  0.0413  0.2482
21153SOL    HW167247   8.403   0.144   8.088 -1.3182 -1.3871  1.0583
21153SOL    HW267248   8.485   0.017   8.082 -1.0410 -1.1787  0.3199
21154SOL     OW67249   3.964   8.636   6.031 -0.3099 -0.7984 -0.0975
21154SOL    HW167250   3.991   8.591   5.951  1.3006  1.1258 -0.7342
21154SOL    HW267251   4.046   8.656   6.076 -1.0469  0.2180  0.8503
21155SOL     OW67252   3.423   6.126   5.422 -0.5303  0.0236  0.3042
21155SOL    HW167253   3.507   6.092   5.454 -0.6541 -0.3614  0.2173
21155SOL    HW267254   3.447   6.199   5.365 -0.2020 -0.6998 -0.5077
21156SOL     OW67255   0.951   9.034   2.200 -0.2839  0.1623 -0.1720
21156SOL    HW167256   0.913   8.993   2.123 -0.3596 -0.4984  0.2103
21156SOL    HW267257   0.923   9.125   2.195 -0.1638  0.1636 -1.0022
21157SOL     OW67258   6.529   1.424   3.633  0.4044  0.3691 -0.4602
21157SOL    HW167259   6.434   1.431   3.623  0.3452  0.4203  0.1296
21157SOL    HW267260   6.555   1.507   3.673  0.5115 -0.2032  0.6870
21158SOL     OW67261   6.317   2.785   0.489  0.0409  0.2817 -0.5353
21158SOL    HW167262   6.408   2.794   0.516 -0.0436 -0.0209 -0.1405
21158SOL    HW267263   6.320   2.778   0.394  0.5701 -1.5063 -0.4133
21159SOL     OW67264   2.783   0.133   8.726 -0.1192  0.2382  0.3479
21159SOL    HW167265   2.777   0.200   8.658 -0.1425  0.6650  0.7647
21159SOL    HW267266   2.696   0.093   8.728  0.2505 -0.6730 -0.7650
21160SOL     OW67267   9.395   7.212   1.423  0.3383  0.2895  0.0745
21160SOL    HW167268   9.391   7.300   1.384 -0.5879 -0.5913 -1.9635
21160SOL    HW267269   9.314   7.205   1.473  0.1879  0.4445 -0.1408
21161SOL     OW67270   3.947   4.367   8.419 -0.0719 -0.2370 -0.1010
21161SOL    HW167271   3.991   4.433   8.471 -0.6793 -1.1474  1.6580
21161SOL    HW267272   3.854   4.381   8.436 -0.3415 -0.2118 -1.4226
21162SOL     OW67273   2.338   4.068   0.947  0.0746 -0.6374 -0.5463
21162SOL    HW167274   2.427   4.068   0.912  0.3700 -0.4980  0.1828
21162SOL    HW267275   2.345   4.023   1.032 -0.3934  0.0809 -0.1137
21163SOL     OW67276   5.606   1.437   0.403  0.3509  0.4661  0.1607
21163SOL    HW167277   5.649   1.403   0.481 -2.5245 -0.0993  1.6617
21163SOL    HW267278   5.635   1.380   0.332  1.0656 -0.6568  1.3139
21164SOL     OW67279   1.637   3.396   2.039 -0.5520 -0.4215  0.3758
21164SOL    HW167280   1.604   3.476   1.997  1.6505  0.5898  0.4237
21164SOL    HW267281   1.703   3.363   1.978 -0.3858 -1.3793  1.0579
21165SOL     OW67282   5.450   8.134   4.386  0.1717  0.2919  0.1326
21165SOL    HW167283   5.476   8.067   4.450  1.3189 -0.2552 -0.8553
21165SOL    HW267284   5.518   8.201   4.392 -0.6395  1.0941  0.6738
21166SOL     OW67285   2.276   1.433  10.314  0.2550 -0.5369 -0.3426
21166SOL    HW167286   2.197   1.468  10.355 -0.8429 -2.2161 -0.8970
21166SOL    HW267287   2.343   1.438  10.383 -0.8720 -0.9647  0.8301
21167SOL     OW67288   2.109   6.589   3.642  0.4698  0.4591  0.0179
21167SOL    HW167289   2.196   6.559   3.669 -0.8346 -1.0367  3.0581
21167SOL    HW267290   2.113   6.591   3.547  3.3317 -1.1579 -0.0161
21168SOL     OW67291  10.115   4.608   5.615  0.1290 -0.9976  0.1477
21168SOL    HW167292  10.183   4.638   5.675 -0.5993  1.2280 -0.0149
21168SOL    HW267293  10.143   4.642   5.529  0.6731 -3.3007 -0.6501
21169SOL     OW67294   0.092   6.030   0.845 -0.5551 -0.1300  0.5155
21169SOL    HW167295   0.161   6.052   0.783 -0.7022 -0.4764  0.2278
21169SOL    HW267296   0.125   5.953   0.892 -0.9771 -0.6241  0.0014
21170SOL     OW67297   4.192   2.565  10.321 -0.1776 -0.1345  0.1059
21170SOL    HW167298   4.123   2.597  10.262  0.1966  1.6090  0.5807
21170SOL    HW267299   4.155   2.484  10.358 -1.2302 -0.1842 -0.9884
21171SOL     OW67300   7.604   9.930   2.513 -0.6120  0.2523  0.3210
21171SOL    HW167301   7.526   9.883   2.545 -1.4480  1.4571  0.1213
21171SOL    HW267302   7.619   9.998   2.579  0.6232 -0.2914  0.6363
21172SOL     OW67303   6.674   6.041   6.022 -0.4209  0.3891 -0.4200
21172SOL    HW167304   6.678   6.135   6.037 -0.6180  0.8039 -2.5699
21172SOL    HW267305   6.744   6.023   5.960  2.0721 -1.5945  2.6551
21173SOL     OW67306   4.934   0.053   8.031  0.0431  0.2888  0.9892
21173SOL    HW167307   4.997  -0.010   8.065  0.1821 -0.2106 -0.1369
21173SOL    HW267308   4.852   0.005   8.026  0.2779 -0.0144 -0.4225
21174SOL     OW67309   6.227   6.045   8.806 -0.6652  0.6243 -0.1474
21174SOL    HW167310   6.254   6.132   8.775 -0.2602  0.3056 -0.7257
21174SOL    HW267311   6.257   5.985   8.737 -0.7125 -0.0005  0.3646
21175SOL     OW67312   8.559   8.279   2.823  0.6237  0.4171 -0.1490
21175SOL    HW167313   8.637   8.291   2.768  2.0336 -0.3283  1.6026
21175SOL    HW267314   8.582   8.320   2.906  0.3570 -2.3585  1.4091
21176SOL     OW67315   4.195   4.281   0.777  0.5997 -0.1182 -0.8848
21176SOL    HW167316   4.250   4.278   0.855  0.5771 -1.1088 -0.8974
21176SOL    HW267317   4.114   4.324   0.806  0.4313 -0.8497 -0.2594
21177SOL     OW67318   8.639   8.941   5.459 -0.2527  0.2483 -0.7665
21177SOL    HW167319   8.645   8.942   5.364 -0.1463  1.9019 -0.7666
21177SOL    HW267320   8.556   8.984   5.479 -0.9694 -1.3435 -0.1160
21178SOL     OW67321   7.878   7.130   1.531 -0.5307  0.3434  0.2151
21178SOL    HW167322   7.900   7.104   1.441  0.2049  0.6066  0.3140
21178SOL    HW267323   7.788   7.162   1.526 -0.7793 -0.4016 -0.2742
21179SOL     OW67324   0.379   9.030   5.644  0.4573 -0.0048 -0.7381
21179SOL    HW167325   0.469   9.008   5.669  0.0090  0.0409  1.0132
21179SOL    HW267326   0.389   9.088   5.568  1.8748 -0.3473 -0.8430
21180SOL     OW67327   2.283   0.847   0.111 -0.3364  0.4117 -0.6758
21180SOL    HW167328   2.220   0.916   0.093  0.2960  1.5108  1.0846
21180SOL    HW267329   2.280   0.835   0.206  0.5081 -1.0711 -0.7964
21181SOL     OW67330   5.484   1.837   5.365  0.1067  0.3462  0.2372
21181SOL    HW167331   5.461   1.929   5.352  1.1274  0.3942 -1.6255
21181SOL    HW267332   5.408   1.788   5.335  0.4266  0.5708 -0.9855
21182SOL     OW67333   7.845   7.732   0.783  0.2668  0.9476  0.0581
21182SOL    HW167334   7.882   7.818   0.802 -4.0354  3.1821 -0.5050
21182SOL    HW267335   7.890   7.703   0.703  1.4671  2.8597 -0.0097
21183SOL     OW67336   3.322   5.135   7.651 -0.7175  0.2315  0.4338
21183SOL    HW167337   3.353   5.099   7.567 -2.0832 -1.7018  0.6770
21183SOL    HW267338   3.362   5.222   7.656 -1.0500  0.6628 -2.5008
21184SOL     OW67339   4.005   1.103   0.520 -0.1830 -0.3511 -0.0953
21184SOL    HW167340   4.054   1.078   0.442 -0.1781  0.4901 -0.3683
21184SOL    HW267341   4.058   1.171   0.562 -0.7016 -0.0412  0.0680
21185SOL     OW67342   0.799   1.326   3.288  0.3913 -0.2309 -0.6195
21185SOL    HW167343   0.817   1.406   3.238 -1.1955  0.1907 -0.5425
21185SOL    HW267344   0.704   1.318   3.288  0.5273 -2.4694 -1.1477
21186SOL     OW67345   8.033   3.610   1.957 -0.1608  0.4941  0.2005
21186SOL    HW167346   7.969   3.577   1.895 -0.9450  1.6969  0.3400
21186SOL    HW267347   7.989   3.682   2.002  0.9625  0.7364  0.9691
21187SOL     OW67348   5.368   3.494   9.905  0.2263 -0.3268  0.0794
21187SOL    HW167349   5.341   3.449   9.825 -0.7799 -0.3550  0.4293
21187SOL    HW267350   5.309   3.569   9.912 -1.4810 -1.7722  2.1696
21188SOL     OW67351   0.900   6.349   8.469  0.1396  0.5817 -0.3530
21188SOL    HW167352   0.966   6.281   8.461  0.5400  0.8545  0.5295
21188SOL    HW267353   0.883   6.377   8.379  0.1264 -0.5257 -0.7094
21189SOL     OW67354   1.228   2.656   3.278  0.1310 -0.0009  0.6662
21189SOL    HW167355   1.306   2.650   3.334 -0.4559 -1.5023  1.3680
21189SOL    HW267356   1.155   2.660   3.339 -0.3399  2.9934  0.0540
21190SOL     OW67357   1.640   4.879   5.438 -0.3569  0.2376  0.5167
21190SOL    HW167358   1.581   4.860   5.365 -0.0830 -0.1282  0.3855
21190SOL    HW267359   1.636   4.800   5.492  2.2473 -1.0580 -1.0131
21191SOL     OW67360  10.172   5.296   5.979  0.5592  0.0521 -0.4635
21191SOL    HW167361  10.199   5.355   5.908  0.2447  0.4514 -0.2519
21191SOL    HW267362  10.088   5.262   5.950  0.5631 -0.0007 -0.4120
21192SOL     OW67363   4.257   8.630   9.007 -0.3606  0.3690 -0.4001
21192SOL    HW167364   4.252   8.534   9.011 -0.1675  0.3743  0.0412
21192SOL    HW267365   4.191   8.660   9.069  0.2728  0.5059  0.2235
21193SOL     OW67366   1.038   7.348   9.074  0.2935 -0.2018  0.0301
21193SOL    HW167367   1.073   7.354   8.985 -1.6457 -0.5460 -0.8127
21193SOL    HW267368   1.057   7.259   9.102 -1.6915 -1.1110 -1.2794
21194SOL     OW67369   7.058   6.853   3.374  0.5648  0.7350 -0.0447
21194SOL    HW167370   7.099   6.915   3.435  0.6737  2.0900 -1.4231
21194SOL    HW267371   7.100   6.769   3.393 -0.7777  0.6202  3.0261
21195SOL     OW67372   2.989   8.930   8.167 -0.5165  0.0248  0.0140
21195SOL    HW167373   2.992   9.025   8.158  0.9829  0.1599  1.4775
21195SOL    HW267374   2.985   8.915   8.261 -0.9629 -1.3731 -0.2056
21196SOL     OW67375   2.316   0.215   5.170 -0.0982 -0.5545 -0.2113
21196SOL    HW167376   2.244   0.154   5.156  0.5340 -1.1034 -1.1688
21196SOL    HW267377   2.275   0.302   5.160 -0.6538 -0.8515 -0.5961
21197SOL     OW67378   6.530   7.855   0.666 -0.6090 -0.3218  0.5882
21197SOL    HW167379   6.470   7.836   0.594 -0.1056 -0.3015  0.1615
21197SOL    HW267380   6.509   7.789   0.732 -1.3060 -0.1274  0.5631
21198SOL     OW67381   7.587   8.619   7.940 -0.5081  0.1424 -0.5865
21198SOL    HW167382   7.605   8.613   7.847 -2.3630 -0.3327 -0.9502
21198SOL    HW267383   7.614   8.708   7.964  0.3738  0.1257 -1.4628
21199SOL     OW67384   2.494   3.788   4.056 -0.2231  0.3567  0.5541
21199SOL    HW167385   2.500   3.707   4.107  2.5916  0.7424  0.9812
21199SOL    HW267386   2.539   3.853   4.110 -1.4071  1.9551 -0.3086
21200SOL     OW67387   3.775   4.289   3.957  0.3420  0.0970  0.2106
21200SOL    HW167388   3.810   4.365   4.005  1.1921  0.8446 -1.4734
21200SOL    HW267389   3.726   4.239   4.022 -0.2237  2.0792  1.3904
21201SOL     OW67390   7.402   7.352   7.352 -0.3055  0.2568  0.2391
21201SOL    HW167391   7.333   7.416   7.370 -0.1728  0.1267  1.2471
21201SOL    HW267392   7.422   7.365   7.259 -0.4493  1.5119  0.3617
21202SOL     OW67393   8.555   9.769   8.242 -1.0413 -0.7274 -0.8739
21202SOL    HW167394   8.538   9.784   8.335 -2.1406 -0.3585 -1.1240
21202SOL    HW267395   8.647   9.743   8.238 -1.0645 -1.0391  0.3478
21203SOL     OW67396   4.073   1.018   7.290  0.0896 -0.7847 -0.1395
21203SOL    HW167397   4.123   1.014   7.371 -0.2624  0.5913  0.1575
21203SOL    HW267398   4.133   0.984   7.223  1.3887  0.6639  0.2353
21204SOL     OW67399   9.921   9.063   4.610 -0.2719  0.2471 -0.6409
21204SOL    HW167400   9.857   9.130   4.634  0.8807  0.5840  1.7991
21204SOL    HW267401   9.955   9.092   4.526 -1.0041  1.8152 -0.4331
21205SOL     OW67402  10.310   4.070   7.866 -0.3009  1.1573 -0.7148
21205SOL    HW167403  10.373   4.094   7.935 -0.8936  3.9730 -1.0565
21205SOL    HW267404  10.344   4.111   7.787 -1.3320  0.7154 -1.4070
21206SOL     OW67405   6.348   6.503   4.921  0.0725 -0.5832  0.1758
21206SOL    HW167406   6.363   6.414   4.888  2.7620  0.3720 -1.5119
21206SOL    HW267407   6.383   6.560   4.853 -1.6879  1.8157  1.1545
21207SOL     OW67408   2.051   8.732   9.816  0.6250  1.0438 -0.5860
21207SOL    HW167409   1.958   8.713   9.829  0.8988  0.1461  0.1245
21207SOL    HW267410   2.061   8.733   9.721  0.5639 -2.5570 -0.7718
21208SOL     OW67411   7.059   1.903   6.535 -0.3847  0.2219 -0.1131
21208SOL    HW167412   7.079   1.996   6.523  1.6458 -0.3636 -1.7422
21208SOL    HW267413   7.055   1.891   6.630  0.5407  1.7388  0.1490
21209SOL     OW67414   2.836   2.556   7.578 -0.6294  0.1505  0.0778
21209SOL    HW167415   2.835   2.635   7.632  0.3205  0.1060  0.1884
21209SOL    HW267416   2.919   2.513   7.602 -0.1349  0.1801 -1.5006
21210SOL     OW67417   9.231   0.152   4.627  0.1644  0.6768 -0.1823
21210SOL    HW167418   9.214   0.072   4.676  0.5529  0.3116 -0.6430
21210SOL    HW267419   9.146   0.197   4.624 -0.0385  0.3156  0.1263
21211SOL     OW67420   8.849   9.047   2.570 -0.2938  0.4233  0.0378
21211SOL    HW167421   8.852   8.951   2.567 -1.4157  0.3478  0.8390
21211SOL    HW267422   8.930   9.074   2.527  0.0103 -0.8782 -0.2735
21212SOL     OW67423   9.958   2.905   3.339 -0.2137  0.1620  0.0347
21212SOL    HW167424   9.987   2.855   3.416 -2.6891  0.8602  1.5457
21212SOL    HW267425  10.017   2.980   3.336  1.4492 -1.0750 -0.2838
21213SOL     OW67426   1.533   6.265   0.112 -0.3419  0.3229  0.6160
21213SOL    HW167427   1.619   6.276   0.152  0.3258  1.5434 -1.0481
21213SOL    HW267428   1.483   6.341   0.142  0.0758  1.0990 -0.6188
21214SOL     OW67429   8.505   4.983   3.049  0.3370  0.6065  0.5414
21214SOL    HW167430   8.461   5.043   3.109  1.3664  1.6663  0.2499
21214SOL    HW267431   8.507   5.029   2.965  0.9401  0.0710  0.2544
21215SOL     OW67432   0.734   6.101   1.777 -0.5886 -0.8945  0.0595
21215SOL    HW167433   0.654   6.143   1.745 -1.0811  0.7395  3.1230
21215SOL    HW267434   0.717   6.008   1.767 -1.7041 -0.5550 -1.8845
21216SOL     OW67435   6.258  10.307   6.971 -0.3840  0.1637 -0.0038
21216SOL    HW167436   6.342  10.312   6.925 -0.8625 -1.5220 -1.1908
21216SOL    HW267437   6.276  10.253   7.048 -0.0387  1.2269  0.6807
21217SOL     OW67438   7.322   2.187   9.358  0.0719  0.3188 -0.0063
21217SOL    HW167439   7.272   2.263   9.387  0.2179  0.0794  0.8998
21217SOL    HW267440   7.302   2.119   9.423  0.1121 -0.3516 -0.6827
21218SOL     OW67441   2.727   2.294   4.291  0.4885  0.1983  0.2737
21218SOL    HW167442   2.756   2.205   4.308 -0.0905 -0.0477 -0.0044
21218SOL    HW267443   2.715   2.298   4.196 -1.4298 -0.0525  0.4662
21219SOL     OW67444   9.890   6.335   7.749 -0.4824 -0.3353  0.4186
21219SOL    HW167445   9.923   6.373   7.830  1.2562 -0.2811 -0.2708
21219SOL    HW267446   9.841   6.258   7.777  1.8770 -1.5536  1.4448
21220SOL     OW67447   5.000   7.132   2.398 -0.3768  0.7223 -0.5212
21220SOL    HW167448   5.025   7.198   2.462 -0.5835  1.4919 -1.2148
21220SOL    HW267449   4.904   7.136   2.394 -0.3892  0.4174 -0.5998
21221SOL     OW67450   8.714   3.066   3.629 -0.0735 -0.2084  0.5115
21221SOL    HW167451   8.751   3.064   3.717  1.5483  0.3698 -0.1261
21221SOL    HW267452   8.786   3.037   3.573 -1.0867 -0.5611 -0.6280
21222SOL     OW67453   3.550   9.597   3.793  0.1092  0.3969 -0.4526
21222SOL    HW167454   3.463   9.565   3.819 -0.1090 -1.1871 -2.7896
21222SOL    HW267455   3.597   9.519   3.766  1.9628  1.3601 -0.1733
21223SOL     OW67456   0.872   5.596   1.697 -0.4775 -0.2170 -0.0978
21223SOL    HW167457   0.923   5.592   1.777 -1.7457 -1.9446  0.6966
21223SOL    HW267458   0.874   5.507   1.663  0.1186  0.5051 -2.0802
21224SOL     OW67459   1.112   6.305   8.161 -0.1365 -0.5226  0.0642
21224SOL    HW167460   1.138   6.394   8.184 -3.6312  1.0017 -1.2901
21224SOL    HW267461   1.122   6.300   8.066  0.6220 -1.8358  0.1882
21225SOL     OW67462   6.959   5.801   2.236  0.1763  0.0469  0.4505
21225SOL    HW167463   6.905   5.839   2.305 -0.9831  0.3674 -0.6193
21225SOL    HW267464   6.900   5.744   2.187  0.8449  0.2698 -0.6350
21226SOL     OW67465   9.427   3.209   6.313  0.5055  0.2836  0.6033
21226SOL    HW167466   9.462   3.127   6.278 -1.4775 -0.9347  1.2832
21226SOL    HW267467   9.379   3.247   6.240  0.2293  0.0957  0.6850
21227SOL     OW67468   7.051   8.222   3.489 -0.2133 -0.3193 -0.6321
21227SOL    HW167469   7.033   8.128   3.481 -1.1734 -0.1647 -0.4670
21227SOL    HW267470   6.974   8.264   3.449 -0.2327  0.4002  0.1466
21228SOL     OW67471   3.578   1.730   9.843 -0.1649  0.0524 -0.0824
21228SOL    HW167472   3.494   1.695   9.869 -0.2369 -0.0863 -0.4903
21228SOL    HW267473   3.640   1.696   9.907 -0.4721  0.4367  0.4219
21229SOL     OW67474   9.730   1.521   5.828 -0.1990  0.3830  0.3960
21229SOL    HW167475   9.723   1.514   5.924 -0.8691 -1.7389  0.2522
21229SOL    HW267476   9.639   1.528   5.798 -0.0905 -0.4050 -0.1387
21230SOL     OW67477   8.923   4.507   3.624  0.5336  0.3107  0.3155
21230SOL    HW167478   8.983   4.562   3.574  1.4303 -0.4023  0.5773
21230SOL    HW267479   8.979   4.441   3.664 -0.4856 -0.6340  0.2255
21231SOL     OW67480   3.115   1.162   6.389  0.1600  0.0066 -0.2303
21231SOL    HW167481   3.077   1.247   6.413 -0.4501  0.6944 -3.2462
21231SOL    HW267482   3.104   1.157   6.294  1.1723 -3.0011 -0.2801
21232SOL     OW67483   3.468   0.682   6.836 -0.7714  0.3721 -0.0297
21232SOL    HW167484   3.465   0.700   6.930 -2.9783 -0.4295  0.1234
21232SOL    HW267485   3.424   0.758   6.797 -2.6937 -0.7126 -0.0896
21233SOL     OW67486   9.982  10.327   4.639  0.3944 -0.1365 -0.5281
21233SOL    HW167487   9.927  10.385   4.585 -0.1666 -0.5911 -0.4571
21233SOL    HW267488   9.975  10.241   4.596  0.1973 -0.4325  0.0916
21234SOL     OW67489   7.701   5.434   2.165 -0.3854 -0.9568  0.3895
21234SOL    HW167490   7.787   5.419   2.126 -0.6269 -2.3333  0.3338
21234SOL    HW267491   7.646   5.362   2.132 -1.4904 -0.2574  0.6281
21235SOL     OW67492   0.383   8.531   7.900 -0.2259 -0.0418 -0.2778
21235SOL    HW167493   0.290   8.525   7.879  0.0656  0.7373 -1.9210
21235SOL    HW267494   0.426   8.476   7.835  0.5561  0.6944 -0.4020
21236SOL     OW67495   5.540   3.419  10.212  0.2509 -0.4445  0.2066
21236SOL    HW167496   5.589   3.500  10.225 -1.1151  0.9694 -2.5046
21236SOL    HW267497   5.474   3.442  10.145 -0.1493 -3.8076 -0.7212
21237SOL     OW67498   5.426   2.538   0.314  0.3449 -0.1804 -0.2125
21237SOL    HW167499   5.337   2.530   0.279 -0.7196  3.1441  1.2863
21237SOL    HW267500   5.471   2.594   0.251  0.9568 -0.7251 -0.2637
21238SOL     OW67501   1.348   5.168   6.021 -0.6228  0.3067  0.5564
21238SOL    HW167502   1.390   5.082   6.020  0.6037  0.8729  1.0769
21238SOL    HW267503   1.305   5.174   5.936 -1.0140 -0.9473  0.6378
21239SOL     OW67504   8.773   6.349   2.141  0.0830  0.0240 -0.2914
21239SOL    HW167505   8.746   6.267   2.182  1.2299 -1.6571 -2.6482
21239SOL    HW267506   8.716   6.356   2.064  1.2909  0.4036 -1.1697
21240SOL     OW67507   2.544   1.071   7.743  0.1534  0.0630  0.1438
21240SOL    HW167508   2.554   1.162   7.771  0.6479 -0.1468  0.6760
21240SOL    HW267509   2.503   1.077   7.657  2.3387  0.9081 -0.9366
21241SOL     OW67510   9.198   9.194   0.144  0.3161  0.2481 -0.2760
21241SOL    HW167511   9.181   9.248   0.067  0.5383  0.5722 -0.0989
21241SOL    HW267512   9.288   9.214   0.169  0.0370  0.6390  0.4541
21242SOL     OW67513   0.115   4.877   9.382 -0.1749 -0.0259 -0.1511
21242SOL    HW167514   0.051   4.945   9.361  1.3239  0.6256 -3.2302
21242SOL    HW267515   0.151   4.903   9.467 -0.6577  2.2812 -0.5767
21243SOL     OW67516   4.956   2.020   2.577  0.1253  0.0966  0.0576
21243SOL    HW167517   5.025   2.071   2.619  0.7864  0.9032 -1.9271
21243SOL    HW267518   4.986   1.929   2.585  0.5589  0.2848  0.7023
21244SOL     OW67519   9.499   3.355   0.827 -0.2602  0.3815  0.4479
21244SOL    HW167520   9.443   3.340   0.903  0.3548  1.9358  1.2467
21244SOL    HW267521   9.570   3.411   0.859  0.7584 -0.0265 -0.9657
21245SOL     OW67522   3.952   2.959   1.935  0.2123  0.6819  0.6350
21245SOL    HW167523   3.980   2.938   1.846 -0.0617 -0.8848  0.9004
21245SOL    HW267524   3.936   3.054   1.933  2.6239  1.1198 -0.2859
21246SOL     OW67525   9.034   9.560   6.623 -0.0705 -0.0587 -0.1903
21246SOL    HW167526   9.123   9.585   6.648 -0.4727 -0.5240  1.9455
21246SOL    HW267527   8.983   9.572   6.703 -1.6311 -1.1512 -0.9757
21247SOL     OW67528   1.581   7.414   7.205  0.2039  0.1357  0.4323
21247SOL    HW167529   1.670   7.446   7.190 -0.0887  1.1378  0.8022
21247SOL    HW267530   1.554   7.377   7.121  1.4255 -1.3602  0.6357
21248SOL     OW67531  10.165   7.443   1.232 -0.4225  0.2549  0.0801
21248SOL    HW167532  10.240   7.501   1.227  0.8429 -1.1883  1.3085
21248SOL    HW267533  10.095   7.498   1.268 -0.0493  1.6633 -1.2310
21249SOL     OW67534   0.963   2.067   9.907  0.4357  0.0799 -0.1876
21249SOL    HW167535   0.979   2.152   9.866  0.4456  1.0206  1.6915
21249SOL    HW267536   1.036   2.012   9.877  2.0105  1.5630  0.7660
21250SOL     OW67537   0.278   3.356   4.974  0.3567 -0.1380 -0.9784
21250SOL    HW167538   0.331   3.432   4.996  0.0628  0.4456 -2.1625
21250SOL    HW267539   0.320   3.319   4.897  0.6206 -1.3216 -0.2796
21251SOL     OW67540   3.852   0.682   6.176  0.5674 -0.0979  0.3958
21251SOL    HW167541   3.915   0.633   6.123  0.3839  0.6015 -0.4930
21251SOL    HW267542   3.896   0.697   6.259  0.4708 -2.1344  0.8572
21252SOL     OW67543   7.721   8.063   9.417 -0.1953 -0.2533 -0.5730
21252SOL    HW167544   7.668   8.007   9.473  0.1440  0.2799  0.3138
21252SOL    HW267545   7.798   8.010   9.395 -0.6312 -0.6872 -1.0721
21253SOL     OW67546   8.486   1.040   8.924 -0.1535  0.0682  0.1193
21253SOL    HW167547   8.521   1.059   9.011  0.0471  2.6036 -0.4461
21253SOL    HW267548   8.423   1.110   8.907 -0.3454 -0.4847 -1.6977
21254SOL     OW67549   9.587   9.003   6.645 -0.7101  0.0719 -0.0241
21254SOL    HW167550   9.609   9.090   6.678  0.6659  0.0578 -0.8431
21254SOL    HW267551   9.671   8.960   6.632 -1.3700 -1.5084  0.6285
21255SOL     OW67552   4.521   4.002   4.310 -0.4200  0.4859 -0.2919
21255SOL    HW167553   4.527   4.082   4.258  0.3979  0.9733  0.5209
21255SOL    HW267554   4.463   3.945   4.260 -0.5221  1.3519 -1.1883
21256SOL     OW67555   7.638   1.717   0.159 -0.6094 -0.1390  0.0814
21256SOL    HW167556   7.626   1.806   0.127 -1.9613 -0.6592 -0.9292
21256SOL    HW267557   7.656   1.727   0.252 -0.2684  1.2073 -0.1153
21257SOL     OW67558   9.892   2.883   4.475  0.3065  0.4898 -0.7135
21257SOL    HW167559   9.911   2.798   4.437  0.5384 -0.2520  0.9862
21257SOL    HW267560   9.797   2.885   4.483  0.3798 -0.2254  0.5468
21258SOL     OW67561   3.666   0.461   9.803  0.6221 -0.8207  0.5749
21258SOL    HW167562   3.620   0.543   9.820  0.0393 -0.7590 -1.1263
21258SOL    HW267563   3.615   0.394   9.850 -0.3894 -0.5475 -0.0957
21259SOL     OW67564   1.414   2.286   7.307  0.4019  0.0036  0.1298
21259SOL    HW167565   1.502   2.271   7.342  0.6454  0.8182 -0.1078
21259SOL    HW267566   1.422   2.267   7.213  0.6255  1.1507 -0.1076
21260SOL     OW67567   6.347   0.821  10.130 -0.0603 -0.2654 -0.3001
21260SOL    HW167568   6.395   0.887  10.181  0.5038 -0.7317 -0.2045
21260SOL    HW267569   6.393   0.739  10.150 -2.1636 -1.0993  1.4331
21261SOL     OW67570   3.676   9.015  10.097  0.5307 -0.1918  0.2127
21261SOL    HW167571   3.759   9.063  10.105  0.0323  0.5086  1.3727
21261SOL    HW267572   3.622   9.070  10.041  0.5704 -0.2559  0.1113
21262SOL     OW67573   1.881   6.076   0.563  0.0728  0.6276  0.2416
21262SOL    HW167574   1.832   6.094   0.643  0.6141  1.7648  0.3375
21262SOL    HW267575   1.828   6.115   0.493 -1.0955 -1.5362 -0.1832
21263SOL     OW67576  10.262   8.198   2.923  0.1764 -0.4436  0.0755
21263SOL    HW167577  10.243   8.183   3.015  0.8094  1.1036  0.4977
21263SOL    HW267578  10.357   8.209   2.919  0.5589 -3.2441 -1.2340
21264SOL     OW67579   6.128   6.458   1.557  0.3901 -0.4333  0.0570
21264SOL    HW167580   6.126   6.404   1.478  1.8592 -1.9018  0.9642
21264SOL    HW267581   6.088   6.403   1.624  0.0919  0.4098  0.5870
21265SOL     OW67582   3.699   4.390   0.142 -0.3154  0.2928 -0.2790
21265SOL    HW167583   3.734   4.347   0.220 -0.4863 -0.7122 -0.7388
21265SOL    HW267584   3.629   4.447   0.175 -1.1723 -0.9891  0.2068
21266SOL     OW67585   5.078   2.955   6.515 -0.1000 -0.3865 -0.1407
21266SOL    HW167586   5.071   2.897   6.592  0.4958  0.5619  0.6539
21266SOL    HW267587   5.013   2.921   6.454 -0.8467 -0.9528  0.9245
21267SOL     OW67588   7.835   1.455   1.196 -0.4607 -0.3193  0.1235
21267SOL    HW167589   7.759   1.506   1.225  0.3549  1.5929 -0.9578
21267SOL    HW267590   7.910   1.498   1.237  0.2133 -1.0250 -0.3465
21268SOL     OW67591   1.621   3.786   9.764  0.3640  0.4879 -0.0301
21268SOL    HW167592   1.595   3.730   9.837  1.3570  1.1958  0.8948
21268SOL    HW267593   1.554   3.854   9.759  0.2950  0.4366  0.2149
21269SOL     OW67594   5.923   6.349   2.038 -0.4001 -0.4185 -0.3018
21269SOL    HW167595   5.864   6.408   1.991 -0.2525 -0.2144 -0.2327
21269SOL    HW267596   5.868   6.276   2.064 -1.2866  0.9743  2.1020
21270SOL     OW67597   3.160   4.533   6.415 -0.0378 -0.3447  0.3373
21270SOL    HW167598   3.069   4.557   6.398 -0.4488 -2.2115 -0.3241
21270SOL    HW267599   3.211   4.602   6.372 -1.1269  0.5557  0.4563
21271SOL     OW67600   4.741   0.611   5.628  0.1313  0.7175 -0.5217
21271SOL    HW167601   4.781   0.531   5.662 -1.2852 -0.0271 -0.5313
21271SOL    HW267602   4.816   0.668   5.607  1.1466 -0.3479  0.0649
21272SOL     OW67603   4.095   8.137   1.683 -0.1946  0.1002 -0.0196
21272SOL    HW167604   4.046   8.063   1.721  0.0372  0.1691  0.4266
21272SOL    HW267605   4.061   8.214   1.729  0.7111  0.0909  0.6991
21273SOL     OW67606   0.923   2.558   5.456 -0.2331  0.3227 -0.1070
21273SOL    HW167607   0.978   2.627   5.493 -1.1477  0.6771  0.6146
21273SOL    HW267608   0.834   2.581   5.481 -0.6168 -0.8302 -0.3199
21274SOL     OW67609   3.605   7.783   0.578  0.0162 -0.1074  0.3108
21274SOL    HW167610   3.512   7.788   0.599  0.1044  1.4250  0.4941
21274SOL    HW267611   3.648   7.824   0.653  0.8512 -0.7753  0.2194
21275SOL     OW67612   9.942   4.165   5.069  0.6310  0.0798 -0.0866
21275SOL    HW167613   9.891   4.090   5.039 -0.5643  0.6871  0.3671
21275SOL    HW267614   9.950   4.221   4.992  0.3726  0.1127 -0.0897
21276SOL     OW67615   9.161   2.444   3.424  0.3263  0.0070  0.4144
21276SOL    HW167616   9.144   2.449   3.330 -1.5761 -2.3798  0.5060
21276SOL    HW267617   9.238   2.388   3.432  0.6143  0.3831  0.2765
21277SOL     OW67618   7.546   3.722   0.968 -0.4401 -0.2448 -0.4990
21277SOL    HW167619   7.623   3.680   0.931 -1.0146 -1.0180 -0.8393
21277SOL    HW267620   7.577   3.806   1.000 -0.1784  1.1502 -4.0007
21278SOL     OW67621   8.448   0.399   8.230  0.2563 -0.0330  0.7819
21278SOL    HW167622   8.475   0.489   8.250 -0.8069  0.8223 -1.2954
21278SOL    HW267623   8.353   0.399   8.243  0.2807 -0.9354  1.0045
21279SOL     OW67624   2.801   8.768   9.013 -0.3816 -0.1548  0.1840
21279SOL    HW167625   2.894   8.762   8.989 -0.7575  0.0222 -1.3872
21279SOL    HW267626   2.799   8.740   9.105  0.9770 -2.0219 -0.2826
21280SOL     OW67627   5.338   8.187   1.601 -0.0655  0.1347  0.0897
21280SOL    HW167628   5.430   8.202   1.626  0.1794 -0.1639 -0.6263
21280SOL    HW267629   5.304   8.275   1.583  0.1208  0.2306  0.2007
21281SOL     OW67630   3.112   3.879   3.692 -0.7024 -0.0798 -0.3109
21281SOL    HW167631   3.104   3.885   3.597  0.5262 -3.4701 -0.7316
21281SOL    HW267632   3.056   3.805   3.716 -0.3864  0.2438  1.5347
21282SOL     OW67633   3.326  10.006   7.459 -0.2141 -0.0302 -0.2204
21282SOL    HW167634   3.372   9.923   7.472  1.1061  0.6181 -0.5786
21282SOL    HW267635   3.336  10.052   7.542 -3.5593 -1.3672  1.1205
21283SOL     OW67636   5.460   9.952   9.331 -0.4594 -0.5471 -0.7267
21283SOL    HW167637   5.431   9.883   9.390  0.8374 -1.5604 -1.2290
21283SOL    HW267638   5.399   9.949   9.258  0.1729 -1.8647 -1.2245
21284SOL     OW67639   7.094   1.063   8.085 -0.2176  0.2592  0.5222
21284SOL    HW167640   7.034   1.133   8.110 -0.0166  1.3136 -1.7031
21284SOL    HW267641   7.174   1.109   8.058  0.6013 -0.9493  0.8177
21285SOL     OW67642   9.293   6.575   0.333 -0.3651 -0.2291 -0.2546
21285SOL    HW167643   9.332   6.538   0.254  0.7579 -1.3203  0.7681
21285SOL    HW267644   9.336   6.660   0.344  1.6774 -1.2941  0.7067
21286SOL     OW67645   0.799   1.094   6.275 -0.1619 -0.2806 -0.1875
21286SOL    HW167646   0.776   1.186   6.267 -1.1451 -0.4546  0.4770
21286SOL    HW267647   0.782   1.057   6.188  0.9172  0.2819 -0.6662
21287SOL     OW67648   4.716  10.263   1.409  0.0677  0.8262  0.5056
21287SOL    HW167649   4.676  10.296   1.490 -0.6770 -0.6179  0.7562
21287SOL    HW267650   4.766  10.186   1.437  0.5152  0.8150 -0.2983
21288SOL     OW67651   1.459   0.854   0.992 -0.1386  0.0944  0.2650
21288SOL    HW167652   1.386   0.879   1.048  0.0335  0.7074  0.2239
21288SOL    HW267653   1.467   0.759   1.003 -0.0491  0.2129  1.3474
21289SOL     OW67654   6.835   1.139   7.237 -0.0329  0.3059 -0.0171
21289SOL    HW167655   6.881   1.189   7.305  1.7142  0.2487 -1.0915
21289SOL    HW267656   6.812   1.057   7.280  0.6768  0.4387  0.6438
21290SOL     OW67657   7.018   8.088   7.812  0.0831 -0.0292 -0.2884
21290SOL    HW167658   6.950   8.110   7.876  0.1379 -0.2737 -0.1451
21290SOL    HW267659   7.039   8.171   7.770 -1.8701 -0.2502 -1.8850
21291SOL     OW67660   2.020   6.241   8.820  0.5440 -0.0358  0.0906
21291SOL    HW167661   2.077   6.207   8.751 -0.1812  0.0379 -0.5638
21291SOL    HW267662   2.006   6.167   8.878  0.5749 -0.3068 -0.2452
21292SOL     OW67663   4.841  10.072   6.936 -0.3657 -0.3806  0.2547
21292SOL    HW167664   4.881  10.022   6.865  0.8701 -1.5860  1.7587
21292SOL    HW267665   4.908  10.135   6.962 -0.4668 -0.5726  0.9827
21293SOL     OW67666   2.686   6.923   1.744  0.3456 -0.4094  0.3612
21293SOL    HW167667   2.605   6.952   1.785  0.6312 -0.0048  0.6467
21293SOL    HW267668   2.681   6.957   1.654  0.3595 -0.0814  0.4843
21294SOL     OW67669   5.538   6.580   3.912  0.7640  0.0042 -0.3463
21294SOL    HW167670   5.625   6.596   3.948  1.3540  0.3918 -1.8643
21294SOL    HW267671   5.488   6.658   3.934  0.3272 -0.8041  1.7662
21295SOL     OW67672   4.363   5.262   1.335 -0.0875 -0.6513  0.0996
21295SOL    HW167673   4.372   5.288   1.426 -0.2709 -3.2566  0.9411
21295SOL    HW267674   4.304   5.186   1.337 -1.6681  0.3733 -2.4183
21296SOL     OW67675   1.515   3.398   2.505 -0.0278  0.0709  0.4445
21296SOL    HW167676   1.533   3.322   2.449 -1.3170  1.2894 -1.7497
21296SOL    HW267677   1.582   3.462   2.480 -0.9650  0.8364 -0.1680
21297SOL     OW67678   7.576   0.403   2.908 -0.2486  0.1526 -0.3330
21297SOL    HW167679   7.579   0.314   2.872 -0.0428  0.5328 -1.2759
21297SOL    HW267680   7.484   0.416   2.932 -0.0981 -0.6698  0.7467
21298SOL     OW67681   8.856   4.156   1.395  0.1157 -0.1823  0.0511
21298SOL    HW167682   8.826   4.243   1.370 -0.4345 -0.7820 -1.5192
21298SOL    HW267683   8.776   4.106   1.408  0.4223 -0.3660  1.3249
21299SOL     OW67684   6.886   8.698   8.290  0.2616  0.0873  0.5003
21299SOL    HW167685   6.887   8.730   8.380 -0.4010  1.2805  0.1014
21299SOL    HW267686   6.918   8.608   8.297 -0.3504 -0.0499  1.9977
21300SOL     OW67687   5.929   4.118   5.956 -0.5824  0.1839  0.2723
21300SOL    HW167688   5.857   4.144   5.898 -1.6412 -0.7683  1.1140
21300SOL    HW267689   5.982   4.058   5.903 -2.5740 -2.1682  0.7976
21301SOL     OW67690   0.355   4.919   1.805  0.3441 -0.1660 -0.2427
21301SOL    HW167691   0.361   5.014   1.821 -0.2303 -0.0552 -0.6552
21301SOL    HW267692   0.316   4.883   1.884 -0.7505  0.1289 -0.6419
21302SOL     OW67693   8.055   8.214   5.641 -0.8368  0.1713 -0.5015
21302SOL    HW167694   8.094   8.259   5.715  0.6161 -1.7412 -0.0107
21302SOL    HW267695   7.982   8.165   5.678 -1.7610  1.2482 -0.8459
21303SOL     OW67696   2.713   7.061   9.669  0.2292  0.2021 -0.0455
21303SOL    HW167697   2.650   7.128   9.641  0.8015  1.3031  1.2045
21303SOL    HW267698   2.757   7.034   9.588 -1.1576  0.1087 -0.8008
21304SOL     OW67699   3.319   1.328  10.147 -0.2604 -0.1459  0.6316
21304SOL    HW167700   3.364   1.378  10.079  1.0100 -1.2783  0.5846
21304SOL    HW267701   3.289   1.393  10.210  2.0571  0.6556  1.0064
21305SOL     OW67702   3.371   3.647   6.533  0.2270  0.2558  0.1234
21305SOL    HW167703   3.333   3.685   6.612 -0.2643  1.6614 -0.7515
21305SOL    HW267704   3.376   3.554   6.552 -1.6524  0.3044  1.1004
21306SOL     OW67705   9.547   6.089   2.482  0.2809  0.1404  0.0429
21306SOL    HW167706   9.638   6.092   2.512 -0.4854  1.3232  2.5163
21306SOL    HW267707   9.531   6.175   2.444  0.5084 -0.4845 -1.5228
21307SOL     OW67708   0.181   0.889   0.669  0.6900  0.0785 -0.2790
21307SOL    HW167709   0.095   0.925   0.688  0.9515  0.6532 -0.1419
21307SOL    HW267710   0.164   0.802   0.633  0.1182 -0.4683  1.2175
21308SOL     OW67711   3.781   8.764   3.023 -0.0331 -0.3181  0.1787
21308SOL    HW167712   3.872   8.769   3.051 -0.0432 -1.5015  0.4735
21308SOL    HW267713   3.740   8.843   3.057  0.5059 -0.5768  1.4898
21309SOL     OW67714   6.533   5.158  10.191 -0.1454 -0.6042 -0.1706
21309SOL    HW167715   6.601   5.204  10.240  1.3560 -2.8852  0.0694
21309SOL    HW267716   6.452   5.178  10.238  0.8297 -0.3591  1.5174
21310SOL     OW67717   4.835   1.399  10.130 -0.8025 -0.1120 -0.2806
21310SOL    HW167718   4.763   1.458  10.108  0.4330  1.4763 -0.2048
21310SOL    HW267719   4.883   1.443  10.200 -1.9901 -2.9747  2.6177
21311SOL     OW67720   3.624   8.160   4.406 -0.7493 -0.2595 -0.1593
21311SOL    HW167721   3.670   8.076   4.412 -0.9409 -0.3828 -0.3605
21311SOL    HW267722   3.534   8.135   4.384 -0.4778  0.0680 -1.7313
21312SOL     OW67723   2.242   7.603   6.157  0.6160 -0.0461 -0.7072
21312SOL    HW167724   2.264   7.579   6.066 -0.7994 -0.3323 -0.9930
21312SOL    HW267725   2.232   7.519   6.202 -1.1280  0.0190 -0.9120
21313SOL     OW67726   0.638   1.706   9.895 -0.1453 -0.0595  0.2552
21313SOL    HW167727   0.565   1.752   9.855 -1.4015 -1.2197  1.1525
21313SOL    HW267728   0.617   1.614   9.887 -0.3434 -0.3876  3.2466
21314SOL     OW67729   4.279   5.514   8.566 -0.2171  0.4570 -0.4696
21314SOL    HW167730   4.348   5.526   8.501  0.9351 -1.4192  0.3230
21314SOL    HW267731   4.207   5.472   8.518 -0.5773  1.8253 -1.1567
21315SOL     OW67732   7.383   6.846   8.226 -0.0208  0.1189 -0.1642
21315SOL    HW167733   7.330   6.771   8.198 -0.4317 -0.6331  2.3263
21315SOL    HW267734   7.432   6.872   8.149 -0.7284 -2.0032 -1.3949
21316SOL     OW67735   8.790   7.150   3.604  0.4989 -0.1094  0.0731
21316SOL    HW167736   8.868   7.102   3.631 -0.6288 -1.1042  1.7854
21316SOL    HW267737   8.731   7.082   3.571  0.6902  0.7444 -2.2107
21317SOL     OW67738   4.008   2.656   5.065  0.3445 -0.0787 -0.1250
21317SOL    HW167739   4.037   2.567   5.048  0.7345 -0.5468  2.5479
21317SOL    HW267740   4.088   2.702   5.093  0.0251  0.9361 -0.8394
21318SOL     OW67741   8.995   3.655   4.293  0.3183  0.1880  0.1374
21318SOL    HW167742   8.952   3.570   4.293 -1.0809  0.8799  0.1601
21318SOL    HW267743   9.074   3.641   4.240  0.9444 -1.4925  1.4210
21319SOL     OW67744   1.354   9.382   7.666 -0.0923  0.3385 -0.0554
21319SOL    HW167745   1.327   9.309   7.722  0.4160 -0.7085 -1.1339
21319SOL    HW267746   1.443   9.361   7.639 -0.6729  0.2266 -2.1109
21320SOL     OW67747   5.212   8.795   3.003  0.1104 -0.1076  0.2644
21320SOL    HW167748   5.281   8.803   2.937 -1.1046  2.3007 -0.8491
21320SOL    HW267749   5.257   8.762   3.081  2.2335  0.0484 -0.8199
21321SOL     OW67750  10.100   4.012   3.836 -0.3321 -0.1833  0.4630
21321SOL    HW167751  10.117   3.953   3.762  0.6619  0.4216  0.1882
21321SOL    HW267752  10.054   3.958   3.900  1.0960 -1.4303  0.4738
21322SOL     OW67753   7.948   9.397   3.152 -0.3185 -0.1051 -0.4260
21322SOL    HW167754   7.886   9.351   3.095 -1.1003 -0.7347  0.8940
21322SOL    HW267755   7.893   9.455   3.205  0.1362 -1.0174  1.0925
21323SOL     OW67756   7.540   1.415   4.719 -0.6579 -0.2091  0.1603
21323SOL    HW167757   7.624   1.392   4.758 -0.6159 -1.6992 -0.7646
21323SOL    HW267758   7.549   1.508   4.697  1.3360 -0.7059 -1.3714
21324SOL     OW67759   3.448   5.811   9.771 -0.4436 -0.0024  0.1812
21324SOL    HW167760   3.533   5.778   9.800  0.0360 -0.4292 -1.5959
21324SOL    HW267761   3.384   5.765   9.825  0.3264 -2.0739 -0.5801
21325SOL     OW67762   0.056   3.704   3.500 -0.0797 -0.1487  0.1111
21325SOL    HW167763   0.001   3.663   3.433 -0.9663  0.9131  0.1541
21325SOL    HW267764   0.070   3.793   3.467  0.0933  0.1532  0.9839
21326SOL     OW67765   0.587   2.266   0.207 -0.0083  0.0387 -0.7147
21326SOL    HW167766   0.657   2.267   0.141  1.9997  1.0461  1.2940
21326SOL    HW267767   0.591   2.179   0.245  2.1623  0.9130  1.2829
21327SOL     OW67768   8.382   3.087   4.555  0.2507  0.3961  0.4137
21327SOL    HW167769   8.457   3.079   4.496 -0.2824 -1.9565 -0.0551
21327SOL    HW267770   8.419   3.125   4.635  2.2630 -1.6583  0.6003
21328SOL     OW67771   9.953   7.317   7.266  0.0006 -0.0671 -0.5143
21328SOL    HW167772  10.040   7.336   7.300 -0.5845  1.9124  0.0728
21328SOL    HW267773   9.965   7.306   7.172  1.0591 -1.2593 -0.2573
21329SOL     OW67774   8.939   0.248   4.956  0.1923  0.1837 -0.2075
21329SOL    HW167775   9.032   0.242   4.937  0.5435  0.2884  1.3851
21329SOL    HW267776   8.931   0.322   5.016 -0.7170 -0.7127  0.8323
21330SOL     OW67777   7.527   9.706   9.370  0.1005 -0.0526  0.1026
21330SOL    HW167778   7.455   9.767   9.357  0.1229  0.3751  1.7585
21330SOL    HW267779   7.605   9.760   9.368  0.2516 -0.2733 -0.0414
21331SOL     OW67780   7.844   2.700   9.304  0.2809 -0.9913  0.0040
21331SOL    HW167781   7.819   2.685   9.213 -0.0180 -1.3348  0.1423
21331SOL    HW267782   7.764   2.686   9.354  0.1552  0.3718  0.2171
21332SOL     OW67783   0.467   2.164   1.674 -0.5083 -0.2074  0.4528
21332SOL    HW167784   0.481   2.156   1.768 -0.7989 -0.0534  0.5107
21332SOL    HW267785   0.454   2.074   1.643  0.8896 -0.3886  0.3478
21333SOL     OW67786   1.157   6.915   4.791  0.1434 -0.4031  0.1993
21333SOL    HW167787   1.176   6.956   4.707 -0.4398 -1.2250 -0.3567
21333SOL    HW267788   1.068   6.946   4.813  0.6633  0.5773  1.0058
21334SOL     OW67789   8.117   9.925   7.316 -0.1931 -0.3740 -0.5112
21334SOL    HW167790   8.086  10.002   7.364 -1.3903 -1.4263  0.4526
21334SOL    HW267791   8.208   9.947   7.293 -0.6378  1.4946 -0.6610
21335SOL     OW67792   6.928   0.513   6.297 -0.0042 -0.2877  0.1162
21335SOL    HW167793   6.880   0.509   6.214 -1.3627 -0.4925  0.8726
21335SOL    HW267794   6.991   0.441   6.292  2.2467  1.6677 -2.0422
21336SOL     OW67795   5.824   5.329   9.513  0.1188  0.3979  0.6237
21336SOL    HW167796   5.876   5.293   9.584 -0.1630 -1.3916 -0.0282
21336SOL    HW267797   5.796   5.416   9.544  1.7323  0.5199  1.8050
21337SOL     OW67798   6.869   5.672   5.664 -0.4900  0.0858 -0.1197
21337SOL    HW167799   6.961   5.681   5.639 -0.6854 -0.8123 -1.2342
21337SOL    HW267800   6.860   5.582   5.694 -0.4252  0.9258  2.7025
21338SOL     OW67801   5.932   3.287   6.888 -0.0526 -0.5579  0.0579
21338SOL    HW167802   5.863   3.249   6.943 -0.0751  0.1342  0.5111
21338SOL    HW267803   5.886   3.344   6.828  0.1305 -0.0131  0.4302
21339SOL     OW67804   2.983   3.160   9.194 -0.3169 -0.4545  0.0739
21339SOL    HW167805   3.064   3.110   9.190  1.3554  2.1426 -0.7376
21339SOL    HW267806   3.005   3.238   9.245 -1.9164  0.9311 -1.2433
21340SOL     OW67807   3.129   3.360   7.098  0.7159  0.5668 -0.2202
21340SOL    HW167808   3.108   3.369   7.191 -0.2026 -1.1346 -0.2288
21340SOL    HW267809   3.044   3.358   7.054  1.1144  0.2870 -0.9966
21341SOL     OW67810   1.811   8.183   6.789  0.7934 -0.2910  0.0160
21341SOL    HW167811   1.856   8.103   6.815 -0.5931 -1.3670 -0.7226
21341SOL    HW267812   1.805   8.235   6.869  2.7265 -0.3816  0.2592
21342SOL     OW67813   9.533   6.964   8.232 -0.3327 -0.7311 -0.1261
21342SOL    HW167814   9.453   6.963   8.180 -0.3752  0.6407 -0.1104
21342SOL    HW267815   9.593   7.019   8.183  0.5864 -1.6555 -0.0833
21343SOL     OW67816   4.585   9.964  10.104  0.3708 -0.2553  0.3094
21343SOL    HW167817   4.679   9.964  10.086  0.4181  2.0400  0.2585
21343SOL    HW267818   4.578   9.960  10.199  0.4714 -1.1996  0.2858
21344SOL     OW67819   2.542   1.396   1.192 -0.7834  0.1547  0.4482
21344SOL    HW167820   2.481   1.441   1.251 -0.5318  1.9675 -0.6061
21344SOL    HW267821   2.486   1.340   1.138 -1.0333 -1.4159  2.2351
21345SOL     OW67822   1.063   8.269   9.244  0.2498 -0.1676 -0.3777
21345SOL    HW167823   1.147   8.299   9.212  0.5332  1.8602  2.0165
21345SOL    HW267824   1.076   8.254   9.338 -1.8123 -0.7630 -0.1265
21346SOL     OW67825   4.603   5.976   6.123  0.3723  0.2345 -0.3434
21346SOL    HW167826   4.596   5.881   6.107 -1.6258  0.1895  0.4422
21346SOL    HW267827   4.530   5.995   6.183  1.1632  2.1612  0.0752
21347SOL     OW67828   5.728   4.619   1.023 -0.3484  0.1061 -0.2867
21347SOL    HW167829   5.666   4.655   1.087 -0.4378  1.6972 -1.2147
21347SOL    HW267830   5.694   4.532   1.002 -1.4846  0.4061  0.2518
21348SOL     OW67831   2.544   5.121   2.888 -0.3665 -0.1053  0.3186
21348SOL    HW167832   2.531   5.091   2.978 -1.6299 -1.3829 -0.2500
21348SOL    HW267833   2.459   5.109   2.846  0.4151 -0.3207 -1.2746
21349SOL     OW67834   0.762   3.706   4.907 -0.1516 -0.2132 -0.1927
21349SOL    HW167835   0.851   3.733   4.886  0.2982 -1.0306  0.6017
21349SOL    HW267836   0.770   3.615   4.936 -1.2420 -0.3043 -0.1182
21350SOL     OW67837   4.848   2.351   8.346 -0.0264 -0.0857  0.2401
21350SOL    HW167838   4.882   2.397   8.423 -0.6667  1.5436 -0.4116
21350SOL    HW267839   4.763   2.391   8.330  0.2183 -0.1854 -1.4875
21351SOL     OW67840   7.495   3.609   1.829 -0.1663 -1.2029  0.2668
21351SOL    HW167841   7.531   3.619   1.917  1.3665  1.2411 -0.5207
21351SOL    HW267842   7.543   3.536   1.791  1.1260 -0.5534  0.5947
21352SOL     OW67843   0.886   2.788   0.054  0.5388 -0.1748  0.2740
21352SOL    HW167844   0.914   2.879   0.059  2.2108 -0.4720 -1.9763
21352SOL    HW267845   0.967   2.737   0.056 -0.3992 -1.7824  2.7086
21353SOL     OW67846   8.805   3.898   0.050  0.3899 -0.4097  0.0202
21353SOL    HW167847   8.863   3.890  -0.026 -0.1458 -1.6481 -0.2859
21353SOL    HW267848   8.720   3.865   0.019  0.3307 -1.5774  1.3329
21354SOL     OW67849   1.318   7.104   2.675 -0.5574  0.2258 -0.5927
21354SOL    HW167850   1.286   7.039   2.738  0.1123  0.4209 -0.0325
21354SOL    HW267851   1.242   7.158   2.655 -0.5791  0.7973  0.8556
21355SOL     OW67852  10.054   1.641   3.222  0.0563 -0.1161  0.0590
21355SOL    HW167853  10.098   1.618   3.140 -1.8314 -0.5670 -0.8608
21355SOL    HW267854  10.012   1.560   3.251 -0.8556  0.4952  0.4881
21356SOL     OW67855   6.779   9.735   2.053 -0.7545 -0.1513 -0.2471
21356SOL    HW167856   6.871   9.710   2.046 -1.6006 -3.8772 -0.0589
21356SOL    HW267857   6.777   9.798   2.126  1.6108  0.1719 -0.3764
21357SOL     OW67858   7.964   4.266   0.454 -0.4112  0.1210 -0.1605
21357SOL    HW167859   7.903   4.193   0.440  0.1584 -0.5119  0.5652
21357SOL    HW267860   8.033   4.229   0.508  0.8523  0.7115 -1.3237
21358SOL     OW67861   0.051   4.492   9.899  0.5907  0.0307 -0.0952
21358SOL    HW167862  -0.023   4.552   9.890  1.0698  0.5975 -0.2740
21358SOL    HW267863   0.082   4.478   9.810  0.8461 -0.0170 -0.0002
21359SOL     OW67864   3.575   8.537   2.622  0.2575  0.6358  0.4296
21359SOL    HW167865   3.537   8.526   2.709 -4.2747 -0.2759 -1.3700
21359SOL    HW267866   3.546   8.623   2.594 -2.6019 -0.8858 -1.7940
21360SOL     OW67867   2.555   5.526   8.929 -0.0743  0.1266 -0.4640
21360SOL    HW167868   2.462   5.504   8.925 -0.2446  0.9915 -1.7494
21360SOL    HW267869   2.569   5.554   9.019 -0.3479 -2.8760  0.6309
21361SOL     OW67870   6.570   1.147   0.019  0.4116 -0.5007  0.1571
21361SOL    HW167871   6.592   1.219   0.078  1.2747 -0.4160 -0.2649
21361SOL    HW267872   6.646   1.088   0.022 -0.5330 -1.7538  1.0037
21362SOL     OW67873  10.033   0.811   0.201  0.1392 -0.2279 -0.3852
21362SOL    HW167874   9.942   0.787   0.183  0.0157  1.1064 -1.7258
21362SOL    HW267875  10.084   0.743   0.158 -0.1975 -0.8041  0.0970
21363SOL     OW67876   4.008   3.613  10.146 -0.4926  0.5686  0.3182
21363SOL    HW167877   4.062   3.576  10.075  0.5272  2.0553  0.2691
21363SOL    HW267878   4.037   3.566  10.224 -2.5008 -1.9814 -0.3386
21364SOL     OW67879   0.036   9.809   2.386 -0.1998  0.6101 -0.0815
21364SOL    HW167880  -0.019   9.862   2.329  2.0849  4.6173  1.1212
21364SOL    HW267881   0.008   9.831   2.474  1.2569  0.2870  0.4880
21365SOL     OW67882   9.393   4.824   1.642  0.2061 -0.4034  0.5647
21365SOL    HW167883   9.442   4.858   1.567 -0.4227 -0.3476  0.1728
21365SOL    HW267884   9.425   4.875   1.716 -1.5279  1.9115 -0.1692
21366SOL     OW67885   7.327   5.955   7.178  0.5644  0.4564 -0.2466
21366SOL    HW167886   7.372   5.875   7.150  1.7363  1.1662 -0.4567
21366SOL    HW267887   7.312   5.943   7.272  3.4240  1.1724  0.4076
21367SOL     OW67888   5.059   6.537   8.270 -0.4371  0.4275  0.0992
21367SOL    HW167889   5.062   6.588   8.189 -1.5477  1.3199  0.5810
21367SOL    HW267890   4.972   6.556   8.306  0.2635  0.5467  1.8082
21368SOL     OW67891   5.410   5.347   5.199 -1.1506  0.0356 -0.1640
21368SOL    HW167892   5.371   5.366   5.114 -0.1236  0.0587 -0.6401
21368SOL    HW267893   5.427   5.432   5.238 -2.2769  0.0275  0.3918
21369SOL     OW67894   2.056   0.702   8.044  0.3383  0.1358 -0.0523
21369SOL    HW167895   2.099   0.729   7.963 -0.5366  0.6712 -0.3490
21369SOL    HW267896   1.967   0.735   8.036  0.0799 -0.3039  0.8834
21370SOL     OW67897   3.909   9.921   0.555 -0.0696 -0.1173 -0.2907
21370SOL    HW167898   3.939   9.938   0.644  0.3288 -1.5257 -0.1231
21370SOL    HW267899   3.985   9.940   0.500  0.1840 -0.7231 -0.1637
21371SOL     OW67900   6.485   4.806   7.441  0.2379 -0.0829  0.4931
21371SOL    HW167901   6.394   4.781   7.452  0.2827  0.5109  2.8127
21371SOL    HW267902   6.515   4.757   7.364 -2.2672  0.4863 -0.9330
21372SOL     OW67903   1.830   2.067   4.400 -0.1299 -0.6615  0.1379
21372SOL    HW167904   1.785   1.993   4.358  0.7610 -1.1795  0.0684
21372SOL    HW267905   1.800   2.064   4.491  1.2795 -2.2541  0.5864
21373SOL     OW67906   8.078   4.663   9.150 -0.3540  0.0090  0.0034
21373SOL    HW167907   8.026   4.697   9.223 -0.6046 -0.5055  0.0645
21373SOL    HW267908   8.048   4.574   9.138 -0.7516  0.2871 -1.1492
21374SOL     OW67909   0.723   8.685   7.572  0.3727 -0.2190  0.1795
21374SOL    HW167910   0.745   8.755   7.633 -1.2237  1.2386 -0.8142
21374SOL    HW267911   0.686   8.616   7.627 -0.0045  0.5940  0.9732
21375SOL     OW67912   0.022   4.167   1.325 -0.1482  0.4326 -0.1396
21375SOL    HW167913   0.050   4.252   1.291 -0.0061  0.4732  0.0810
21375SOL    HW267914   0.056   4.103   1.261 -0.0948  0.5270 -0.2057
21376SOL     OW67915   1.902   5.752   5.858  0.1399 -0.3691 -0.0281
21376SOL    HW167916   1.832   5.688   5.873 -0.0472 -0.1390  0.0790
21376SOL    HW267917   1.983   5.705   5.880 -0.1079 -0.0670  1.6696
21377SOL     OW67918   2.402   7.744   6.400 -0.2509  0.2125 -0.5510
21377SOL    HW167919   2.309   7.766   6.393 -0.9797 -2.2555  0.1562
21377SOL    HW267920   2.411   7.706   6.487  1.0697 -0.9754 -1.1632
21378SOL     OW67921   1.107   7.487   7.051 -0.3265 -0.3430  0.1074
21378SOL    HW167922   1.077   7.399   7.078 -0.5060  0.0261  1.1800
21378SOL    HW267923   1.197   7.492   7.082 -0.5968  0.1595  0.8554
21379SOL     OW67924   0.703   4.980   3.351  0.0815  0.1480  0.1383
21379SOL    HW167925   0.656   5.062   3.335 -0.9745 -0.6930 -1.3153
21379SOL    HW267926   0.726   4.948   3.264  1.0192 -0.8215  0.7141
21380SOL     OW67927   5.514   4.884   5.144 -0.4666 -0.1312 -0.6863
21380SOL    HW167928   5.527   4.979   5.150 -1.1963  0.1099 -2.3282
21380SOL    HW267929   5.498   4.856   5.234  1.1111  1.0766  0.0245
21381SOL     OW67930   6.155   4.708   0.093  0.2085  0.3717  0.0062
21381SOL    HW167931   6.210   4.629   0.088  0.4155  0.5748 -1.0976
21381SOL    HW267932   6.218   4.780   0.096  0.0492  0.4823  2.1242
21382SOL     OW67933   7.368   1.154   9.756 -0.1320  0.3067 -0.4623
21382SOL    HW167934   7.424   1.121   9.685  0.7257 -2.1116  1.1774
21382SOL    HW267935   7.419   1.224   9.796 -0.3929  1.3283 -1.8602
21383SOL     OW67936   9.042   8.080   5.229  0.1133  0.3377 -0.0634
21383SOL    HW167937   9.038   7.985   5.241 -1.4672  0.1120 -1.9182
21383SOL    HW267938   9.127   8.105   5.266  0.6438 -1.8096  0.3195
21384SOL     OW67939   2.532   7.663   2.865 -0.8102 -0.1065 -0.3174
21384SOL    HW167940   2.485   7.638   2.786 -1.2935 -0.7232  0.1582
21384SOL    HW267941   2.621   7.628   2.852 -0.6009  0.6585 -1.0117
21385SOL     OW67942   3.109   7.542   7.920 -0.0895 -0.1883  0.5718
21385SOL    HW167943   3.046   7.487   7.968 -0.6058  0.2801  0.4455
21385SOL    HW267944   3.130   7.491   7.842 -1.1784  0.1131  0.0594
21386SOL     OW67945   2.126   2.451  10.048 -0.5517  0.2340 -0.3901
21386SOL    HW167946   2.087   2.533  10.018 -0.7479  0.5817  0.7766
21386SOL    HW267947   2.152   2.468  10.139 -0.2209 -0.8637 -0.2634
21387SOL     OW67948   3.067   4.281   8.438 -0.0431 -0.2478 -0.2685
21387SOL    HW167949   3.127   4.253   8.370 -0.5760 -1.3668 -0.3028
21387SOL    HW267950   3.098   4.236   8.517 -1.0738 -1.2031 -0.3802
21388SOL     OW67951   7.935   3.172  10.097 -0.4154  0.2400  0.3817
21388SOL    HW167952   7.922   3.148  10.189 -0.0007 -0.4806  0.2583
21388SOL    HW267953   7.914   3.265  10.093 -0.3889  0.2857  1.2155
21389SOL     OW67954   7.852   1.710  10.316 -0.5084  0.0213 -0.2366
21389SOL    HW167955   7.782   1.699  10.380  0.2423 -0.3639  0.5396
21389SOL    HW267956   7.831   1.792  10.271 -2.0035 -0.6167 -0.7417
21390SOL     OW67957   6.328   0.492   2.200  0.5747 -0.4024 -0.4323
21390SOL    HW167958   6.234   0.495   2.217  0.6201  0.4059 -0.3111
21390SOL    HW267959   6.342   0.552   2.127  1.2496  0.9629  0.7749
21391SOL     OW67960   7.828  10.306   6.075 -0.4358  0.5330 -0.2608
21391SOL    HW167961   7.777  10.376   6.036 -0.5810 -0.2098 -1.4237
21391SOL    HW267962   7.917  10.342   6.080  0.0967 -0.1104 -3.3994
21392SOL     OW67963   7.259   4.006   1.092  0.2151  0.6190 -0.2197
21392SOL    HW167964   7.335   4.028   1.039  1.2987 -0.3614  0.8775
21392SOL    HW267965   7.195   3.972   1.029  1.7045 -1.1295 -0.8503
21393SOL     OW67966   6.865   8.637   3.106 -0.1412 -0.4266  0.1581
21393SOL    HW167967   6.864   8.560   3.050 -0.0848 -1.9517  2.1690
21393SOL    HW267968   6.861   8.711   3.045 -0.0516 -1.9880 -1.8265
21394SOL     OW67969   1.177   8.111   3.724 -0.5367  0.0950 -0.1019
21394SOL    HW167970   1.222   8.135   3.805 -0.4194 -0.0230 -0.1303
21394SOL    HW267971   1.186   8.188   3.667  1.4929 -0.6607 -0.9008
21395SOL     OW67972   4.402   4.955   9.555 -0.2495 -0.0205  0.1143
21395SOL    HW167973   4.347   4.920   9.626 -1.0951  0.4974 -0.2794
21395SOL    HW267974   4.483   4.980   9.599 -0.8917  0.6255  0.9789
21396SOL     OW67975   9.369   2.657   1.652  0.3287  0.4359 -0.0631
21396SOL    HW167976   9.325   2.661   1.737  0.4736  1.2690 -0.0247
21396SOL    HW267977   9.349   2.741   1.610 -0.6573 -0.3703 -1.3105
21397SOL     OW67978   1.385   4.080   4.828  0.6135 -0.3361 -0.3088
21397SOL    HW167979   1.296   4.046   4.829  0.3945  0.2250  0.7442
21397SOL    HW267980   1.427   4.039   4.904  0.6517  0.8890  0.3552
21398SOL     OW67981   4.607   6.207   9.206  0.6147  0.0571  0.3272
21398SOL    HW167982   4.596   6.293   9.166 -0.9951  0.3581  1.3141
21398SOL    HW267983   4.682   6.217   9.265 -0.8158  1.4783  2.0385
21399SOL     OW67984   8.211   0.984   6.505  0.4597  0.5915 -0.4978
21399SOL    HW167985   8.243   1.074   6.495  0.2316  0.8067  0.6048
21399SOL    HW267986   8.116   0.991   6.499  0.4856  0.2675 -1.4586
21400SOL     OW67987   6.430   5.640   9.867 -0.4422 -0.1281  0.2213
21400SOL    HW167988   6.347   5.662   9.908 -0.0806 -0.6938  1.2768
21400SOL    HW267989   6.486   5.612   9.939  0.6331  0.1392 -0.4859
21401SOL     OW67990   6.826   8.313   2.320 -0.4868  0.0125 -0.0078
21401SOL    HW167991   6.907   8.330   2.367  0.2138  0.1500 -1.2241
21401SOL    HW267992   6.758   8.357   2.372 -0.2714 -2.4472  2.5566
21402SOL     OW67993   5.371   1.184   2.164  0.1914  0.3869  0.5145
21402SOL    HW167994   5.332   1.246   2.102  2.3287 -0.8120 -2.2423
21402SOL    HW267995   5.308   1.113   2.169 -0.7768  1.2531  1.1129
21403SOL     OW67996   8.379   0.124   2.568 -0.3349 -0.0833  0.4085
21403SOL    HW167997   8.331   0.206   2.576 -0.0871 -0.0217  1.4681
21403SOL    HW267998   8.468   0.147   2.596  0.2764 -0.2386 -1.3139
21404SOL     OW67999   2.311   4.867   1.055  0.1555  0.0237  0.1985
21404SOL    HW168000   2.370   4.837   1.123  3.8731 -0.7002 -2.9953
21404SOL    HW268001   2.323   4.962   1.051  0.0631  0.0443  0.4266
21405SOL     OW68002   9.432   7.676   2.393  0.6454 -0.5108 -0.6674
21405SOL    HW168003   9.451   7.709   2.305  2.9526  0.9677  0.3213
21405SOL    HW268004   9.336   7.669   2.394  0.5539 -1.0879 -3.4364
21406SOL     OW68005   3.052   6.712   9.320 -0.5664 -0.1229 -0.5391
21406SOL    HW168006   3.137   6.749   9.345 -1.7783  1.2971  1.9041
21406SOL    HW268007   3.048   6.723   9.225  1.9651 -0.3005 -0.7476
21407SOL     OW68008   9.234   1.618   1.769  0.1276  0.2839  0.3584
21407SOL    HW168009   9.302   1.653   1.711 -0.3306  0.6851  0.0581
21407SOL    HW268010   9.234   1.676   1.845 -1.2112  1.4834 -0.5144
21408SOL     OW68011   5.443   2.475   7.792  0.2062 -0.2690 -0.0394
21408SOL    HW168012   5.353   2.499   7.772 -0.4608 -1.8167  0.9717
21408SOL    HW268013   5.491   2.558   7.791 -1.4959  0.7613  0.8834
21409SOL     OW68014   4.565   0.938   4.301  0.2670 -0.3873  0.7486
21409SOL    HW168015   4.551   0.892   4.384  2.3323 -2.2153  0.2030
21409SOL    HW268016   4.644   0.990   4.315 -0.5681  0.9865  0.5377
21410SOL     OW68017   6.508  10.109   5.240  0.0754  0.3470  0.6072
21410SOL    HW168018   6.454  10.041   5.281  0.3926 -0.4310 -0.2323
21410SOL    HW268019   6.589  10.109   5.290  1.3809 -2.1898 -1.3102
21411SOL     OW68020   5.337   9.027   1.059  0.5095  0.0108  0.1388
21411SOL    HW168021   5.404   9.009   0.993  1.6848 -0.9150  1.5525
21411SOL    HW268022   5.384   9.066   1.132 -0.7723  0.9527  0.5043
21412SOL     OW68023   2.176   7.573   4.687  0.4207  0.6464 -0.0826
21412SOL    HW168024   2.210   7.642   4.745  0.1603  0.6009  0.1224
21412SOL    HW268025   2.163   7.617   4.603  3.8608  0.0375 -1.1034
21413SOL     OW68026   3.128   8.192   7.772 -0.1186 -0.4932 -0.1276
21413SOL    HW168027   3.081   8.185   7.855  1.3113 -0.1228  0.7590
21413SOL    HW268028   3.182   8.271   7.782 -0.8329  0.2722 -1.9093
21414SOL     OW68029   6.366   9.434   3.503  0.1612 -0.0070 -0.5171
21414SOL    HW168030   6.282   9.427   3.457 -0.1315  0.0050 -0.0032
21414SOL    HW268031   6.414   9.356   3.478 -0.0424 -0.0606 -0.7452
21415SOL     OW68032   4.344   7.208   0.410 -0.1619 -0.6456 -0.2798
21415SOL    HW168033   4.425   7.258   0.416  0.8020 -2.3311  1.9863
21415SOL    HW268034   4.356   7.151   0.334 -0.6591  1.3311 -1.9523
21416SOL     OW68035   8.986   1.008   0.321 -0.5844 -0.3477  0.1893
21416SOL    HW168036   8.973   0.936   0.383 -1.7689  0.6112  1.1040
21416SOL    HW268037   9.073   0.992   0.284 -0.7801 -2.1771  0.4349
21417SOL     OW68038   5.006   4.051   6.681  0.5037 -0.2970 -0.3075
21417SOL    HW168039   5.072   3.998   6.637  1.3038 -0.5631  1.1354
21417SOL    HW268040   4.981   3.998   6.757 -1.2691 -0.1236 -0.7341
21418SOL     OW68041   7.826  10.077   0.803 -0.0398  0.0672  0.2916
21418SOL    HW168042   7.822  10.040   0.892 -0.0383 -0.1201  0.2139
21418SOL    HW268043   7.919  10.076   0.781 -0.0907 -0.4236  0.0660
21419SOL     OW68044   8.875   8.497   1.280  0.1095  0.0990  0.1183
21419SOL    HW168045   8.912   8.581   1.305  1.5592 -0.4964  0.0664
21419SOL    HW268046   8.927   8.432   1.328 -0.4552 -0.8060 -0.4564
21420SOL     OW68047   2.961   0.536   1.629  0.4990  0.3132  0.1329
21420SOL    HW168048   3.029   0.545   1.561  0.0192 -0.0061 -0.4010
21420SOL    HW268049   3.008   0.547   1.711  1.2868 -0.3807 -0.2089
21421SOL     OW68050   4.081   3.823   0.336 -0.0930 -0.3965 -0.3715
21421SOL    HW168051   3.996   3.857   0.363  0.0371 -1.1496  1.0312
21421SOL    HW268052   4.127   3.805   0.417 -0.1067 -3.8066 -0.9540
21422SOL     OW68053   9.128   9.296   6.592 -0.4808  0.3818 -0.2156
21422SOL    HW168054   9.184   9.321   6.518 -0.3507  0.3292 -0.1345
21422SOL    HW268055   9.054   9.357   6.587  1.2111  2.8266  1.6857
21423SOL     OW68056   4.398   2.893   4.561  0.0393 -0.0451 -0.0857
21423SOL    HW168057   4.426   2.939   4.640 -0.5474 -0.3562  0.3122
21423SOL    HW268058   4.409   2.800   4.581  0.4204 -0.1140 -0.5787
21424SOL     OW68059   8.106   8.483   3.342  0.1715 -0.2235  0.1489
21424SOL    HW168060   8.070   8.528   3.418 -0.3153 -0.6024  0.1421
21424SOL    HW268061   8.036   8.485   3.277  0.7137  0.4349 -0.4325
21425SOL     OW68062   3.968   2.377   6.755  0.9674 -0.3729  0.4701
21425SOL    HW168063   3.934   2.466   6.762 -0.0919 -0.4625 -2.4233
21425SOL    HW268064   3.916   2.326   6.818 -1.0710  0.3884 -0.5374
21426SOL     OW68065   8.323   2.398   4.090 -0.3526  0.2319  0.0319
21426SOL    HW168066   8.363   2.385   4.004  0.1667  1.2210  0.1018
21426SOL    HW268067   8.283   2.485   4.084 -0.2666  0.3264  0.8135
21427SOL     OW68068   5.455   1.392   9.020  0.3465 -0.2223  0.3412
21427SOL    HW168069   5.408   1.437   9.090  1.4942  0.6240  0.5935
21427SOL    HW268070   5.533   1.355   9.063  0.9158  0.0677 -0.4181
21428SOL     OW68071   4.357   0.979   7.280  0.1210  0.1199 -0.3067
21428SOL    HW168072   4.347   0.929   7.361 -2.0642 -0.3358 -0.8168
21428SOL    HW268073   4.369   1.069   7.310 -0.4242 -0.0714  0.5383
21429SOL     OW68074   0.757   6.702   9.148  0.5276 -0.0389  0.1848
21429SOL    HW168075   0.839   6.720   9.193  0.0661  0.5161  0.8298
21429SOL    HW268076   0.713   6.637   9.203  0.7194 -0.6489 -0.3801
21430SOL     OW68077   7.908   8.716   4.843  0.0370  0.2546 -0.0026
21430SOL    HW168078   7.903   8.679   4.931  1.1631  1.4683  0.5971
21430SOL    HW268079   7.952   8.800   4.854  1.1754 -0.0335 -1.8535
21431SOL     OW68080   1.117   3.407   8.815  0.1149  0.1398 -0.4003
21431SOL    HW168081   1.082   3.323   8.787 -0.3561  0.6764 -1.4978
21431SOL    HW268082   1.165   3.439   8.739  2.0293 -0.0344  0.6775
21432SOL     OW68083   3.621   4.062   9.731 -0.2136 -0.2477 -0.3782
21432SOL    HW168084   3.686   4.127   9.706 -0.6053  1.0079  1.6616
21432SOL    HW268085   3.655   4.023   9.811 -1.2062 -0.7408 -0.1730
21433SOL     OW68086   4.703   3.487   9.978  0.3849  0.3830 -0.1288
21433SOL    HW168087   4.670   3.420   9.919  1.8371  0.3928 -1.0022
21433SOL    HW268088   4.669   3.569   9.943  0.1185  0.2726 -0.1337
21434SOL     OW68089   7.966   9.562   7.174 -0.2263  0.5462 -0.2760
21434SOL    HW168090   8.030   9.576   7.104  0.6272 -0.1664  0.3303
21434SOL    HW268091   7.894   9.515   7.132  1.0168 -1.3881 -0.3703
21435SOL     OW68092   8.551  10.249   8.165 -0.1939  0.1544  0.5531
21435SOL    HW168093   8.539  10.160   8.133  0.6459  0.1583  0.2043
21435SOL    HW268094   8.633  10.247   8.214 -0.7229  0.4954  1.4828
21436SOL     OW68095   3.703   5.594   3.606  0.0191  0.2255  0.6477
21436SOL    HW168096   3.743   5.587   3.519 -0.0119 -0.7100  0.6989
21436SOL    HW268097   3.650   5.515   3.614  0.3892  0.0726  1.6983
21437SOL     OW68098   1.061   4.680   4.842 -0.2223 -0.1197  0.4150
21437SOL    HW168099   1.023   4.625   4.774 -1.2103  1.0662 -0.0322
21437SOL    HW268100   1.153   4.691   4.816  0.0884 -1.8173  0.7162
21438SOL     OW68101   8.091   8.366   6.975 -0.6894  0.2380 -0.2069
21438SOL    HW168102   8.091   8.331   6.886 -2.3156 -0.7848  0.1463
21438SOL    HW268103   8.180   8.399   6.988  0.7927 -3.0502 -0.8776
21439SOL     OW68104   8.178   7.119   8.034  0.1258  0.1535  0.6000
21439SOL    HW168105   8.258   7.073   8.009  0.2082 -0.2087  1.5005
21439SOL    HW268106   8.208   7.201   8.073 -0.0386  1.4716 -1.8359
21440SOL     OW68107   6.192   9.975   5.723 -0.3258  0.5961 -0.0612
21440SOL    HW168108   6.256  10.041   5.750 -0.0355 -0.7808  3.1186
21440SOL    HW268109   6.109  10.004   5.761 -0.5110 -0.0911  0.0866
21441SOL     OW68110   3.969   7.242   8.111  0.4378  0.3520  0.1677
21441SOL    HW168111   4.062   7.235   8.132  0.4310 -0.1981  0.0186
21441SOL    HW268112   3.941   7.323   8.155  0.1251 -1.3654  3.4158
21442SOL     OW68113   9.156   4.132   4.730 -0.2468  0.2663  0.4466
21442SOL    HW168114   9.196   4.217   4.748 -0.7680  0.5783  0.1754
21442SOL    HW268115   9.084   4.125   4.792  0.6605 -0.6207  1.4306
21443SOL     OW68116   9.294   6.864   4.869 -0.2976 -0.6935  0.4216
21443SOL    HW168117   9.346   6.843   4.792  2.9144  1.9267  1.6310
21443SOL    HW268118   9.258   6.780   4.897  0.5791 -2.1431 -2.3951
21444SOL     OW68119   4.406   1.244   2.471 -0.3816 -0.0058 -0.1531
21444SOL    HW168120   4.318   1.219   2.499 -0.5878  0.2062 -0.6015
21444SOL    HW268121   4.462   1.227   2.547 -0.5628 -1.5224 -0.3200
21445SOL     OW68122   7.762   9.920   3.337  0.2795  0.2477  0.7427
21445SOL    HW168123   7.825   9.992   3.347  0.9329 -0.4785  2.2301
21445SOL    HW268124   7.796   9.869   3.264  0.0424  1.1899 -0.0539
21446SOL     OW68125   9.586   7.731   9.063  0.5762 -0.2673  0.1026
21446SOL    HW168126   9.643   7.656   9.082  0.8432 -0.4474 -1.2757
21446SOL    HW268127   9.543   7.708   8.980  0.3445  0.9217 -0.1298
21447SOL     OW68128   2.742   2.083   4.609  0.3545 -0.7293  0.1389
21447SOL    HW168129   2.779   2.004   4.571  0.3916 -0.0447 -1.3403
21447SOL    HW268130   2.648   2.071   4.603  0.3607 -0.5001 -0.4591
21448SOL     OW68131   8.393   3.756   1.493 -0.0931  0.3336 -0.7310
21448SOL    HW168132   8.358   3.777   1.580 -3.3573 -1.3307 -1.4810
21448SOL    HW268133   8.447   3.831   1.470 -1.0598  1.9223  1.7707
21449SOL     OW68134   6.851  10.289  10.013 -0.5308  0.1030 -0.4829
21449SOL    HW168135   6.756  10.283  10.027 -0.3000  0.4768  1.4753
21449SOL    HW268136   6.876  10.374  10.048  0.8713 -1.0069  1.3944
21450SOL     OW68137   9.762   7.498   4.435  0.5449 -0.2907 -0.0593
21450SOL    HW168138   9.766   7.594   4.441  1.6624 -0.4047  1.6418
21450SOL    HW268139   9.815   7.477   4.358  1.4825  0.4018  0.3797
21451SOL     OW68140   4.596   1.885   3.330 -0.3708  0.0785  0.0350
21451SOL    HW168141   4.596   1.804   3.277 -0.1810 -0.5806  1.0230
21451SOL    HW268142   4.643   1.861   3.410 -1.6531  0.7231  1.0079
21452SOL     OW68143   6.805   0.251   5.954 -0.2175 -0.1595  0.0973
21452SOL    HW168144   6.866   0.182   5.977 -1.4925 -1.4653 -0.2807
21452SOL    HW268145   6.860   0.325   5.928  1.1693 -1.1670  0.0997
21453SOL     OW68146   1.708   9.767  10.187 -0.1364 -0.3330 -0.0078
21453SOL    HW168147   1.727   9.716  10.108 -0.4907 -0.6871  0.1336
21453SOL    HW268148   1.706   9.858  10.157  1.8884 -0.2471 -0.0219
21454SOL     OW68149   8.129   3.840   8.271 -0.1357 -0.5379 -0.1193
21454SOL    HW168150   8.143   3.884   8.188 -0.3346 -0.4291 -0.0962
21454SOL    HW268151   8.167   3.753   8.259  1.7094  0.1650  0.3776
21455SOL     OW68152   9.792   0.092   3.571 -0.0116  0.2916  0.0071
21455SOL    HW168153   9.844   0.023   3.530 -0.1022 -0.0750  0.5034
21455SOL    HW268154   9.730   0.045   3.627 -2.2189  0.5771 -2.0341
21456SOL     OW68155   2.495   7.002   2.156 -0.1156 -0.3495  0.1533
21456SOL    HW168156   2.412   6.958   2.141  0.6376 -0.9797 -2.9220
21456SOL    HW268157   2.504   7.062   2.082  1.8454  0.2412  0.8082
21457SOL     OW68158   4.429   8.578   1.288  0.2515  0.6076 -0.1293
21457SOL    HW168159   4.367   8.516   1.327 -0.4918  1.9639  0.9204
21457SOL    HW268160   4.504   8.523   1.262  0.2120 -0.5756  1.9955
21458SOL     OW68161   2.334   6.118   1.558 -0.0367  0.6719 -0.2895
21458SOL    HW168162   2.371   6.138   1.472  1.8678 -0.7667  0.1163
21458SOL    HW268163   2.366   6.189   1.614  0.6393  0.4018 -0.3213
21459SOL     OW68164   1.086   0.873   8.623 -0.5135 -0.1557 -0.1778
21459SOL    HW168165   0.994   0.868   8.597 -0.8330  0.3595  0.7846
21459SOL    HW268166   1.109   0.965   8.613 -0.2420 -0.1993  0.0224
21460SOL     OW68167   1.090   9.592   1.762 -0.2158 -0.4930 -0.0586
21460SOL    HW168168   1.152   9.650   1.806 -1.2658  0.4668  0.2043
21460SOL    HW268169   1.009   9.642   1.758 -0.3659 -0.7754 -2.5233
21461SOL     OW68170   3.357   2.538   0.610 -0.0324 -0.0639 -0.4376
21461SOL    HW168171   3.338   2.567   0.699  1.5045 -0.2676 -0.0281
21461SOL    HW268172   3.443   2.573   0.590  1.8887 -3.9933  0.0077
21462SOL     OW68173   4.066   8.340   1.205  0.1836 -0.2622 -0.0472
21462SOL    HW168174   4.011   8.283   1.258  1.2538 -1.5238 -0.2299
21462SOL    HW268175   4.005   8.391   1.153 -0.8194 -2.2983 -0.9642
21463SOL     OW68176   9.657   1.004   7.760  0.3518  0.2352  0.6560
21463SOL    HW168177   9.675   1.097   7.747  1.1188  0.1534  1.0875
21463SOL    HW268178   9.647   0.994   7.855  1.8410 -0.3857  0.7689
21464SOL     OW68179   3.829   8.468  10.189  1.2552  0.4086 -0.2509
21464SOL    HW168180   3.818   8.379  10.155 -3.9833  1.3759 -1.9033
21464SOL    HW268181   3.789   8.465  10.276  4.1668  0.5914  1.2379
21465SOL     OW68182   7.102   4.626   7.745 -0.1035  0.4720  0.2013
21465SOL    HW168183   7.068   4.552   7.697 -2.1764  1.0990  0.6174
21465SOL    HW268184   7.170   4.663   7.688  0.2963 -1.1505 -0.4084
21466SOL     OW68185   2.337   2.273   1.833  0.0448  0.6093  0.6973
21466SOL    HW168186   2.249   2.241   1.853 -0.0187  0.5420  0.3152
21466SOL    HW268187   2.328   2.369   1.830 -0.1010  0.5871  0.2817
21467SOL     OW68188   0.248   7.286   6.485 -0.4030 -0.5027 -0.3397
21467SOL    HW168189   0.278   7.294   6.395 -1.7888 -0.6580 -0.8298
21467SOL    HW268190   0.196   7.365   6.500  1.0546  0.2860  0.8406
21468SOL     OW68191   2.461   3.539   7.206 -0.3028 -0.1852 -0.5448
21468SOL    HW168192   2.539   3.544   7.261 -0.6191  1.2026 -0.1751
21468SOL    HW268193   2.438   3.447   7.205 -0.5614 -0.2212  2.0583
21469SOL     OW68194   9.933   8.723   9.310  0.0096 -0.0390 -0.0360
21469SOL    HW168195   9.894   8.677   9.384  1.4928  0.2222  0.9372
21469SOL    HW268196  10.008   8.668   9.284 -0.5576 -0.2014 -1.4457
21470SOL     OW68197   1.942   8.767   2.721  0.3782 -0.0345 -0.1000
21470SOL    HW168198   1.863   8.809   2.755  0.5735 -0.0482  0.3775
21470SOL    HW268199   2.004   8.838   2.707  0.2846 -0.0249 -0.4658
21471SOL     OW68200   1.943   2.436   0.126 -0.2160  0.1365 -0.2825
21471SOL    HW168201   1.899   2.508   0.171  1.6243 -0.0719  2.0445
21471SOL    HW268202   1.929   2.360   0.182  3.2762  0.1444  0.8250
21472SOL     OW68203   2.082   0.955  10.009  0.1008 -0.6216 -0.0122
21472SOL    HW168204   2.039   0.887  10.062 -0.6498  0.1250  0.3582
21472SOL    HW268205   2.071   0.924   9.918  0.4781 -1.3839  0.1889
21473SOL     OW68206   5.567   3.517   6.511  0.8438  0.3055 -0.3396
21473SOL    HW168207   5.568   3.552   6.422 -1.2994 -1.1788 -1.0353
21473SOL    HW268208   5.627   3.443   6.509  2.1313  1.3086 -0.0273
21474SOL     OW68209   4.186   5.757   3.155 -0.4723  0.0308  0.1723
21474SOL    HW168210   4.162   5.708   3.234  1.6670  0.4148  1.1346
21474SOL    HW268211   4.253   5.819   3.185  0.4096  0.1846 -1.9309
21475SOL     OW68212   2.691   2.061   8.722 -0.1039  0.3492 -0.0969
21475SOL    HW168213   2.690   2.011   8.804 -0.1311  0.6826  0.1061
21475SOL    HW268214   2.646   2.004   8.659 -0.5537  0.3099  0.2507
21476SOL     OW68215   5.094   5.564   1.126  0.0337 -0.1964 -0.2630
21476SOL    HW168216   5.130   5.633   1.071 -1.5286  0.0810 -0.9971
21476SOL    HW268217   5.112   5.593   1.216  0.8004  0.3588 -0.5859
21477SOL     OW68218   2.287   9.089   1.368  0.4485 -0.3737  0.8513
21477SOL    HW168219   2.274   9.012   1.423  0.5490 -0.4956  0.7016
21477SOL    HW268220   2.332   9.057   1.290 -1.7537 -0.6351 -0.3878
21478SOL     OW68221   4.833   1.697   2.329 -0.1092  0.3001  0.4122
21478SOL    HW168222   4.844   1.742   2.245  1.5241  0.1197  0.4868
21478SOL    HW268223   4.781   1.619   2.308 -0.2402  0.5703 -0.3159
21479SOL     OW68224   8.915   0.329   7.526  0.3848  0.8656  0.0983
21479SOL    HW168225   8.965   0.411   7.530 -0.7437  1.5416  1.4186
21479SOL    HW268226   8.948   0.278   7.600  0.8050  0.2773 -0.4834
21480SOL     OW68227   1.614   7.582   4.597  0.3814  0.1457 -0.0070
21480SOL    HW168228   1.594   7.675   4.586  2.5744  0.4910 -1.7271
21480SOL    HW268229   1.578   7.559   4.683 -2.9510  1.7629 -0.7947
21481SOL     OW68230   6.399   1.802   8.364 -0.1653 -0.7695  0.1035
21481SOL    HW168231   6.397   1.893   8.391 -2.2795  0.1934 -2.7877
21481SOL    HW268232   6.324   1.762   8.408  0.5481 -1.0641  1.0847
21482SOL     OW68233   6.943   7.280   1.531  0.3537 -0.0636 -0.3098
21482SOL    HW168234   7.012   7.300   1.593 -1.5629  0.5786  1.7381
21482SOL    HW268235   6.924   7.187   1.545 -0.4400  0.2080  0.4875
21483SOL     OW68236   4.826   7.208   2.167 -0.3016  0.1988  0.4583
21483SOL    HW168237   4.912   7.173   2.144 -0.2896 -0.2396  1.1334
21483SOL    HW268238   4.764   7.140   2.138 -0.4534  0.6776 -0.3629
21484SOL     OW68239   3.064  10.051   7.034 -0.2899 -0.2308 -0.2451
21484SOL    HW168240   3.076   9.998   7.113 -1.1851 -1.2488 -0.7610
21484SOL    HW268241   3.153  10.080   7.011 -0.0088  0.0031  1.0665
21485SOL     OW68242   0.466   7.653   8.457  0.6180 -0.3023 -0.0595
21485SOL    HW168243   0.483   7.564   8.488 -1.2667 -0.8496 -0.4470
21485SOL    HW268244   0.424   7.642   8.372 -1.5985  0.8199  0.7946
21486SOL     OW68245   3.857   3.302   1.089 -0.1264  0.3033  0.2526
21486SOL    HW168246   3.900   3.217   1.086 -0.3280  0.2076 -1.5924
21486SOL    HW268247   3.928   3.365   1.077  0.0795  0.4545  2.0424
21487SOL     OW68248   6.863   8.275   0.686  0.2842  0.3085  0.0693
21487SOL    HW168249   6.821   8.357   0.661 -0.3927 -0.3526 -1.0742
21487SOL    HW268250   6.952   8.299   0.712 -0.4357  1.6013  1.4522
21488SOL     OW68251   7.431   7.143   2.638  0.2308 -0.1180  0.1265
21488SOL    HW168252   7.391   7.057   2.628 -2.0144  0.6524  1.6760
21488SOL    HW268253   7.524   7.129   2.620 -0.0311 -2.8944  0.5561
21489SOL     OW68254   3.187   1.522  10.325  0.3393 -0.8294 -0.1389
21489SOL    HW168255   3.219   1.523  10.415 -0.0573 -2.1540  0.0365
21489SOL    HW268256   3.113   1.461  10.326  0.9837 -1.6836 -1.5597
21490SOL     OW68257   8.496   9.987   8.113  0.0337 -0.1232  0.3881
21490SOL    HW168258   8.519   9.911   8.166  2.1734 -0.6212 -1.1150
21490SOL    HW268259   8.401   9.985   8.108  0.0403 -3.1323 -0.1781
21491SOL     OW68260   2.334   0.528   3.080 -0.2689  0.0899  0.5563
21491SOL    HW168261   2.259   0.483   3.042 -1.3970  2.6032 -0.4238
21491SOL    HW268262   2.411   0.482   3.046 -1.3339 -1.0397 -0.3813
21492SOL     OW68263   8.437   7.815   5.422 -0.5696  0.0406 -0.1782
21492SOL    HW168264   8.511   7.832   5.365 -3.0789  1.0928 -3.4708
21492SOL    HW268265   8.419   7.721   5.410 -0.3232 -0.0120 -0.1372
21493SOL     OW68266   5.320   3.707   4.304  0.7928 -0.4782 -0.0531
21493SOL    HW168267   5.340   3.625   4.350  0.0137  0.0915  1.3516
21493SOL    HW268268   5.315   3.681   4.211  0.1848 -2.1050  0.3886
21494SOL     OW68269   8.255  10.025   6.792  0.3568 -0.3607 -0.3866
21494SOL    HW168270   8.338  10.023   6.840 -0.4826 -2.6053  1.1355
21494SOL    HW268271   8.206  10.097   6.833  1.1483  0.3485 -0.6489
21495SOL     OW68272   1.168   5.212   0.883  0.7363  0.3323 -0.5995
21495SOL    HW168273   1.106   5.255   0.824  1.8055 -1.1971 -2.9923
21495SOL    HW268274   1.132   5.227   0.971 -1.7670  1.4265 -1.7085
21496SOL     OW68275   4.068   0.421   6.743  0.1924 -0.1814  0.0228
21496SOL    HW168276   4.006   0.399   6.812  0.6860 -2.5552 -0.2205
21496SOL    HW268277   4.100   0.508   6.767 -2.0403  0.4407  0.9789
21497SOL     OW68278   2.189   8.586   2.715  0.1013  0.4990 -0.6065
21497SOL    HW168279   2.248   8.659   2.697 -0.7995  1.0802 -1.3050
21497SOL    HW268280   2.102   8.624   2.711 -0.3302 -0.2517  0.8660
21498SOL     OW68281   6.676   2.184   1.725  0.2558  0.4696 -0.1407
21498SOL    HW168282   6.766   2.215   1.712 -0.3378  2.2518 -0.3887
21498SOL    HW268283   6.633   2.257   1.771 -1.2823  0.0395 -0.8421
21499SOL     OW68284   2.076   2.716  10.080  0.2841  0.4394  0.4801
21499SOL    HW168285   2.014   2.740  10.149 -0.1699  0.2350  0.1471
21499SOL    HW268286   2.056   2.777  10.008  0.5084  0.4147  0.3975
21500SOL     OW68287   5.734   9.962   2.019 -0.4989  0.3772 -0.5408
21500SOL    HW168288   5.735  10.054   2.044 -0.7945 -0.0396  1.1632
21500SOL    HW268289   5.737   9.963   1.923 -0.7417  2.1495 -0.5714
21501SOL     OW68290   9.915   7.797   1.084  0.4754  0.0375 -0.0953
21501SOL    HW168291   9.845   7.856   1.057 -0.6775 -1.1957  0.1005
21501SOL    HW268292   9.980   7.802   1.013 -0.5023  0.0657 -1.0060
21502SOL     OW68293   6.540   3.686   3.642  0.0476 -0.0550  0.1143
21502SOL    HW168294   6.573   3.723   3.723  1.1912 -0.4761 -0.1410
21502SOL    HW268295   6.496   3.605   3.669  1.4440 -0.8047  0.2120
21503SOL     OW68296   8.169   8.453  10.176 -0.3355  0.1788 -0.2389
21503SOL    HW168297   8.207   8.501  10.249 -1.1199  1.6296 -0.7387
21503SOL    HW268298   8.178   8.512  10.101  0.5725 -1.3123 -1.3799
21504SOL     OW68299   3.552   0.784   1.001 -0.1069 -0.0786 -0.0948
21504SOL    HW168300   3.465   0.812   1.029 -0.5848 -1.9043  0.3664
21504SOL    HW268301   3.547   0.783   0.905  0.2634  2.2821 -0.2026
21505SOL     OW68302   3.196   3.323   4.622  0.3063 -0.6957 -0.0030
21505SOL    HW168303   3.175   3.386   4.691 -0.9375  0.4081 -1.3372
21505SOL    HW268304   3.124   3.329   4.560  0.5185 -2.9268 -0.5736
21506SOL     OW68305   1.256   2.327   8.185  0.1237 -0.5628  0.1152
21506SOL    HW168306   1.236   2.293   8.097 -1.2370 -1.1522  0.6249
21506SOL    HW268307   1.180   2.302   8.238  1.0845 -0.5399  1.5538
21507SOL     OW68308   3.946   4.792   2.419  0.2947 -0.2935  0.4272
21507SOL    HW168309   4.035   4.827   2.425  0.5186 -0.4813 -1.2494
21507SOL    HW268310   3.907   4.837   2.345 -0.1775 -1.9235 -0.3707
21508SOL     OW68311   7.964   7.035   9.017 -0.1498  0.1321 -0.4168
21508SOL    HW168312   8.037   7.048   8.957  0.5135 -1.2054  0.0740
21508SOL    HW268313   7.964   7.112   9.073  1.9342 -0.5662  0.6464
21509SOL     OW68314   5.378   9.627   1.758  0.2704  0.1639  0.2148
21509SOL    HW168315   5.465   9.668   1.764  0.9137 -1.2901  4.8854
21509SOL    HW268316   5.396   9.536   1.734 -0.1794  0.3028 -0.6682
21510SOL     OW68317   9.751   9.671   3.399 -0.4544 -0.7830  0.1205
21510SOL    HW168318   9.765   9.724   3.478 -0.5721 -0.3671 -0.1364
21510SOL    HW268319   9.656   9.666   3.391 -0.4436 -0.9921  0.1117
21511SOL     OW68320   6.606   7.376   6.356 -0.0597  0.4463 -0.1534
21511SOL    HW168321   6.610   7.328   6.274  2.4715  0.8275 -0.3313
21511SOL    HW268322   6.521   7.419   6.355 -0.1920  0.2172 -2.4518
21512SOL     OW68323   9.405   8.220   6.375 -0.0694 -0.0753  0.5741
21512SOL    HW168324   9.500   8.225   6.366 -0.1695  0.6792 -0.1688
21512SOL    HW268325   9.380   8.303   6.416 -0.3352 -0.6416  1.6188
21513SOL     OW68326   9.764   8.812   2.197  0.0265  0.7211  0.1335
21513SOL    HW168327   9.819   8.845   2.126  2.3157 -0.7825  1.0970
21513SOL    HW268328   9.778   8.717   2.196 -0.3333  0.6045  2.2075
21514SOL     OW68329   4.487   3.923   2.688  0.7035  0.2128 -0.0855
21514SOL    HW168330   4.507   4.013   2.661  1.6026 -0.3042 -1.2321
21514SOL    HW268331   4.549   3.905   2.758  1.6197 -0.0260 -0.9280
21515SOL     OW68332   7.281   4.030   9.307  0.1054  0.2535 -0.5480
21515SOL    HW168333   7.329   3.974   9.246  0.3181 -1.2806  0.9823
21515SOL    HW268334   7.302   3.997   9.394 -1.6565  1.2048  0.3091
21516SOL     OW68335   8.395   3.200   8.280 -0.4798 -0.1982 -0.3809
21516SOL    HW168336   8.419   3.113   8.310  0.6716  0.3859  0.4895
21516SOL    HW268337   8.329   3.230   8.343 -1.2035 -0.5963 -0.9376
21517SOL     OW68338   8.566   9.376   7.515 -0.2619  0.3455 -0.1884
21517SOL    HW168339   8.482   9.358   7.559  0.2462  2.3725  1.8263
21517SOL    HW268340   8.544   9.442   7.449 -0.4011  0.1028 -0.3896
21518SOL     OW68341   0.965   9.977   3.196 -0.3453  0.0773 -0.3021
21518SOL    HW168342   0.902  10.001   3.264 -0.7547  1.6565 -1.1780
21518SOL    HW268343   0.976   9.883   3.206 -1.4954  0.0436  1.0156
21519SOL     OW68344  10.175   4.814   9.329  0.4242 -0.2712  0.0471
21519SOL    HW168345  10.156   4.753   9.400  0.0831  0.6787  0.7839
21519SOL    HW268346  10.167   4.901   9.368 -0.2455  0.2854 -1.2518
21520SOL     OW68347   7.613   8.965   0.261 -0.1066 -0.4880  0.2853
21520SOL    HW168348   7.558   8.911   0.204 -1.2521  1.6544 -0.7418
21520SOL    HW268349   7.656   9.026   0.202  1.2457 -0.3105  1.4018
21521SOL     OW68350   4.768   8.917   0.183 -0.0380  0.0636 -0.2263
21521SOL    HW168351   4.826   8.842   0.183  0.3595  0.3712 -0.4258
21521SOL    HW268352   4.757   8.938   0.276  1.0451  0.6732 -0.2183
21522SOL     OW68353   2.939   2.210   9.921 -0.7084 -0.1080  0.1145
21522SOL    HW168354   2.997   2.143   9.885 -0.8668 -1.0033  1.4314
21522SOL    HW268355   2.852   2.173   9.913 -0.6806 -0.7555  2.1625
21523SOL     OW68356   0.147   2.447   5.322  0.0632 -0.4505  0.7121
21523SOL    HW168357   0.118   2.537   5.313 -2.4676 -1.2744 -0.4191
21523SOL    HW268358   0.077   2.404   5.371  0.5886 -2.0480  0.1392
21524SOL     OW68359   4.796   8.420   3.858 -0.0426  0.0474  0.0837
21524SOL    HW168360   4.847   8.477   3.801  1.0776 -0.0303  0.9798
21524SOL    HW268361   4.727   8.385   3.801 -0.4264  1.8420 -0.6233
21525SOL     OW68362   5.885   4.677   3.603 -0.2984 -0.1518 -0.0519
21525SOL    HW168363   5.967   4.673   3.554 -0.3818  1.2044 -0.3233
21525SOL    HW268364   5.912   4.680   3.695 -0.0572 -0.0443 -0.1251
21526SOL     OW68365   7.163   7.355   0.938  0.0508  0.4573  0.2690
21526SOL    HW168366   7.230   7.416   0.969 -0.2579  0.7080  0.4502
21526SOL    HW268367   7.204   7.310   0.864  0.8035 -0.1395  1.0254
21527SOL     OW68368   6.722   2.896   2.648  0.9124  0.2262  0.3845
21527SOL    HW168369   6.787   2.924   2.712  0.8638 -1.4292  1.2137
21527SOL    HW268370   6.766   2.829   2.596  0.2707 -0.0185  0.1380
21528SOL     OW68371   1.465   5.754  10.134 -0.5805  0.0317  0.1218
21528SOL    HW168372   1.470   5.850  10.135  1.6794 -0.0323  0.3738
21528SOL    HW268373   1.498   5.727  10.220  0.6027 -1.0063 -0.6328
21529SOL     OW68374   7.500   2.441   2.685 -0.1040  0.7167 -0.4766
21529SOL    HW168375   7.579   2.392   2.707 -0.5292 -0.2465 -1.0800
21529SOL    HW268376   7.506   2.455   2.590 -0.3106  1.2715 -0.4119
21530SOL     OW68377   2.969   3.564   3.397 -0.1666  0.4826 -0.0508
21530SOL    HW168378   2.949   3.525   3.312  0.9400 -0.4545  0.0846
21530SOL    HW268379   2.890   3.610   3.422 -1.9695 -2.5336  0.2467
21531SOL     OW68380   9.892   3.626   8.707 -0.0590  0.0720  0.3290
21531SOL    HW168381   9.813   3.678   8.694  0.6613  1.4442  1.1173
21531SOL    HW268382   9.959   3.672   8.657  0.2624 -1.0561 -0.3049
21532SOL     OW68383   9.803   4.858   8.201  0.3578  0.2533  0.2888
21532SOL    HW168384   9.728   4.916   8.209 -2.0295 -2.8132  2.7261
21532SOL    HW268385   9.874   4.903   8.248 -0.9510  1.7299  0.9223
21533SOL     OW68386   4.269   7.849   2.999 -0.0473  0.6758  0.5309
21533SOL    HW168387   4.294   7.757   3.004  0.9223  0.9273  0.5992
21533SOL    HW268388   4.280   7.872   2.907  0.7752  0.9899  0.6949
21534SOL     OW68389   6.239   3.347   8.703  0.2057  0.1938  0.2150
21534SOL    HW168390   6.183   3.412   8.745  0.4371 -0.2717  1.2819
21534SOL    HW268391   6.212   3.263   8.741 -0.2096 -0.3764 -1.2701
21535SOL     OW68392   4.880   1.827   4.979  0.0252 -0.1932 -0.4709
21535SOL    HW168393   4.807   1.824   5.041 -0.2819 -2.4950 -0.8608
21535SOL    HW268394   4.957   1.807   5.033  0.2223  0.9147 -0.3073
21536SOL     OW68395   5.045   3.381   8.008  0.3035  0.5096 -0.0827
21536SOL    HW168396   5.031   3.376   8.103 -1.4902  1.1538 -0.2759
21536SOL    HW268397   4.970   3.333   7.971  1.6672 -0.8594 -1.1741
21537SOL     OW68398   0.605   1.986   6.348 -0.2652  0.1114 -0.7121
21537SOL    HW168399   0.532   2.025   6.396 -1.8587 -1.3508 -1.8262
21537SOL    HW268400   0.663   2.060   6.329 -1.0288  1.1864  0.8831
21538SOL     OW68401   5.025   4.544   2.912  0.1296  0.4075  0.0219
21538SOL    HW168402   4.996   4.474   2.970  2.4732 -0.8360 -0.1935
21538SOL    HW268403   4.988   4.624   2.950 -1.2639 -0.7398  1.1988
21539SOL     OW68404   5.058   7.854   2.871 -0.1548 -0.1021  0.0873
21539SOL    HW168405   5.056   7.934   2.819 -1.2898 -0.6108 -0.6929
21539SOL    HW268406   5.139   7.811   2.846  0.8248  1.1257  1.0471
21540SOL     OW68407   8.735  10.105   8.306 -0.0501 -0.6673  0.5075
21540SOL    HW168408   8.822  10.137   8.330 -0.3870  0.5712  0.1876
21540SOL    HW268409   8.751  10.032   8.246  0.7573 -1.3388  1.5125
21541SOL     OW68410   0.390   8.010   9.157 -0.3865  0.0552 -0.5905
21541SOL    HW168411   0.395   8.006   9.061 -0.3890 -1.3828 -0.5553
21541SOL    HW268412   0.363   7.922   9.183 -1.0349  0.6087  0.7077
21542SOL     OW68413   7.855   6.237   5.208 -0.2032 -0.0216  0.1947
21542SOL    HW168414   7.924   6.170   5.207 -1.0287 -0.8911  0.4441
21542SOL    HW268415   7.815   6.232   5.121 -0.2237  0.2041  0.1906
21543SOL     OW68416   9.523   7.691   5.750 -0.7026 -0.3427 -0.0178
21543SOL    HW168417   9.555   7.781   5.759  1.4111 -1.1118  0.7990
21543SOL    HW268418   9.553   7.664   5.663  0.6341 -0.9441  0.6027
21544SOL     OW68419   1.332   6.210   3.405  0.0329 -0.8711  0.1131
21544SOL    HW168420   1.274   6.223   3.330 -0.7898  2.4758  1.1496
21544SOL    HW268421   1.280   6.161   3.468 -1.8444  1.9758  0.9873
21545SOL     OW68422   4.597   7.825   2.125 -0.7656  0.1297 -0.2489
21545SOL    HW168423   4.597   7.756   2.059 -3.1267 -1.5345  1.2980
21545SOL    HW268424   4.612   7.906   2.076 -0.6024 -1.1904 -2.5162
21546SOL     OW68425   3.021   7.346   2.111 -0.1250  0.0130  0.2840
21546SOL    HW168426   3.001   7.258   2.079  1.5084 -0.7948  1.3701
21546SOL    HW268427   2.958   7.360   2.182 -0.7437 -0.0440 -0.2437
21547SOL     OW68428  10.222   3.138   7.382 -0.1659  0.1523  0.0696
21547SOL    HW168429  10.132   3.116   7.355  0.5609 -2.0972 -0.7667
21547SOL    HW268430  10.212   3.179   7.468 -1.9922 -0.1949  0.0652
21548SOL     OW68431   8.325   3.795   8.565  0.3642  0.6918  0.1587
21548SOL    HW168432   8.379   3.864   8.528 -1.0683  0.8845 -1.6949
21548SOL    HW268433   8.306   3.737   8.491 -1.1768  0.1416  0.9447
21549SOL     OW68434   4.184   9.799   7.161  0.0759  0.3051 -0.1347
21549SOL    HW168435   4.095   9.804   7.196  0.2146 -0.4979  0.3626
21549SOL    HW268436   4.179   9.729   7.095  0.4216 -0.0079  0.1675
21550SOL     OW68437   4.555   6.300   8.937 -0.1577 -0.0461 -0.5761
21550SOL    HW168438   4.473   6.339   8.906  0.0148 -0.1423 -1.1758
21550SOL    HW268439   4.619   6.371   8.934 -0.3654  0.1977  0.5258
21551SOL     OW68440   8.530   8.519   4.377 -0.2899  0.2955 -0.1253
21551SOL    HW168441   8.495   8.548   4.461 -0.0527  1.3808 -0.3886
21551SOL    HW268442   8.477   8.564   4.311 -1.4031 -1.6298 -0.6126
21552SOL     OW68443   7.313   4.464   8.621 -0.4520 -0.6567 -0.4925
21552SOL    HW168444   7.361   4.454   8.703 -1.3142 -0.7582  0.0090
21552SOL    HW268445   7.375   4.435   8.554  0.1046 -1.0101  0.1594
21553SOL     OW68446   6.170   2.616   0.650  0.0569  0.0912  0.2980
21553SOL    HW168447   6.104   2.591   0.585  0.1320 -0.6230  0.4915
21553SOL    HW268448   6.219   2.687   0.608 -0.8662  0.6766  0.1720
21554SOL     OW68449   8.123   1.397   4.971 -0.1034 -0.0866  0.1558
21554SOL    HW168450   8.172   1.378   4.890  0.4690 -0.0597  0.4881
21554SOL    HW268451   8.046   1.445   4.941 -0.8782 -1.6895 -0.5706
21555SOL     OW68452   7.775   0.008   1.642 -0.0803  0.3277 -0.0058
21555SOL    HW168453   7.716   0.031   1.570 -1.0456  0.4351  0.7974
21555SOL    HW268454   7.737   0.051   1.719 -0.7796 -2.1690  1.1651
21556SOL     OW68455   6.137   0.395   5.856 -0.6989 -0.4169 -0.1613
21556SOL    HW168456   6.099   0.480   5.836  0.3663 -0.0380 -0.6367
21556SOL    HW268457   6.063   0.342   5.887 -1.4357  0.5558 -0.2223
21557SOL     OW68458   2.502   2.605   0.996 -0.1132 -0.1766  0.1720
21557SOL    HW168459   2.577   2.638   1.045 -0.4019 -0.5727  0.9111
21557SOL    HW268460   2.427   2.622   1.053 -0.4571 -0.6639 -0.1268
21558SOL     OW68461   1.439   8.897   8.681 -0.2120  0.1002 -0.3339
21558SOL    HW168462   1.379   8.836   8.726  0.0196 -1.0539 -1.5422
21558SOL    HW268463   1.474   8.951   8.752 -1.2814 -0.4140  0.6373
21559SOL     OW68464   9.080   3.097   6.213 -0.1881  0.0338  0.2050
21559SOL    HW168465   9.080   3.152   6.291  0.3088 -2.6074  2.2253
21559SOL    HW268466   9.074   3.159   6.140 -2.1392  2.5820  2.3100
21560SOL     OW68467   0.071   4.362   0.960  0.3116 -0.1690 -0.0215
21560SOL    HW168468   0.029   4.399   1.038  0.0695  1.8556 -1.0559
21560SOL    HW268469   0.162   4.390   0.967  0.2012  0.3791 -0.6386
21561SOL     OW68470   9.063   2.400   1.227 -0.0473  0.1654  0.0957
21561SOL    HW168471   8.971   2.426   1.230  0.5095  2.3069 -0.1406
21561SOL    HW268472   9.069   2.347   1.148 -0.9236  0.6875 -0.3421
21562SOL     OW68473   0.053   5.774   0.204 -0.3119  0.2071  0.6469
21562SOL    HW168474  -0.019   5.752   0.145  0.8523  0.6323 -1.0051
21562SOL    HW268475   0.067   5.695   0.255  0.4639 -1.2044 -1.6286
21563SOL     OW68476   6.279   4.112   1.837 -0.1699 -0.2368 -0.4539
21563SOL    HW168477   6.353   4.166   1.864  0.1879 -1.3863  0.9862
21563SOL    HW268478   6.203   4.170   1.846  0.3214  0.3453  0.0478
21564SOL     OW68479   7.275   1.369   4.795  0.5104 -0.0505 -0.1216
21564SOL    HW168480   7.366   1.383   4.768  0.4605 -1.0751 -0.8817
21564SOL    HW268481   7.238   1.312   4.728 -0.0590 -1.4309  1.2997
21565SOL     OW68482   6.286   1.434  10.122  0.3171  0.7007 -0.1119
21565SOL    HW168483   6.312   1.342  10.116 -1.6825  0.1267 -0.7943
21565SOL    HW268484   6.322   1.463  10.205  0.1106 -1.0130  0.6329
21566SOL     OW68485   0.840   8.397   8.337 -0.7072  0.2409 -0.0548
21566SOL    HW168486   0.764   8.363   8.289  0.4435  0.3372 -2.0577
21566SOL    HW268487   0.843   8.344   8.416 -2.2831 -0.4336 -0.3954
21567SOL     OW68488   3.013   3.027   0.524 -0.2336 -0.0411  0.6717
21567SOL    HW168489   3.043   2.976   0.599 -1.9504  0.0165  1.4481
21567SOL    HW268490   3.025   2.968   0.449  2.0365  0.1067  0.8583
21568SOL     OW68491   3.028   4.974   1.063 -0.2477 -0.4510  0.8179
21568SOL    HW168492   3.048   4.977   0.970 -0.8443 -0.6610  0.6758
21568SOL    HW268493   3.113   4.964   1.106  0.1762  0.9932  0.3808
21569SOL     OW68494   8.679   8.582   9.351 -0.2224  0.0987  0.3650
21569SOL    HW168495   8.701   8.495   9.384 -0.1242 -0.4798 -1.1648
21569SOL    HW268496   8.763   8.622   9.329 -0.3333  0.1167 -0.0405
21570SOL     OW68497   5.933   7.390   0.759  0.3877 -0.0301 -0.4292
21570SOL    HW168498   5.904   7.339   0.835  1.8460 -0.8868 -0.4057
21570SOL    HW268499   5.853   7.430   0.725 -0.4273 -0.3410  1.0297
21571SOL     OW68500   4.033   9.232   3.409 -0.0579  0.0693 -0.5800
21571SOL    HW168501   4.065   9.161   3.353  2.3820 -0.8859  1.7644
21571SOL    HW268502   3.983   9.187   3.478 -0.3235  0.8540 -0.2515
21572SOL     OW68503   4.815   8.728  10.280  0.7557 -0.1837  0.3763
21572SOL    HW168504   4.781   8.723  10.369 -2.2021  0.7848 -0.6018
21572SOL    HW268505   4.863   8.646  10.268  0.1740 -0.8702  2.4328
21573SOL     OW68506   3.325  10.129   8.809  0.0439  0.6301  0.2601
21573SOL    HW168507   3.413  10.163   8.822  0.4739 -0.1795 -0.3832
21573SOL    HW268508   3.335  10.034   8.812 -0.4129  0.4528 -1.9581
21574SOL     OW68509   9.649   3.247   1.428 -0.0866  0.8560  0.1997
21574SOL    HW168510   9.668   3.261   1.521 -0.6613 -0.4760  0.5464
21574SOL    HW268511   9.654   3.153   1.417 -1.0001  0.9151 -0.8989
21575SOL     OW68512   0.608   2.417   8.570 -0.4532  0.2799 -0.6373
21575SOL    HW168513   0.575   2.496   8.528 -0.1505  1.4757  1.2719
21575SOL    HW268514   0.529   2.373   8.603 -0.5870  0.0072 -1.3122
21576SOL     OW68515   7.422   3.570   7.911  0.0945 -0.0319 -0.8321
21576SOL    HW168516   7.369   3.497   7.879  0.7576 -0.3741 -1.1629
21576SOL    HW268517   7.502   3.566   7.859  0.8170 -0.0432  0.2539
21577SOL     OW68518   5.211   6.881   5.947 -0.2434 -0.3893 -0.0288
21577SOL    HW168519   5.211   6.836   6.031 -0.5776  0.0295  0.2004
21577SOL    HW268520   5.302   6.881   5.920 -0.0018  0.2197  0.7451
21578SOL     OW68521   4.894   9.320   4.565 -0.4006 -0.4734  0.0957
21578SOL    HW168522   4.913   9.254   4.498  1.3263  0.0977 -0.0320
21578SOL    HW268523   4.923   9.281   4.647  0.0599 -0.1359  0.1033
21579SOL     OW68524   9.694   0.152   1.838  0.3685  0.0716 -0.4233
21579SOL    HW168525   9.747   0.231   1.829 -0.7403  0.7920 -0.8611
21579SOL    HW268526   9.609   0.183   1.869 -1.2030 -0.4564 -3.6879
21580SOL     OW68527  10.307   3.082   3.774 -0.3476  0.3143 -0.1949
21580SOL    HW168528  10.326   3.165   3.729 -1.3969 -0.5182 -2.2921
21580SOL    HW268529  10.212   3.086   3.790 -0.3682 -0.3939 -0.1369
21581SOL     OW68530   5.433   6.300   8.716  0.0676  0.8741  0.4899
21581SOL    HW168531   5.470   6.331   8.799  0.8129  0.8627  0.1745
21581SOL    HW268532   5.339   6.305   8.728  0.1649  0.5797  1.4502
21582SOL     OW68533   9.659   6.509   3.417  0.4156  0.6385 -0.6021
21582SOL    HW168534   9.623   6.529   3.504  0.5265 -2.3826  0.2849
21582SOL    HW268535   9.605   6.560   3.356 -2.2916 -0.0759  0.9985
21583SOL     OW68536   5.793  10.001   1.761 -0.7016  0.4535  0.4096
21583SOL    HW168537   5.886  10.009   1.784 -1.2514  1.7194  2.4654
21583SOL    HW268538   5.790  10.023   1.667  0.8003  2.9473  0.8539
21584SOL     OW68539   1.358   8.234   0.119 -0.4893 -0.2426  0.4048
21584SOL    HW168540   1.286   8.171   0.115  0.0036 -0.8423  0.7699
21584SOL    HW268541   1.400   8.217   0.203 -0.3204  0.5493  0.4830
21585SOL     OW68542   8.611   4.743   0.188  0.1845 -0.3866  0.0603
21585SOL    HW168543   8.615   4.647   0.189 -0.1639 -0.4062 -0.3627
21585SOL    HW268544   8.678   4.769   0.125  1.7726 -0.2583  1.7131
21586SOL     OW68545   9.440   6.742   5.097  0.1563  0.6819  0.3384
21586SOL    HW168546   9.373   6.717   5.033 -0.1016 -0.1917  0.9387
21586SOL    HW268547   9.510   6.677   5.086  0.4379  0.9630  0.4448
21587SOL     OW68548   4.363   6.821   4.565 -0.8733  0.1362 -0.0335
21587SOL    HW168549   4.321   6.737   4.584 -3.6558  1.3424 -0.4336
21587SOL    HW268550   4.333   6.844   4.477 -2.3898  2.7167  1.0357
21588SOL     OW68551   3.902   1.057   4.165 -0.3208  0.0433 -0.1232
21588SOL    HW168552   3.819   1.089   4.130 -1.3542 -1.0011  1.1934
21588SOL    HW268553   3.931   1.125   4.225  0.1539  0.7242 -1.1146
21589SOL     OW68554   4.552   0.675   9.926 -0.4653 -0.2563  0.0497
21589SOL    HW168555   4.532   0.625  10.005 -4.1863 -1.2805 -1.3314
21589SOL    HW268556   4.530   0.766   9.948 -1.8137 -0.5880  0.1445
21590SOL     OW68557   7.488   2.544   1.487  0.0341 -0.3343  0.2505
21590SOL    HW168558   7.457   2.605   1.419  1.3482 -1.0317 -1.0300
21590SOL    HW268559   7.413   2.487   1.503 -0.6351  0.4941  0.1638
21591SOL     OW68560   8.843   6.240   8.355  0.0535  0.4672  0.5326
21591SOL    HW168561   8.841   6.212   8.446  0.6177  0.0967  0.4365
21591SOL    HW268562   8.936   6.238   8.331 -0.3127 -3.3490 -1.2251
21592SOL     OW68563   8.289   9.611   5.162 -0.1902  0.4489  0.0757
21592SOL    HW168564   8.262   9.660   5.240  0.4675  1.9099 -0.5759
21592SOL    HW268565   8.373   9.650   5.137  0.6370 -1.3831 -0.1854
21593SOL     OW68566   9.983   7.724   0.061  0.2006 -0.4322 -0.1134
21593SOL    HW168567   9.923   7.736  -0.013  0.1928 -1.4314 -0.2811
21593SOL    HW268568  10.067   7.757   0.029 -0.0084 -0.0337 -0.2562
21594SOL     OW68569   5.846   6.686   1.684  0.5433  0.1054 -0.0783
21594SOL    HW168570   5.926   6.699   1.734  1.1615  1.7416 -1.3968
21594SOL    HW268571   5.850   6.750   1.613 -1.4278 -0.4887 -0.8306
21595SOL     OW68572   6.990   6.726   5.079  0.1170 -0.4471 -0.5943
21595SOL    HW168573   6.950   6.708   5.165  0.0362  3.5750  0.4123
21595SOL    HW268574   7.079   6.694   5.087  0.7069  1.5135  1.8212
21596SOL     OW68575   9.963   8.898   3.029 -0.3819  0.3242  0.1121
21596SOL    HW168576   9.960   8.912   2.935 -0.6467  1.1800  0.2417
21596SOL    HW268577   9.971   8.803   3.039 -2.2977  0.0272 -0.7448
21597SOL     OW68578  10.259   9.816   0.881 -0.0393  0.0561  0.0680
21597SOL    HW168579  10.251   9.788   0.972  2.1007  1.4478  0.7866
21597SOL    HW268580  10.304   9.744   0.837  0.8365  0.2076  0.6743
21598SOL     OW68581  10.169   8.987   1.086 -0.5636 -0.4923  0.1597
21598SOL    HW168582  10.215   9.035   1.155  0.9491 -0.8471 -0.5545
21598SOL    HW268583  10.137   8.908   1.129  0.2593 -0.6549  0.4893
21599SOL     OW68584   1.396   1.929   8.191  0.4751 -0.2739  0.4199
21599SOL    HW168585   1.354   1.861   8.244 -1.8101  1.1812  0.5943
21599SOL    HW268586   1.324   1.969   8.142  2.2385 -0.3761 -2.5010
21600SOL     OW68587   5.034   6.474   3.664  0.0193  0.4137  0.2580
21600SOL    HW168588   5.071   6.388   3.681  1.5074  0.9504 -0.0353
21600SOL    HW268589   5.086   6.533   3.719 -1.6892  1.0294  1.2939
21601SOL     OW68590   8.863   9.574   1.019  0.2508 -0.7734 -0.6938
21601SOL    HW168591   8.801   9.613   1.080  1.3430  1.5984 -0.9992
21601SOL    HW268592   8.839   9.610   0.934  0.6019 -1.6842 -1.1936
21602SOL     OW68593   7.295   8.947   5.104  0.0073  0.3991 -0.0013
21602SOL    HW168594   7.345   8.881   5.056  0.9178 -1.2152  2.9283
21602SOL    HW268595   7.283   9.018   5.042  0.1193 -1.9534 -2.9337
21603SOL     OW68596   5.009   0.750   4.323  0.0808  0.0560  0.1112
21603SOL    HW168597   4.915   0.744   4.338 -0.3617  3.2228 -0.5972
21603SOL    HW268598   5.048   0.754   4.410 -0.6859  0.8123  0.4306
21604SOL     OW68599   8.431   5.083   4.557  0.0540 -0.1664  0.2474
21604SOL    HW168600   8.495   5.146   4.590 -0.9272  1.2305 -0.3894
21604SOL    HW268601   8.468   5.054   4.473 -0.7739  1.7826 -0.8642
21605SOL     OW68602   5.334   4.055   9.452  0.4455  0.2455 -0.6331
21605SOL    HW168603   5.383   3.981   9.415  0.0274 -0.6777  0.5552
21605SOL    HW268604   5.244   4.023   9.458  0.7466 -0.3508  2.6699
21606SOL     OW68605   5.910   3.014   6.677 -0.0947  0.2760  0.2897
21606SOL    HW168606   5.970   2.969   6.736 -0.3421 -0.7326 -0.2050
21606SOL    HW268607   5.846   3.056   6.736  0.3862  0.3507  0.7697
21607SOL     OW68608   9.257   5.146   5.400  0.3323 -0.5606  0.2107
21607SOL    HW168609   9.234   5.095   5.477  0.4033 -2.0712 -0.7270
21607SOL    HW268610   9.342   5.112   5.373 -0.2477 -0.9581 -1.2318
21608SOL     OW68611   9.565   6.245   6.841 -0.2020 -0.1167 -0.2587
21608SOL    HW168612   9.509   6.174   6.872 -0.3862 -0.1901 -0.7413
21608SOL    HW268613   9.654   6.218   6.863 -0.2607 -0.5609 -0.5517
21609SOL     OW68614   7.042   7.518   8.797  0.7250 -0.0117 -0.1403
21609SOL    HW168615   7.083   7.439   8.763 -0.5604 -0.4486 -0.7627
21609SOL    HW268616   7.021   7.570   8.719 -0.2052  0.0192  0.1128
21610SOL     OW68617   6.422   9.645   2.826 -0.2503 -0.0632  0.8777
21610SOL    HW168618   6.331   9.656   2.854 -0.9222 -2.7375  0.0268
21610SOL    HW268619   6.457   9.580   2.887  0.0604 -1.4550 -0.7098
21611SOL     OW68620   3.421   0.061   2.111  0.3207 -0.1618 -0.1411
21611SOL    HW168621   3.473   0.071   2.031 -1.7754  2.3573 -1.3208
21611SOL    HW268622   3.381   0.147   2.124  0.5996 -0.4659  3.7037
21612SOL     OW68623   8.056  10.258   2.151 -0.5612 -0.3113  0.3234
21612SOL    HW168624   8.135  10.242   2.203 -0.8956  1.1930  1.3521
21612SOL    HW268625   8.085  10.252   2.060  1.0933  1.6712  0.6581
21613SOL     OW68626   5.161   6.111   6.302 -0.0579 -0.3273 -0.2328
21613SOL    HW168627   5.206   6.182   6.256 -0.4983  0.2818  0.2638
21613SOL    HW268628   5.135   6.150   6.386 -0.9841 -0.8458 -0.2739
21614SOL     OW68629   8.922   8.796   1.977  0.3411  0.2158 -0.0997
21614SOL    HW168630   8.975   8.876   1.981  1.0816 -0.2956  0.7059
21614SOL    HW268631   8.886   8.787   2.066  2.1079 -1.5394  0.5125
21615SOL     OW68632   2.270   6.855   2.224  0.2441  0.5451 -0.0086
21615SOL    HW168633   2.200   6.875   2.286 -1.3466 -0.1101 -1.4901
21615SOL    HW268634   2.301   6.768   2.248 -1.4343 -0.3757 -0.9922
21616SOL     OW68635   7.919   0.376   9.969 -0.0493  0.5427  0.3812
21616SOL    HW168636   8.005   0.386   9.927  1.0598 -1.1285  2.0978
21616SOL    HW268637   7.857   0.409   9.904  1.8117  0.9895 -1.2737
21617SOL     OW68638   7.848   1.455   0.397 -0.5473 -0.3977 -0.2244
21617SOL    HW168639   7.825   1.474   0.306  2.0334  2.1640 -0.4928
21617SOL    HW268640   7.913   1.384   0.390 -1.0017 -0.8142 -0.2803
21618SOL     OW68641   0.178   4.447   2.930  0.1837 -0.4708  0.6642
21618SOL    HW168642   0.177   4.392   3.009  1.9309 -0.1435  0.9521
21618SOL    HW268643   0.263   4.491   2.932  0.5167 -0.8604 -1.6871
21619SOL     OW68644   2.372   5.951   0.919  0.6175 -0.0284  0.0743
21619SOL    HW168645   2.379   5.903   1.002 -0.9748  0.4102  0.5019
21619SOL    HW268646   2.436   5.910   0.862  1.6042 -0.4855  1.4611
21620SOL     OW68647   5.239   9.191   4.955 -0.0368  0.2249 -0.4119
21620SOL    HW168648   5.208   9.108   4.919 -3.6978  1.2979 -0.1304
21620SOL    HW268649   5.193   9.200   5.038  1.5713  1.8101  0.3705
21621SOL     OW68650   2.665   0.360   2.086 -0.0079  0.9743  0.0822
21621SOL    HW168651   2.759   0.358   2.103  0.0528  1.1563 -0.2125
21621SOL    HW268652   2.626   0.388   2.168  0.1155 -0.0421  0.4983
21622SOL     OW68653   3.116   0.593   1.874 -1.0208 -0.2059 -0.3064
21622SOL    HW168654   3.195   0.593   1.928 -0.4696 -0.6312 -1.0960
21622SOL    HW268655   3.084   0.503   1.878  1.0582 -1.2492 -3.5375
21623SOL     OW68656   4.137   0.125   2.899 -0.1033  0.2415 -0.2858
21623SOL    HW168657   4.099   0.209   2.872 -1.4465 -0.5910 -1.1251
21623SOL    HW268658   4.096   0.061   2.840  2.9688 -0.7071 -1.5707
21624SOL     OW68659   9.249   1.291  10.285 -0.4508  0.2641 -0.2234
21624SOL    HW168660   9.293   1.342  10.353 -0.2431  0.6971 -0.6742
21624SOL    HW268661   9.159   1.325  10.285 -0.0757  1.3237 -1.1710
21625SOL     OW68662   7.551   7.542   3.326 -0.7457  0.7639 -0.7521
21625SOL    HW168663   7.604   7.521   3.249 -0.9901  2.4946 -1.4206
21625SOL    HW268664   7.461   7.535   3.295 -0.8561  0.9268 -0.4675
21626SOL     OW68665   2.791   1.474   8.978  0.3266 -0.2579  0.5233
21626SOL    HW168666   2.814   1.503   9.066  0.6013  0.0957  0.3369
21626SOL    HW268667   2.874   1.468   8.931  0.1459 -0.0541  0.1710
21627SOL     OW68668   3.995   1.187   9.436  0.5062  0.3545 -0.6896
21627SOL    HW168669   4.064   1.146   9.487  0.8003 -1.0224 -2.0969
21627SOL    HW268670   3.922   1.124   9.440 -0.4920  1.5228  0.3072
21628SOL     OW68671   7.518   3.576   1.402 -0.0096  0.4520  0.0512
21628SOL    HW168672   7.552   3.665   1.415  2.6447 -0.5188  0.2501
21628SOL    HW268673   7.427   3.582   1.429  0.3881  2.8509  1.1640
21629SOL     OW68674   2.038   5.108   8.325 -0.3781  0.7047 -0.4513
21629SOL    HW168675   2.012   5.155   8.404  1.1709 -0.5319  0.8579
21629SOL    HW268676   1.965   5.121   8.264 -1.6397  1.6346  1.1894
21630SOL     OW68677   6.641   8.133   0.782  0.2192  0.1858 -0.1643
21630SOL    HW168678   6.726   8.172   0.759 -0.0257  2.4287  2.2210
21630SOL    HW268679   6.663   8.060   0.840  0.5505  0.4188  0.0100
21631SOL     OW68680   3.458   8.511  10.176  0.4189 -0.1960  0.0443
21631SOL    HW168681   3.376   8.536  10.133  0.7655  1.5875  0.3437
21631SOL    HW268682   3.515   8.587  10.164  1.3421 -0.6111  1.5779
21632SOL     OW68683   5.004   5.046   1.560  0.0454  0.2207 -0.2932
21632SOL    HW168684   4.966   5.006   1.481  2.6208  1.3519 -2.2369
21632SOL    HW268685   5.076   4.988   1.583 -0.1359  0.3890  0.7259
21633SOL     OW68686   3.452   1.614   7.656 -0.6855 -0.2615  0.3178
21633SOL    HW168687   3.365   1.611   7.695 -0.9601  0.7999 -0.1823
21633SOL    HW268688   3.509   1.573   7.721 -1.3657  0.1460  1.1844
21634SOL     OW68689   5.273   1.891   1.917  0.0100  0.0135  0.1765
21634SOL    HW168690   5.232   1.964   1.963 -1.4674  1.2294 -2.8306
21634SOL    HW268691   5.212   1.818   1.928 -1.0889  0.7167 -0.9889
21635SOL     OW68692   4.746   3.436   5.521  0.6681 -0.1321 -0.2482
21635SOL    HW168693   4.790   3.362   5.479  1.7663 -0.0355  0.6801
21635SOL    HW268694   4.666   3.398   5.558  1.7794 -1.1838  1.2498
21636SOL     OW68695   5.313   0.529   0.704  0.2433  0.3853  0.1605
21636SOL    HW168696   5.302   0.586   0.628  3.6066  0.0654 -0.7448
21636SOL    HW268697   5.341   0.445   0.668  1.7858  0.1829  1.6752
21637SOL     OW68698   1.241   1.335   7.344  0.3777 -0.0806  0.4264
21637SOL    HW168699   1.204   1.288   7.269 -0.7220  1.2098  0.1243
21637SOL    HW268700   1.289   1.408   7.306 -2.3710  2.1739  0.9311
21638SOL     OW68701   4.171   9.319   7.925 -0.2283  0.6582  0.5668
21638SOL    HW168702   4.081   9.345   7.940  0.3392  2.4243  1.2041
21638SOL    HW268703   4.173   9.225   7.943 -2.4948 -0.0603 -2.2278
21639SOL     OW68704   3.771   0.902   9.958  0.2648 -0.2142  0.3532
21639SOL    HW168705   3.739   0.814   9.976 -0.2754  0.2589  1.8738
21639SOL    HW268706   3.733   0.956  10.027  1.2637  1.0645 -0.0531
21640SOL     OW68707   5.469   2.702   6.186 -0.3999 -0.2477 -0.4746
21640SOL    HW168708   5.461   2.757   6.264  1.3943 -1.7225  0.8563
21640SOL    HW268709   5.442   2.759   6.113 -2.0352  1.2130  1.1742
21641SOL     OW68710   4.921   9.836   5.206 -0.0804  0.1326 -0.8053
21641SOL    HW168711   4.886   9.924   5.220 -1.8759 -0.6457 -0.0309
21641SOL    HW268712   4.979   9.821   5.280 -0.7902  0.2037 -0.2183
21642SOL     OW68713   9.501   7.355   5.708 -0.1516 -0.3003 -0.4627
21642SOL    HW168714   9.558   7.281   5.731  0.4080 -0.5031 -2.3276
21642SOL    HW268715   9.413   7.322   5.726  0.2119 -0.2891  1.6383
21643SOL     OW68716   8.147   0.781   8.962  0.7735 -0.4320  0.0328
21643SOL    HW168717   8.213   0.748   9.023  2.4440 -0.4129 -1.6705
21643SOL    HW268718   8.147   0.876   8.976 -0.7132 -0.6164  1.7121
21644SOL     OW68719   6.062   2.544   7.940 -0.7064 -0.2520 -0.3591
21644SOL    HW168720   6.040   2.463   7.893 -1.2904  0.7471 -1.8606
21644SOL    HW268721   6.006   2.542   8.018  1.3177 -2.6496  1.1907
21645SOL     OW68722   8.759   2.665   1.139 -0.4559  0.0192 -0.2448
21645SOL    HW168723   8.754   2.644   1.046 -1.6272 -0.1825 -0.1487
21645SOL    HW268724   8.729   2.585   1.183  1.4338 -0.4046  0.3878
21646SOL     OW68725   5.655   5.670   3.701  0.0789 -0.3518 -0.1850
21646SOL    HW168726   5.587   5.737   3.710  0.8278  0.5543 -0.9582
21646SOL    HW268727   5.611   5.597   3.656  0.0560  1.0227 -2.5776
21647SOL     OW68728   0.599   9.427   5.078  0.1403  0.2111 -0.5054
21647SOL    HW168729   0.642   9.459   5.157  0.3641  0.4282 -0.7096
21647SOL    HW268730   0.658   9.454   5.007  0.5954 -1.0944 -0.6537
21648SOL     OW68731   0.725   7.869   6.236 -0.2057 -0.1136 -0.2022
21648SOL    HW168732   0.646   7.836   6.193 -0.1859 -0.6410  0.1592
21648SOL    HW268733   0.788   7.798   6.226 -0.8024 -1.1431  2.4566
21649SOL     OW68734   0.021   6.032   2.144  0.0569  0.2706  0.3572
21649SOL    HW168735   0.086   6.017   2.212  0.5827 -1.2808 -0.4369
21649SOL    HW268736   0.044   6.117   2.106  0.5941  0.4996  1.1763
21650SOL     OW68737   8.917   0.666   5.693 -0.5291  0.1615 -0.4044
21650SOL    HW168738   8.975   0.721   5.640 -0.6560  0.9248  0.2253
21650SOL    HW268739   8.965   0.584   5.704  2.3035  2.0337  3.3560
21651SOL     OW68740   2.305   4.456   3.375 -0.4493 -0.1337  0.1341
21651SOL    HW168741   2.399   4.457   3.394 -0.3398 -0.0594 -0.3920
21651SOL    HW268742   2.296   4.514   3.299 -0.9854  0.2415  0.4805
21652SOL     OW68743   2.210   5.577   2.539 -0.1775 -0.0838  0.4744
21652SOL    HW168744   2.199   5.487   2.509  0.4391  0.5974 -1.9959
21652SOL    HW268745   2.151   5.628   2.484  2.6554  1.5126 -1.3279
21653SOL     OW68746   0.184   5.401   4.527 -0.3695  0.3476 -0.0834
21653SOL    HW168747   0.206   5.324   4.474  3.4106 -0.1066  1.7725
21653SOL    HW268748   0.106   5.375   4.576 -1.5748 -0.6984 -2.3977
21654SOL     OW68749   1.092  10.068   5.094  0.0244 -0.3785  0.8342
21654SOL    HW168750   1.130   9.991   5.137  3.6209  0.5506 -0.3586
21654SOL    HW268751   1.045  10.033   5.019  0.3626 -1.5254  1.1372
21655SOL     OW68752   9.910   7.717   8.029 -0.0620 -0.0614  0.5995
21655SOL    HW168753   9.828   7.729   7.980 -2.5030 -0.3575  4.2383
21655SOL    HW268754   9.927   7.623   8.024 -0.9461 -0.2647  1.2275
21656SOL     OW68755   3.016  10.124   2.331 -0.7311  0.1201  0.3806
21656SOL    HW168756   2.939  10.095   2.379 -0.7270 -0.4584  0.0445
21656SOL    HW268757   3.034  10.054   2.268  0.1680  0.1599  0.5666
21657SOL     OW68758   1.519   6.842   4.171  0.2194  0.1258 -0.2919
21657SOL    HW168759   1.612   6.856   4.154  0.0357  1.7557 -0.1032
21657SOL    HW268760   1.516   6.760   4.221  1.7926  1.1433  1.6241
21658SOL     OW68761   7.313   7.248   1.543 -0.1875 -0.7084 -0.1794
21658SOL    HW168762   7.333   7.213   1.456 -0.3668 -1.3344  0.0220
21658SOL    HW268763   7.289   7.339   1.528  3.4814  0.3901 -0.3896
21659SOL     OW68764  10.140  10.179   2.813  0.0975 -0.2137  0.0844
21659SOL    HW168765  10.104  10.244   2.752 -0.9640 -0.3600  0.5386
21659SOL    HW268766  10.158  10.229   2.892  0.9006 -0.1460 -0.1315
21660SOL     OW68767   5.574   8.181   3.786  0.5789 -0.5555 -0.2060
21660SOL    HW168768   5.533   8.253   3.737  0.3278 -0.3910  0.2336
21660SOL    HW268769   5.628   8.225   3.851  0.1787 -0.7570  0.2707
21661SOL     OW68770   2.413   5.760   0.394  0.4229  0.3730  0.0873
21661SOL    HW168771   2.405   5.752   0.299  1.4541 -0.7384  0.0701
21661SOL    HW268772   2.473   5.833   0.407 -0.6507  1.3078 -0.0648
21662SOL     OW68773   9.554   1.498   0.468  0.0100  0.2294  0.1779
21662SOL    HW168774   9.548   1.540   0.554 -0.1623 -0.6021  0.5821
21662SOL    HW268775   9.465   1.504   0.433 -0.2556 -0.6639  0.6639
21663SOL     OW68776   0.758   1.609   5.093 -0.0441  0.8144  0.0764
21663SOL    HW168777   0.672   1.606   5.052  0.0287 -0.7462 -0.0313
21663SOL    HW268778   0.750   1.552   5.169  0.8277  0.7981  0.1657
21664SOL     OW68779   9.088   4.885   3.341  0.3768 -0.2531  0.3989
21664SOL    HW168780   9.178   4.916   3.328  0.0087  0.0625 -1.7318
21664SOL    HW268781   9.053   4.877   3.253 -1.4308 -1.2050  1.1680
21665SOL     OW68782   3.407   5.244  10.129 -0.6928  0.3283 -0.1725
21665SOL    HW168783   3.432   5.280  10.044 -0.9497  2.1593  0.4791
21665SOL    HW268784   3.489   5.213  10.168 -0.8287 -2.4598 -1.8705
21666SOL     OW68785   3.312   4.187   8.889 -0.1029  0.2857  0.8574
21666SOL    HW168786   3.382   4.253   8.893  0.4756 -0.3078  0.5749
21666SOL    HW268787   3.358   4.103   8.884 -0.7245 -0.0045 -2.9299
21667SOL     OW68788   3.010   4.226   2.128  0.3962 -0.0314 -0.1835
21667SOL    HW168789   2.960   4.154   2.167  0.7364 -0.9946 -1.4589
21667SOL    HW268790   3.040   4.278   2.203 -0.4119 -0.8436  0.7233
21668SOL     OW68791   1.800   7.216   8.418  0.2516 -0.2286  0.5752
21668SOL    HW168792   1.775   7.244   8.506 -0.4670 -1.5859  0.8308
21668SOL    HW268793   1.754   7.133   8.405 -1.1013  0.7786 -1.7689
21669SOL     OW68794   7.676   0.979   6.412 -0.0481  0.2334 -0.1658
21669SOL    HW168795   7.662   0.917   6.341  0.6860 -0.7743  0.5344
21669SOL    HW268796   7.639   1.061   6.381 -0.1983 -0.3224 -1.4937
21670SOL     OW68797   4.902   4.469   4.821  0.3187  0.3999 -0.4987
21670SOL    HW168798   4.993   4.452   4.846  0.8121  1.6684 -1.3374
21670SOL    HW268799   4.874   4.540   4.877  1.2240  2.8250 -2.9094
21671SOL     OW68800   5.383   9.400   3.675  0.0854 -0.3325  0.1892
21671SOL    HW168801   5.306   9.391   3.732 -0.4336 -0.5986 -0.5389
21671SOL    HW268802   5.452   9.431   3.733 -0.4896 -0.3959  0.9228
21672SOL     OW68803   6.984   9.731   3.708 -0.2270  0.3232 -0.3274
21672SOL    HW168804   6.959   9.643   3.683 -1.1602  1.1878 -2.6998
21672SOL    HW268805   7.079   9.735   3.694 -0.4330  0.1704 -1.9133
21673SOL     OW68806   7.912   5.753   0.804 -0.0620  0.0026 -0.5462
21673SOL    HW168807   7.840   5.703   0.766 -0.4380 -0.8422  1.1920
21673SOL    HW268808   7.870   5.809   0.869  0.6155  1.0786 -1.0158
21674SOL     OW68809   4.464   2.608   4.566 -0.5323 -0.0947  0.0888
21674SOL    HW168810   4.451   2.563   4.482  1.7183 -0.3177 -0.2150
21674SOL    HW268811   4.488   2.539   4.627 -0.9341  0.2216  0.6085
21675SOL     OW68812   3.700   8.873   8.088  0.4954 -0.2437 -0.7867
21675SOL    HW168813   3.605   8.878   8.099  0.6263 -0.8476  1.1581
21675SOL    HW268814   3.734   8.942   8.144  1.2041  1.1556 -2.8467
21676SOL     OW68815   0.326   5.076   9.254  0.7540 -0.2051  0.4309
21676SOL    HW168816   0.296   4.987   9.271 -0.4686 -0.0031 -0.4733
21676SOL    HW268817   0.381   5.098   9.329  0.2693 -1.3602  1.1561
21677SOL     OW68818   6.554   5.676   1.736  0.5469 -0.3605  0.0626
21677SOL    HW168819   6.490   5.683   1.666  0.1325  0.1955  0.4931
21677SOL    HW268820   6.634   5.716   1.700  0.0770  0.7473  0.2155
21678SOL     OW68821   3.596   3.223   4.709 -0.7616 -0.1643  0.0898
21678SOL    HW168822   3.528   3.167   4.673 -0.8254  0.3295 -0.5640
21678SOL    HW268823   3.674   3.167   4.712 -0.9239 -0.4053 -0.1806
21679SOL     OW68824   8.524   7.819   2.149 -0.2543 -0.2984 -0.2658
21679SOL    HW168825   8.431   7.840   2.145 -0.2795 -0.3233  0.0842
21679SOL    HW268826   8.527   7.734   2.194 -0.0149  0.1244  0.5346
21680SOL     OW68827   2.706   4.887   6.277  0.0074 -0.3323  0.1286
21680SOL    HW168828   2.641   4.819   6.259 -0.6685 -0.4607  2.6178
21680SOL    HW268829   2.780   4.839   6.314  0.3464  0.1009  0.0073
21681SOL     OW68830   4.749   2.414   6.688 -0.0172 -0.5701 -0.1222
21681SOL    HW168831   4.795   2.481   6.637  0.5244  0.5401  1.7192
21681SOL    HW268832   4.776   2.331   6.650  0.3825  0.2094 -1.6015
21682SOL     OW68833   5.210   6.037   5.981 -0.4582 -0.2133 -0.4059
21682SOL    HW168834   5.165   6.062   6.061 -0.6469  3.6654 -1.5514
21682SOL    HW268835   5.286   6.095   5.976  0.0617 -0.9523 -2.6132
21683SOL     OW68836   7.428   8.906   8.554  0.6446 -0.0599 -0.1317
21683SOL    HW168837   7.410   8.815   8.579 -3.4406  0.1039 -1.8016
21683SOL    HW268838   7.376   8.958   8.615  0.9579  1.0406 -0.7942
21684SOL     OW68839   7.038   7.470   4.435  0.2507  0.1041 -0.0431
21684SOL    HW168840   7.131   7.473   4.409 -0.2252  0.2297 -1.8716
21684SOL    HW268841   6.993   7.521   4.368 -1.0009  1.3161  1.6450
21685SOL     OW68842   1.477   3.915   0.623  0.0546 -0.0385 -0.1497
21685SOL    HW168843   1.410   3.858   0.660  0.6315  0.1984  1.3112
21685SOL    HW268844   1.516   3.959   0.698  1.5357  0.1902 -1.0056
21686SOL     OW68845   6.655   5.413   7.160  0.0060 -0.1014 -0.4625
21686SOL    HW168846   6.561   5.431   7.160 -0.1418 -0.4223  2.2079
21686SOL    HW268847   6.661   5.318   7.144 -0.3250 -0.4796  1.4068
21687SOL     OW68848   3.314   2.614   0.870  0.1425 -0.0073  0.5152
21687SOL    HW168849   3.223   2.631   0.894 -0.4158 -1.3339 -0.5386
21687SOL    HW268850   3.364   2.647   0.944 -1.2573 -0.1736  1.5952
21688SOL     OW68851   0.338   5.465   0.350  0.6528  0.1316 -0.2182
21688SOL    HW168852   0.375   5.400   0.291 -0.4158 -0.7202  0.0102
21688SOL    HW268853   0.362   5.434   0.438 -0.5467 -0.4139 -0.0707
21689SOL     OW68854   0.893   8.524   5.146  0.1436 -0.1088  0.1997
21689SOL    HW168855   0.838   8.464   5.197 -0.6099  0.6268  0.2810
21689SOL    HW268856   0.902   8.602   5.201  0.6154  0.0861 -0.1455
21690SOL     OW68857   7.165   3.019   9.721  0.4736 -0.2801  0.0884
21690SOL    HW168858   7.107   3.094   9.710  1.6680  0.5032 -1.1873
21690SOL    HW268859   7.106   2.947   9.745 -0.9495  0.6046 -0.5860
21691SOL     OW68860   9.112   8.422   9.539  0.0299 -0.3849  0.1954
21691SOL    HW168861   9.129   8.353   9.603  1.0984  0.2592  0.6217
21691SOL    HW268862   9.109   8.376   9.454 -0.2226 -1.0737  0.5669
21692SOL     OW68863   0.962   8.082  10.178  0.1883  0.4597 -0.4881
21692SOL    HW168864   0.922   8.014  10.233  0.1553 -0.7302 -1.9368
21692SOL    HW268865   0.888   8.138  10.154  0.1268  0.7305  0.3086
21693SOL     OW68866   6.064   2.545   4.529 -0.3438  0.2969 -0.5023
21693SOL    HW168867   6.148   2.539   4.483  1.0747 -1.3095  2.0903
21693SOL    HW268868   6.047   2.639   4.536  1.9498  0.7349  0.0437
21694SOL     OW68869   0.626   8.011   0.989 -0.0318 -0.3544  0.2443
21694SOL    HW168870   0.698   8.054   0.943 -1.3948 -0.9080 -2.6653
21694SOL    HW268871   0.638   7.918   0.970 -1.9026 -0.3882 -1.0565
21695SOL     OW68872   0.497   1.640   8.398  0.8996  0.4830  0.1496
21695SOL    HW168873   0.582   1.670   8.429  0.7478  1.7196 -0.5655
21695SOL    HW268874   0.450   1.615   8.478  2.0047 -0.4956  0.5311
21696SOL     OW68875  10.164   0.630   5.925  0.0246 -0.0520 -0.0184
21696SOL    HW168876  10.107   0.706   5.917  1.5030  1.0382 -0.6945
21696SOL    HW268877  10.174   0.598   5.836 -0.0130 -0.6152  0.1758
21697SOL     OW68878   5.384   2.009   0.327 -0.2310  0.7477 -0.1816
21697SOL    HW168879   5.353   2.036   0.413 -1.8566  1.5765 -0.9745
21697SOL    HW268880   5.479   2.000   0.337 -0.3863  0.8815  1.6652
21698SOL     OW68881   7.035  10.217   6.080 -0.1767 -0.8451  0.1074
21698SOL    HW168882   7.121  10.216   6.121  0.7804  1.1018 -1.6825
21698SOL    HW268883   7.040  10.150   6.011  0.3024 -0.0192 -0.6786
21699SOL     OW68884  10.090   7.545   4.268  0.1015  0.1296 -0.1071
21699SOL    HW168885  10.118   7.472   4.323  0.5333 -0.4797 -1.1033
21699SOL    HW268886  10.169   7.568   4.217  0.4930  2.4252  1.3804
21700SOL     OW68887   5.139   5.447   7.956 -0.1761 -0.0335 -0.2290
21700SOL    HW168888   5.088   5.370   7.930  0.3642  0.3715 -2.7560
21700SOL    HW268889   5.215   5.446   7.898  0.9641  1.2606  1.1579
21701SOL     OW68890   4.327   8.045   4.360  0.1688 -0.5498 -0.0199
21701SOL    HW168891   4.337   8.129   4.316  0.3718 -0.5058  0.1083
21701SOL    HW268892   4.324   7.981   4.289  0.8716 -0.5137 -0.0922
21702SOL     OW68893   6.897   0.419   2.776  0.2682  0.5909 -0.0520
21702SOL    HW168894   6.868   0.471   2.851 -0.3719 -0.3546  0.3677
21702SOL    HW268895   6.917   0.333   2.812  1.3834  0.5475 -0.7297
21703SOL     OW68896   2.906   8.767   1.876 -0.3910 -0.4960  0.3789
21703SOL    HW168897   2.870   8.716   1.803 -1.3258  0.9158 -0.1973
21703SOL    HW268898   2.828   8.798   1.923  0.1770 -2.2346  2.6591
21704SOL     OW68899   7.746   9.178   4.076  0.2025  0.5132  0.0160
21704SOL    HW168900   7.653   9.189   4.097  0.7381  1.6866  1.9807
21704SOL    HW268901   7.768   9.092   4.112  0.0360  0.5064  0.1035
21705SOL     OW68902   2.354   9.715   2.058  0.0463 -0.4084 -0.0381
21705SOL    HW168903   2.438   9.669   2.046  0.0469 -0.8449  1.5026
21705SOL    HW268904   2.295   9.649   2.092 -0.6290  0.1630 -0.0817
21706SOL     OW68905   1.282   0.273   3.887 -0.0212 -0.1169 -0.1521
21706SOL    HW168906   1.338   0.234   3.820 -1.7253  0.5890 -2.0920
21706SOL    HW268907   1.206   0.214   3.892 -0.3436  0.3383  0.5071
21707SOL     OW68908   0.784   1.907   7.606 -0.0806  0.1632 -0.0257
21707SOL    HW168909   0.859   1.955   7.641  1.4810 -0.3765 -2.3373
21707SOL    HW268910   0.807   1.815   7.616 -1.6639 -0.1188  1.5649
21708SOL     OW68911   1.849   7.046   3.516  0.2235 -0.0864 -0.4999
21708SOL    HW168912   1.878   6.985   3.585 -0.9118  0.0988  0.1698
21708SOL    HW268913   1.910   7.120   3.522 -0.0207  0.0475  0.4926
21709SOL     OW68914   7.148   7.375   5.088  0.2820  0.7938  1.1736
21709SOL    HW168915   7.120   7.467   5.082  0.6570  0.8735  0.5184
21709SOL    HW268916   7.243   7.379   5.097  0.3381  0.4674  0.7876
21710SOL     OW68917   2.277   0.355  10.275 -0.1762  0.4634 -0.4222
21710SOL    HW168918   2.279   0.440  10.319  1.7806  0.6062 -0.6770
21710SOL    HW268919   2.215   0.366  10.203  0.5954  1.9352 -0.8945
21711SOL     OW68920   2.905   8.252   9.904  1.2856  0.0981  0.0606
21711SOL    HW168921   2.818   8.289   9.920  0.6903 -1.7453  1.3783
21711SOL    HW268922   2.929   8.285   9.817  0.2856  2.4798  0.5992
21712SOL     OW68923   1.415   9.763   9.251  0.1712 -0.1706 -0.2324
21712SOL    HW168924   1.381   9.851   9.235  0.0070 -0.0478  0.7493
21712SOL    HW268925   1.426   9.758   9.346 -1.4982 -1.8239 -0.0673
21713SOL     OW68926   7.816   9.166  10.223  0.1031  0.2409 -0.0459
21713SOL    HW168927   7.878   9.113  10.172 -1.0534  0.2833 -1.5825
21713SOL    HW268928   7.866   9.195  10.299  0.6640 -3.5074  1.2275
21714SOL     OW68929   1.095   6.144   8.655 -0.0223 -0.7417  0.3922
21714SOL    HW168930   1.116   6.160   8.747 -0.4075 -0.5055  0.4384
21714SOL    HW268931   1.160   6.195   8.606  0.4234 -1.1694  0.5277
21715SOL     OW68932   8.542   3.663   2.901 -0.1942 -0.1852  0.0317
21715SOL    HW168933   8.546   3.691   2.810 -0.2634 -1.1067 -0.2662
21715SOL    HW268934   8.519   3.570   2.897  1.2540 -0.6228  0.9114
21716SOL     OW68935   3.497   2.709   8.568  0.0141  0.3766 -0.1234
21716SOL    HW168936   3.537   2.653   8.635  1.0034  0.5785 -0.5396
21716SOL    HW268937   3.441   2.769   8.618  4.0196  3.4924  1.1472
21717SOL     OW68938   9.744   4.576   9.964 -0.2195  0.1400  0.0109
21717SOL    HW168939   9.733   4.630   9.886 -1.2246 -1.5046 -1.0471
21717SOL    HW268940   9.762   4.639  10.035 -0.2595  1.7368 -1.3377
21718SOL     OW68941   8.932   5.674  10.302  0.1331  0.3929  0.4274
21718SOL    HW168942   8.952   5.580  10.312 -1.0636  0.1521  0.6216
21718SOL    HW268943   8.985   5.701  10.227 -0.8461 -0.8543 -0.7520
21719SOL     OW68944   8.073   6.968   2.745  0.0372  0.0678  0.3138
21719SOL    HW168945   8.047   7.001   2.831 -1.4884  3.0651 -1.1481
21719SOL    HW268946   8.164   6.996   2.735 -0.0458  0.4533  0.6285
21720SOL     OW68947   4.828   8.200   7.454  0.0259  0.8769  0.4980
21720SOL    HW168948   4.750   8.147   7.468 -0.3052  1.6235  1.6440
21720SOL    HW268949   4.840   8.201   7.359 -0.6353 -0.2502  0.3822
21721SOL     OW68950   7.385   1.179   4.152  0.3070 -0.3786 -0.2176
21721SOL    HW168951   7.382   1.271   4.125  0.1721 -0.1668  0.5025
21721SOL    HW268952   7.342   1.132   4.080 -2.4070  0.4408  0.7550
21722SOL     OW68953   6.414   0.242   1.676 -0.0388 -0.5616  0.6368
21722SOL    HW168954   6.429   0.333   1.649 -1.7574 -0.6409 -0.7884
21722SOL    HW268955   6.336   0.246   1.731 -1.6060 -1.3761 -1.3807
21723SOL     OW68956   8.488   7.568   6.666 -0.3780 -0.2382 -0.5424
21723SOL    HW168957   8.582   7.563   6.649 -0.3527  0.6809 -0.6938
21723SOL    HW268958   8.471   7.496   6.728  0.9723  1.4362  1.9389
21724SOL     OW68959   0.227   3.538   4.122 -0.7310 -0.1605  0.6281
21724SOL    HW168960   0.226   3.617   4.068 -1.5616 -0.7134 -0.2070
21724SOL    HW268961   0.245   3.570   4.211  2.9808  0.5448 -0.2426
21725SOL     OW68962   9.508   4.593   9.368 -0.3556 -0.0124  0.0587
21725SOL    HW168963   9.572   4.525   9.344 -0.2145  0.3086 -0.4875
21725SOL    HW268964   9.448   4.549   9.428  0.5106 -0.2598  0.7661
21726SOL     OW68965  10.034   1.595   4.881 -0.2324 -0.1151  0.1627
21726SOL    HW168966  10.068   1.679   4.914  0.5174  0.3864 -1.7579
21726SOL    HW268967   9.957   1.578   4.936  0.4713  1.0381  1.6050
21727SOL     OW68968  10.092   4.031   2.977  0.6275  0.0526 -0.9304
21727SOL    HW168969  10.130   4.030   2.889 -0.0038  1.6374 -1.2555
21727SOL    HW268970  10.077   4.124   2.996  0.2787 -0.2936  0.6517
21728SOL     OW68971   1.505   3.229   7.610 -0.1452 -0.0570  0.5640
21728SOL    HW168972   1.432   3.168   7.614 -0.4105  0.2109 -0.1066
21728SOL    HW268973   1.548   3.221   7.696 -0.3694 -0.9347  0.6050
21729SOL     OW68974   2.439   1.526   0.873  0.3312  0.0738 -0.1955
21729SOL    HW168975   2.345   1.516   0.856  0.7102 -1.1111 -1.8890
21729SOL    HW268976   2.444   1.580   0.951 -1.7533  0.5677 -0.3520
21730SOL     OW68977   4.582   5.282   3.475  0.2099 -0.3918  0.0057
21730SOL    HW168978   4.565   5.359   3.420 -0.6921 -1.4108 -1.2059
21730SOL    HW268979   4.521   5.291   3.548 -0.4461 -0.3298 -0.5377
21731SOL     OW68980   2.114   4.856   1.240 -0.0810 -0.4141 -0.1886
21731SOL    HW168981   2.056   4.798   1.191  0.8195 -1.3383 -0.2022
21731SOL    HW268982   2.187   4.872   1.180  0.7229 -1.0350  0.5892
21732SOL     OW68983   9.173   3.396   3.562 -0.4265  0.4405 -0.2880
21732SOL    HW168984   9.214   3.407   3.476 -1.8909  1.9280 -0.8530
21732SOL    HW268985   9.194   3.476   3.609 -1.0214  0.3693  0.1087
21733SOL     OW68986   0.774   7.367   5.249  0.3919 -1.2079 -0.1769
21733SOL    HW168987   0.720   7.403   5.319  0.7323 -1.7030  0.3480
21733SOL    HW268988   0.714   7.310   5.200  0.1602 -0.8805 -0.2760
21734SOL     OW68989   6.580   3.180   3.291  0.8300  0.5881  0.3629
21734SOL    HW168990   6.644   3.242   3.324  0.6807  1.6135 -1.1825
21734SOL    HW268991   6.514   3.234   3.246  0.0034 -0.5855  0.0976
21735SOL     OW68992   7.977   6.046   5.552 -0.5744 -0.1520 -0.0463
21735SOL    HW168993   7.969   5.976   5.617 -1.4095 -0.2110 -0.1959
21735SOL    HW268994   8.070   6.065   5.547 -0.1988 -2.0342 -0.8247
21736SOL     OW68995   8.697   0.724   4.736  0.0268 -0.2567 -0.7452
21736SOL    HW168996   8.703   0.630   4.717 -1.8131 -0.6564  0.4470
21736SOL    HW268997   8.604   0.745   4.730  0.3795  1.4726 -0.7930
21737SOL     OW68998   1.262   7.862   2.558 -0.2731  0.4639  0.4003
21737SOL    HW168999   1.253   7.811   2.478 -1.1115  1.3426 -0.0799
21737SOL    HW269000   1.281   7.797   2.626  0.8736 -0.2404 -0.5707
21738SOL     OW69001   0.729   4.395   8.667  0.0979  0.0020  0.3755
21738SOL    HW169002   0.675   4.440   8.732  0.5087  0.1201  0.6347
21738SOL    HW269003   0.816   4.434   8.676  0.8639 -1.8350  1.6137
21739SOL     OW69004   3.410  10.112   8.277 -0.3354  0.2015  0.7176
21739SOL    HW169005   3.374  10.199   8.256  0.2858 -0.0371 -1.6707
21739SOL    HW269006   3.446  10.081   8.194  2.5300 -0.9262  2.2684
21740SOL     OW69007   7.343   6.739   0.115 -0.3879 -0.3641 -0.7720
21740SOL    HW169008   7.398   6.758   0.191  0.3835 -1.0705 -1.1431
21740SOL    HW269009   7.398   6.685   0.058 -1.6532 -1.5558 -0.9024
21741SOL     OW69010   3.664   7.255   4.146 -0.1968 -0.2265  0.3457
21741SOL    HW169011   3.723   7.206   4.089 -1.0984 -1.9415  0.8252
21741SOL    HW269012   3.714   7.267   4.227  0.5219  0.8851 -0.2307
21742SOL     OW69013   1.756   0.997   9.489 -0.9300  0.1869  0.5818
21742SOL    HW169014   1.663   1.020   9.489 -1.2281 -0.8636 -0.8727
21742SOL    HW269015   1.788   1.027   9.403  0.1850  0.8649  1.2057
21743SOL     OW69016   3.149   5.898   7.367  0.1113  0.1802  0.3701
21743SOL    HW169017   3.217   5.936   7.312  0.4136 -0.3282  0.3761
21743SOL    HW269018   3.189   5.817   7.401 -0.5479 -0.2059  0.2487
21744SOL     OW69019   2.691   4.905   3.131  0.4056 -0.1335  0.2618
21744SOL    HW169020   2.596   4.912   3.136  0.3925  1.5373 -1.3260
21744SOL    HW269021   2.707   4.853   3.052  0.7967  0.8110 -0.2988
21745SOL     OW69022   3.726   4.784   6.234  0.3333  0.2004 -0.3144
21745SOL    HW169023   3.649   4.839   6.219 -0.2358 -0.9691 -2.0761
21745SOL    HW269024   3.689   4.696   6.248  1.2910 -0.0744  0.5643
21746SOL     OW69025   2.021   1.399   3.673 -0.7319 -1.0536  0.0470
21746SOL    HW169026   1.998   1.423   3.583 -2.0129 -3.2106 -0.2657
21746SOL    HW269027   1.938   1.372   3.712 -0.1134 -0.6125  1.7566
21747SOL     OW69028   1.597   7.205   2.151  0.0253 -0.1165 -0.1939
21747SOL    HW169029   1.652   7.251   2.088  1.8914 -0.4466  1.1268
21747SOL    HW269030   1.626   7.236   2.236 -2.3753  0.2370  0.5782
21748SOL     OW69031   3.307   1.755   8.886  0.2682  0.0064 -0.6156
21748SOL    HW169032   3.338   1.846   8.894 -0.0044  0.0983 -0.5911
21748SOL    HW269033   3.269   1.735   8.971  0.1709 -0.0716 -0.6779
21749SOL     OW69034   1.864   3.778   4.999  0.1491  0.0868 -0.2667
21749SOL    HW169035   1.868   3.868   5.033  2.3920 -0.0229 -0.1095
21749SOL    HW269036   1.827   3.788   4.911  1.0897  1.2961 -0.5649
21750SOL     OW69037   9.115   7.287   0.587 -0.5944 -0.6189 -0.0139
21750SOL    HW169038   9.032   7.282   0.633 -1.1077 -0.7455 -0.9278
21750SOL    HW269039   9.111   7.368   0.537  0.4039  0.0676  0.9784
21751SOL     OW69040   0.125   8.855   1.731  0.3536  0.3350  0.1289
21751SOL    HW169041   0.161   8.898   1.653  0.4993  2.3276  1.2177
21751SOL    HW269042   0.069   8.785   1.697  0.7621  0.8689 -1.7354
21752SOL     OW69043   1.022   0.621   2.555  0.2871  0.5223 -0.5314
21752SOL    HW169044   0.958   0.563   2.595 -0.5834  1.5405 -0.4254
21752SOL    HW269045   1.089   0.562   2.521  0.1232 -0.4656  0.7860
21753SOL     OW69046   8.363   7.895   4.655  0.1000 -0.3124  0.0570
21753SOL    HW169047   8.348   7.972   4.709 -0.5719 -0.6069  0.3012
21753SOL    HW269048   8.276   7.857   4.641  0.1583  0.2016 -1.9372
21754SOL     OW69049  10.031   0.742   2.969  0.2455 -0.0948  0.3574
21754SOL    HW169050  10.036   0.743   3.064 -1.0154  0.0974  0.4461
21754SOL    HW269051   9.948   0.785   2.949  1.0934  1.0322 -0.8943
21755SOL     OW69052   3.476   6.179   1.266 -0.2197 -0.1053  0.0594
21755SOL    HW169053   3.393   6.225   1.279  0.6223  0.9226  2.4024
21755SOL    HW269054   3.503   6.203   1.177 -1.3877  1.3045  0.0491
21756SOL     OW69055   7.867   2.349   6.770  0.7506  0.5682 -0.0484
21756SOL    HW169056   7.825   2.367   6.854  2.3286  2.3949  0.4177
21756SOL    HW269057   7.916   2.268   6.785 -1.9755 -1.2612 -0.4308
21757SOL     OW69058   2.828   6.347   4.823  0.1033 -0.1423 -0.4299
21757SOL    HW169059   2.867   6.293   4.754 -2.4220 -0.2398 -1.8710
21757SOL    HW269060   2.777   6.285   4.876  0.9060  0.1625  0.7675
21758SOL     OW69061   3.465   1.013   7.534  0.0057  0.0635 -0.2887
21758SOL    HW169062   3.448   1.087   7.592  1.6746 -0.1420  0.5037
21758SOL    HW269063   3.558   1.019   7.513 -0.2557 -0.6675 -1.8543
21759SOL     OW69064   5.891   2.942   1.935  0.0683 -0.1183  0.4651
21759SOL    HW169065   5.909   2.919   2.026 -0.3539  1.1288  0.8893
21759SOL    HW269066   5.796   2.949   1.930  0.1397  0.8736  0.2173
21760SOL     OW69067   0.882   3.138   0.248 -0.1024 -0.2617 -1.3083
21760SOL    HW169068   0.923   3.055   0.272  1.7914  0.7176 -0.9684
21760SOL    HW269069   0.911   3.200   0.315 -1.3069  0.7309 -1.6661
21761SOL     OW69070   8.126   9.000   2.970  0.1122 -0.6140 -0.0733
21761SOL    HW169071   8.049   9.039   2.928  0.3717 -0.0683 -0.0533
21761SOL    HW269072   8.160   8.938   2.905  1.1448  1.0137 -1.1519
21762SOL     OW69073   5.186   8.323   8.982 -0.2054  0.0979 -0.0090
21762SOL    HW169074   5.198   8.239   8.936  0.0799  0.3303 -0.3592
21762SOL    HW269075   5.131   8.300   9.057 -1.1248 -0.2056 -0.7412
21763SOL     OW69076   3.056   2.881   4.461 -0.1552 -0.7424 -0.3628
21763SOL    HW169077   3.125   2.945   4.443 -1.2132  1.4732  2.5242
21763SOL    HW269078   2.982   2.909   4.408  0.2560 -1.3926 -1.3016
21764SOL     OW69079   1.738   9.142   0.921 -0.7581 -0.6430  0.1025
21764SOL    HW169080   1.670   9.196   0.881 -0.4250  0.3599  0.8446
21764SOL    HW269081   1.810   9.204   0.938 -0.5335 -1.2356  1.3816
21765SOL     OW69082   1.827   6.631   4.467  0.9048 -0.2151  0.0620
21765SOL    HW169083   1.835   6.569   4.394  0.2889  2.2778 -2.2865
21765SOL    HW269084   1.734   6.654   4.469  1.3201  1.7235 -0.2116
21766SOL     OW69085   6.195   8.603   7.347 -0.4443  0.3428 -0.0986
21766SOL    HW169086   6.206   8.551   7.267  0.5495 -0.7781  0.7207
21766SOL    HW269087   6.241   8.552   7.415 -0.3485  1.7829  0.9614
21767SOL     OW69088   4.692   5.419   8.626 -0.2023  0.1628 -0.3234
21767SOL    HW169089   4.665   5.364   8.552  0.3279  0.5654 -0.8241
21767SOL    HW269090   4.781   5.446   8.604 -0.8720  2.2356 -0.6904
21768SOL     OW69091   8.207   6.018   3.911 -0.2662 -0.0231 -0.3998
21768SOL    HW169092   8.276   6.054   3.856 -0.3028  1.8183  0.6976
21768SOL    HW269093   8.141   5.985   3.849  1.2562 -1.2475 -1.4475
21769SOL     OW69094   0.153   9.471   7.510  0.3459 -0.3782  0.2462
21769SOL    HW169095   0.176   9.380   7.493  0.2096 -0.1129 -1.5406
21769SOL    HW269096   0.068   9.466   7.554 -0.5368 -1.1132 -1.4163
21770SOL     OW69097  10.202   1.231   6.085 -0.0458  0.0661 -0.0569
21770SOL    HW169098  10.126   1.224   6.142  1.2969 -1.4985  1.6695
21770SOL    HW269099  10.255   1.301   6.123  0.2759 -0.1609 -0.0757
21771SOL     OW69100   7.464   9.828   4.437  0.1160  0.1064  0.0146
21771SOL    HW169101   7.448   9.806   4.346 -0.2957  0.4909 -0.0113
21771SOL    HW269102   7.556   9.806   4.452  1.0112  2.6447 -1.2900
21772SOL     OW69103  10.183   7.146   5.364 -0.6988  0.3325 -0.0525
21772SOL    HW169104  10.118   7.090   5.322 -0.4314  0.4253 -0.5959
21772SOL    HW269105  10.159   7.145   5.457 -0.5428 -0.8950 -0.0057
21773SOL     OW69106   8.615   4.298   8.620 -0.3718  0.7623 -0.0209
21773SOL    HW169107   8.532   4.267   8.658 -0.5139  0.0948 -0.8484
21773SOL    HW269108   8.590   4.371   8.565 -0.4228  0.5162 -0.3256
21774SOL     OW69109   3.470   4.820   4.549  0.1641 -0.2524 -0.0267
21774SOL    HW169110   3.487   4.753   4.616  1.3027 -0.6080 -0.6402
21774SOL    HW269111   3.487   4.903   4.593  0.3991 -0.4569  0.2779
21775SOL     OW69112   6.451   1.409   6.379 -0.2399  0.3561 -0.0159
21775SOL    HW169113   6.540   1.403   6.415 -0.1815 -3.4680 -0.3739
21775SOL    HW269114   6.396   1.427   6.455  0.4989 -1.4075  1.0084
21776SOL     OW69115   1.632   1.630   0.474 -0.3938 -0.1821  0.0878
21776SOL    HW169116   1.579   1.563   0.431 -0.0169 -0.3643 -0.1003
21776SOL    HW269117   1.586   1.648   0.556 -0.2716 -0.9921  0.3428
21777SOL     OW69118   8.264   5.948   1.218 -0.3160  0.0472  0.8765
21777SOL    HW169119   8.360   5.949   1.214 -0.2168  0.0128  2.6409
21777SOL    HW269120   8.237   5.969   1.128  1.3268  1.4360  0.6468
21778SOL     OW69121   6.502  10.124   4.941 -0.0162  0.0262 -0.9510
21778SOL    HW169122   6.506  10.130   5.037 -0.3182  0.0753 -0.9409
21778SOL    HW269123   6.590  10.095   4.915 -0.0337 -0.3202 -0.6326
21779SOL     OW69124   4.363   4.403   4.361  0.0164  0.3802  0.2838
21779SOL    HW169125   4.285   4.358   4.325 -0.9872  0.9713  1.6521
21779SOL    HW269126   4.381   4.473   4.298  0.2745 -0.5757 -0.7392
21780SOL     OW69127   7.649   6.225   1.468  0.2771  0.0922  0.0525
21780SOL    HW169128   7.733   6.256   1.501  0.9211  0.2376 -1.6540
21780SOL    HW269129   7.669   6.185   1.383 -0.9095 -2.6673  0.9439
21781SOL     OW69130   3.409   0.231   2.656 -0.0811 -0.1917 -0.3697
21781SOL    HW169131   3.371   0.267   2.736  0.1266 -1.5252  0.3525
21781SOL    HW269132   3.412   0.137   2.671  1.0519 -0.3552 -1.4826
21782SOL     OW69133   7.530   0.321   0.982 -0.1011 -0.0924 -0.0515
21782SOL    HW169134   7.508   0.228   0.985 -2.6102  0.3744 -1.0669
21782SOL    HW269135   7.504   0.354   1.068  0.6628 -0.2756  0.2600
21783SOL     OW69136   1.337   7.508   8.479 -0.1787  0.4677 -0.4262
21783SOL    HW169137   1.244   7.525   8.491 -0.4201 -0.5558 -0.7198
21783SOL    HW269138   1.355   7.432   8.535  0.0307 -0.5565 -1.8206
21784SOL     OW69139   9.864   2.203   5.994  0.5458  0.3722 -0.2694
21784SOL    HW169140   9.772   2.208   5.968  0.5396  1.7729 -0.0585
21784SOL    HW269141   9.909   2.268   5.940  1.1318  0.8185  0.7136
21785SOL     OW69142   2.271   8.576   5.264  0.0672  0.2428  0.1803
21785SOL    HW169143   2.192   8.605   5.220 -0.7994 -1.5116  0.4903
21785SOL    HW269144   2.342   8.620   5.218 -0.9642  0.4248 -1.2995
21786SOL     OW69145   3.051   2.737   1.181  0.0617 -0.8715 -0.2760
21786SOL    HW169146   3.077   2.803   1.117 -1.9115  0.2874  0.0572
21786SOL    HW269147   3.024   2.662   1.128 -0.2427 -0.4260 -0.7574
21787SOL     OW69148   6.387   6.301   6.578 -0.0898  0.4750 -0.0140
21787SOL    HW169149   6.384   6.396   6.579  0.8858  0.5309 -0.7386
21787SOL    HW269150   6.400   6.276   6.669 -0.5641  1.0195  0.2046
21788SOL     OW69151   3.105   3.139   8.671 -0.5265 -0.0207 -0.6941
21788SOL    HW169152   3.140   3.226   8.655 -1.8066  0.6433 -0.0250
21788SOL    HW269153   3.102   3.098   8.584  2.0608 -0.2312 -0.7649
21789SOL     OW69154   1.968   8.884   8.341 -0.6371 -0.3226 -0.7888
21789SOL    HW169155   1.879   8.920   8.345  0.3808  2.7400 -1.9877
21789SOL    HW269156   1.996   8.877   8.432 -1.1942  1.3742 -0.4506
21790SOL     OW69157   8.592   9.579   9.560  0.0503  0.2178 -0.0151
21790SOL    HW169158   8.650   9.597   9.633  0.9841 -1.1637 -0.3846
21790SOL    HW269159   8.513   9.629   9.579  0.7872  0.9327  1.2500
21791SOL     OW69160   7.658   9.240   5.127 -0.5171 -0.1634  0.1203
21791SOL    HW169161   7.639   9.201   5.042 -1.4146  0.7133 -0.1039
21791SOL    HW269162   7.731   9.300   5.111 -1.1220  0.5007 -0.1843
21792SOL     OW69163   1.717   0.268   2.037  0.0035 -0.1222 -0.6318
21792SOL    HW169164   1.673   0.212   2.101  0.0149 -0.7696 -1.1771
21792SOL    HW269165   1.740   0.347   2.085  0.9937 -1.0424  0.4555
21793SOL     OW69166   9.322   2.820   2.121 -0.7022  0.2028 -0.4619
21793SOL    HW169167   9.302   2.821   2.214  2.2180  1.6321  0.2386
21793SOL    HW269168   9.408   2.779   2.115 -1.1167 -0.5152 -2.6525
21794SOL     OW69169   7.710   0.055   5.283 -0.1148 -0.0655 -0.6578
21794SOL    HW169170   7.646   0.058   5.212 -0.8547  0.2117  0.0062
21794SOL    HW269171   7.740   0.145   5.292 -1.4997  0.3111  0.6689
21795SOL     OW69172  10.057   5.699   7.380  0.2061 -0.0054  0.7244
21795SOL    HW169173   9.981   5.722   7.328  2.0482  0.8676 -1.8022
21795SOL    HW269174  10.065   5.770   7.445 -0.2654  0.7199  0.0012
21796SOL     OW69175   5.508   5.321   0.324 -0.2492 -0.1699 -0.6660
21796SOL    HW169176   5.486   5.350   0.413  1.0213 -0.2471 -0.3142
21796SOL    HW269177   5.465   5.236   0.316  0.5523 -0.6921  0.3068
21797SOL     OW69178   6.360   6.371   2.322 -0.0055 -0.3183 -0.2148
21797SOL    HW169179   6.422   6.443   2.311 -1.9730  1.5624  0.3352
21797SOL    HW269180   6.282   6.399   2.272 -0.8540 -2.0204  0.0923
21798SOL     OW69181   2.673   0.545   0.859  0.0150 -0.1562 -0.2468
21798SOL    HW169182   2.756   0.576   0.823 -0.9843  2.3746 -0.6342
21798SOL    HW269183   2.693   0.521   0.949  0.9567  1.7819  0.1132
21799SOL     OW69184   3.004   4.866   7.678 -0.2844  0.2856  0.0651
21799SOL    HW169185   2.975   4.930   7.614 -0.4227  0.6942  0.5311
21799SOL    HW269186   3.097   4.885   7.690 -0.7249  1.6789  1.6275
21800SOL     OW69187   8.606   6.853   4.477  0.2252 -0.6905 -0.7610
21800SOL    HW169188   8.678   6.872   4.417  0.4690  1.4874  0.1350
21800SOL    HW269189   8.648   6.815   4.554  0.4663  0.5220 -0.2639
21801SOL     OW69190   6.321   5.594   6.042 -0.2832 -0.2041  0.0626
21801SOL    HW169191   6.254   5.531   6.014 -0.8193  0.1491  0.5355
21801SOL    HW269192   6.377   5.544   6.101  0.8237 -0.9434 -1.5291
21802SOL     OW69193   7.669   6.972   5.421 -0.8457 -0.0426 -0.1324
21802SOL    HW169194   7.647   6.985   5.329 -0.8851  0.3517 -0.0676
21802SOL    HW269195   7.745   7.028   5.437 -2.0171  1.4157  0.5564
21803SOL     OW69196   7.159   1.258   7.892 -0.2545 -0.2873 -0.5017
21803SOL    HW169197   7.081   1.213   7.860 -0.1639  0.5278 -1.9336
21803SOL    HW269198   7.135   1.350   7.893  0.2776 -0.1490  0.3054
21804SOL     OW69199   8.909   6.214   7.688 -0.3231 -0.5440  1.0507
21804SOL    HW169200   8.909   6.146   7.621  0.3502 -0.7121  1.2106
21804SOL    HW269201   8.991   6.200   7.736 -1.3801 -1.2331  2.7254
21805SOL     OW69202   1.636  10.109  10.359 -0.3019  0.6704  0.0839
21805SOL    HW169203   1.713  10.121  10.303 -0.7158 -0.1439 -0.6759
21805SOL    HW269204   1.567  10.157  10.313 -1.4223 -2.4578 -1.8118
21806SOL     OW69205   1.789   1.512   2.546  0.1800 -0.3281  0.0354
21806SOL    HW169206   1.862   1.555   2.592 -1.0826  1.8768  0.0774
21806SOL    HW269207   1.815   1.514   2.454 -0.6594  2.3807 -0.2223
21807SOL     OW69208   1.355   7.263   2.057 -0.1116 -0.2269  0.1233
21807SOL    HW169209   1.433   7.225   2.097 -0.1635 -1.8987 -1.2846
21807SOL    HW269210   1.331   7.335   2.117  3.0802  1.0686  0.0578
21808SOL     OW69211   6.235   2.529   8.470  0.1513 -0.2986  0.0156
21808SOL    HW169212   6.271   2.477   8.398  2.3865  2.6246 -1.1610
21808SOL    HW269213   6.243   2.472   8.547  2.1224 -1.8541 -1.2259
21809SOL     OW69214   7.945   9.656   3.413 -0.5427 -0.6248  0.3074
21809SOL    HW169215   7.935   9.738   3.462 -1.3408 -0.0529 -0.7595
21809SOL    HW269216   8.036   9.656   3.385  0.0317 -1.1473  2.0718
21810SOL     OW69217   3.805   6.034   9.577 -0.2759  0.0155  0.1201
21810SOL    HW169218   3.773   6.005   9.491 -1.5332 -0.3918  0.7049
21810SOL    HW269219   3.896   6.060   9.561 -0.0854 -1.2536 -1.0795
21811SOL     OW69220   5.146   6.527   2.566 -0.3947 -0.5257 -0.3376
21811SOL    HW169221   5.181   6.439   2.547 -2.7884 -0.9800 -3.3940
21811SOL    HW269222   5.222   6.577   2.596  1.0713 -3.5637  1.5529
21812SOL     OW69223   0.889   6.802   1.716  0.5397  0.2599 -0.5033
21812SOL    HW169224   0.865   6.802   1.808 -0.7648  0.8510 -0.8147
21812SOL    HW269225   0.918   6.892   1.699 -0.1596  0.4135 -0.8927
21813SOL     OW69226   6.662   0.548   6.738  0.2122 -0.0903 -0.5108
21813SOL    HW169227   6.707   0.503   6.666 -0.0137 -1.9046  0.4208
21813SOL    HW269228   6.708   0.519   6.816 -0.7596  0.3134  0.2278
21814SOL     OW69229   9.007   5.684   7.911  0.1029  0.0124  0.2169
21814SOL    HW169230   9.025   5.761   7.965  1.6254 -1.0498  1.3163
21814SOL    HW269231   8.921   5.653   7.941  0.4909  0.0062  1.3684
21815SOL     OW69232   0.392   3.222   9.116 -0.2993 -1.0020 -0.2622
21815SOL    HW169233   0.344   3.298   9.149 -0.3450 -0.6763 -1.0422
21815SOL    HW269234   0.484   3.247   9.121 -0.3389 -0.6566 -1.0473
21816SOL     OW69235   3.235   5.350   1.064  0.0645  0.0389 -0.3356
21816SOL    HW169236   3.171   5.373   0.997  0.0005 -0.0425 -0.3032
21816SOL    HW269237   3.182   5.322   1.139  0.1315  0.3377 -0.1748
21817SOL     OW69238   3.853   6.230   9.174  0.5653 -0.1835 -0.0710
21817SOL    HW169239   3.941   6.249   9.140  0.2225  1.8882  0.0515
21817SOL    HW269240   3.845   6.135   9.168  2.7218 -0.4025 -0.2969
21818SOL     OW69241   5.396   8.254   2.302 -0.4528 -0.0868 -0.0779
21818SOL    HW169242   5.483   8.214   2.311  0.2862  1.3123 -0.8244
21818SOL    HW269243   5.335   8.181   2.318  0.8395 -1.4775 -1.1741
21819SOL     OW69244   3.161   9.144   7.346  0.3810  0.2816  0.1979
21819SOL    HW169245   3.197   9.222   7.389  1.5072 -0.6867  1.0622
21819SOL    HW269246   3.138   9.085   7.418  0.1971 -0.4646 -0.4597
21820SOL     OW69247   2.814   4.450   7.794  0.0396 -0.3158 -0.0141
21820SOL    HW169248   2.909   4.441   7.798  0.3563  2.6512  0.9731
21820SOL    HW269249   2.799   4.540   7.765 -2.5294 -1.1803 -1.7952
21821SOL     OW69250   1.549   1.583   6.333 -0.1004  0.1342  0.1549
21821SOL    HW169251   1.604   1.622   6.402  0.4976  1.3053 -0.9510
21821SOL    HW269252   1.526   1.656   6.276 -1.7645 -0.5666 -0.1371
21822SOL     OW69253   4.941   4.144   4.145 -0.6076  0.4016  0.4532
21822SOL    HW169254   4.967   4.236   4.137 -0.5787  0.3347 -0.2082
21822SOL    HW269255   4.902   4.139   4.233  0.0683  0.8738  0.7930
21823SOL     OW69256   0.373   6.980   2.203  0.3280  0.0348  0.3105
21823SOL    HW169257   0.438   7.048   2.189 -0.6999  0.7358 -1.4294
21823SOL    HW269258   0.413   6.901   2.167 -0.1025  0.6608 -1.6304
21824SOL     OW69259   6.821   1.273   1.727  0.3944 -0.3502 -0.7159
21824SOL    HW169260   6.761   1.220   1.675 -0.4627 -1.1951  1.0673
21824SOL    HW269261   6.848   1.216   1.799 -1.0777  1.7486  1.6508
21825SOL     OW69262   9.301   8.318   3.498  0.1422  0.5186 -0.1030
21825SOL    HW169263   9.254   8.236   3.513  1.2588 -0.1478 -0.0854
21825SOL    HW269264   9.268   8.377   3.565 -0.1668 -0.1483  0.3497
21826SOL     OW69265   3.449   6.210   7.797 -0.1390  0.2136 -0.0242
21826SOL    HW169266   3.418   6.166   7.876 -1.9590  1.0496 -0.2127
21826SOL    HW269267   3.414   6.159   7.725 -0.6437  0.8701 -0.2565
21827SOL     OW69268   2.297   5.102   8.425  0.1209 -0.2881 -0.2677
21827SOL    HW169269   2.285   5.039   8.496 -0.3204 -0.2973 -0.3457
21827SOL    HW269270   2.213   5.103   8.379 -0.2107  1.0833  0.3272
21828SOL     OW69271   1.215   4.624   2.695 -0.4973  0.8142 -0.3304
21828SOL    HW169272   1.253   4.537   2.687 -0.2561  0.8703  0.1249
21828SOL    HW269273   1.197   4.633   2.789 -1.3362  0.9133 -0.4959
21829SOL     OW69274   3.925   2.468   3.130 -1.1967 -0.6826 -0.0908
21829SOL    HW169275   3.928   2.563   3.125 -0.0595 -0.1917  4.8892
21829SOL    HW269276   4.016   2.439   3.121 -1.5038 -1.3748 -1.3372
21830SOL     OW69277   7.619   7.946   2.789  0.0543  0.1829  0.5863
21830SOL    HW169278   7.698   7.975   2.742 -0.8783  1.0569 -0.4911
21830SOL    HW269279   7.625   7.851   2.788  0.7927  0.2227 -0.0242
21831SOL     OW69280   5.582   0.975   7.428 -0.1984 -0.0297 -0.1327
21831SOL    HW169281   5.592   1.071   7.426 -1.3950  0.1108  0.0528
21831SOL    HW269282   5.514   0.960   7.493  0.7305 -1.0915  0.6440
21832SOL     OW69283   3.387   3.848   9.849  0.1122 -0.7118  0.6517
21832SOL    HW169284   3.411   3.767   9.804  0.2546  0.4214 -1.4461
21832SOL    HW269285   3.463   3.868   9.905  0.9349 -0.9994 -0.3282
21833SOL     OW69286   4.682   0.885   7.999  0.0876 -0.4051 -0.1406
21833SOL    HW169287   4.668   0.791   7.989  1.1522 -0.4626 -1.3096
21833SOL    HW269288   4.595   0.924   7.986 -0.8532 -1.3330  2.7309
21834SOL     OW69289   4.931   1.803   4.504  0.2139 -0.0779 -0.3617
21834SOL    HW169290   4.915   1.753   4.584 -0.9843  0.6299 -0.1409
21834SOL    HW269291   4.885   1.753   4.436  2.1456 -1.2840 -0.8536
21835SOL     OW69292   0.275   5.959   2.614  0.0053 -0.2354 -0.2757
21835SOL    HW169293   0.312   6.038   2.653 -1.5075  1.5881 -2.2570
21835SOL    HW269294   0.180   5.971   2.622 -0.3310 -0.5370 -2.8788
21836SOL     OW69295   5.718   4.051   7.264  0.3787 -0.1935  0.5260
21836SOL    HW169296   5.641   4.105   7.245  0.0335 -0.9382 -0.2871
21836SOL    HW269297   5.689   3.991   7.333 -0.7557 -2.4204 -1.7395
21837SOL     OW69298   9.392   2.099   4.949  0.9112 -0.5240 -0.3839
21837SOL    HW169299   9.336   2.046   4.892  0.5329 -0.8467  0.2817
21837SOL    HW269300   9.480   2.066   4.934  0.7026 -1.1989 -0.1332
21838SOL     OW69301   3.318   6.743   4.307  0.5297  0.6248  0.0201
21838SOL    HW169302   3.396   6.792   4.280 -0.4667  1.7031 -1.0316
21838SOL    HW269303   3.284   6.705   4.226  0.0864 -0.0269  0.4996
21839SOL     OW69304   8.602   8.311   5.818 -0.7092  0.6113 -0.1948
21839SOL    HW169305   8.664   8.272   5.878 -1.3362 -0.3174 -0.1372
21839SOL    HW269306   8.578   8.241   5.758 -0.0401  1.5249 -1.6008
21840SOL     OW69307   0.665   4.601   1.005  0.3179  0.3272  0.1386
21840SOL    HW169308   0.626   4.543   1.071 -0.3870  1.0984  0.4226
21840SOL    HW269309   0.738   4.643   1.050  0.4852  0.0749  0.1041
21841SOL     OW69310   1.604   0.668   9.771 -0.1349  0.2424 -0.1749
21841SOL    HW169311   1.688   0.632   9.744 -0.5815 -2.3425  1.5197
21841SOL    HW269312   1.550   0.665   9.692  1.2165  1.7060 -1.2193
21842SOL     OW69313   7.476   5.391   0.951 -0.5694 -0.3406  0.3627
21842SOL    HW169314   7.448   5.476   0.984 -0.4221  1.0426 -2.7305
21842SOL    HW269315   7.398   5.353   0.913  0.0880  0.1690 -1.6136
21843SOL     OW69316   3.652   2.028   9.250  0.4394  0.7862 -0.0607
21843SOL    HW169317   3.680   1.969   9.319 -1.3237  0.0341  0.0559
21843SOL    HW269318   3.733   2.052   9.204  1.5222  0.5417  1.6317
21844SOL     OW69319   0.833   7.908   2.616  0.0956  0.3868 -0.3792
21844SOL    HW169320   0.891   7.965   2.565 -0.4434  1.7656  0.5057
21844SOL    HW269321   0.813   7.957   2.695 -2.0756 -0.1377 -0.5216
21845SOL     OW69322   0.732   9.401   1.943  0.1232  0.5758 -0.2762
21845SOL    HW169323   0.725   9.352   1.862 -0.0221 -1.9275  1.1500
21845SOL    HW269324   0.642   9.408   1.975  0.2664  0.7725  0.0947
21846SOL     OW69325   8.201   8.331   2.491 -0.6043  0.3049  0.2921
21846SOL    HW169326   8.207   8.324   2.586 -0.5500 -0.0879  0.2621
21846SOL    HW269327   8.185   8.424   2.475  1.5699  0.7989  0.5762
21847SOL     OW69328   2.868   4.420   6.922 -0.3820 -0.0517  0.5171
21847SOL    HW169329   2.917   4.502   6.918  0.0182 -0.1067  3.0442
21847SOL    HW269330   2.779   4.447   6.945 -0.8106 -0.2021 -0.8659
21848SOL     OW69331   6.562   9.411  10.091 -0.1443 -0.1613  0.2579
21848SOL    HW169332   6.531   9.320  10.087 -3.5116  0.8806 -2.6921
21848SOL    HW269333   6.613   9.422  10.010  2.6621 -0.0398  1.9355
21849SOL     OW69334   7.978   6.663   0.474  0.5203 -0.3111  0.1675
21849SOL    HW169335   7.984   6.661   0.378  0.6974 -0.8397  0.1842
21849SOL    HW269336   7.923   6.739   0.493  1.1817  0.3017 -0.3147
21850SOL     OW69337   2.573   5.558   5.278  0.0740 -0.0877  0.3168
21850SOL    HW169338   2.605   5.647   5.264 -0.0941 -0.0098  0.4191
21850SOL    HW269339   2.607   5.508   5.204  1.2927 -0.2419  0.9571
21851SOL     OW69340   7.490   4.880   6.963  0.2105 -0.2969 -0.4885
21851SOL    HW169341   7.508   4.915   6.876 -0.3045  0.1965 -0.4040
21851SOL    HW269342   7.552   4.808   6.974 -0.6157 -1.2467 -1.8105
21852SOL     OW69343   2.868   3.608   0.297 -0.0064 -0.7194 -0.0343
21852SOL    HW169344   2.890   3.525   0.339 -3.2430 -1.1368  1.0791
21852SOL    HW269345   2.775   3.619   0.312 -0.1232  2.1208 -2.0088
21853SOL     OW69346   7.964   5.993   0.576  0.6486  0.5523 -0.6115
21853SOL    HW169347   7.995   5.905   0.598 -2.2020 -0.4278 -0.0851
21853SOL    HW269348   7.977   6.044   0.655  0.8301  0.1602 -0.3866
21854SOL     OW69349   8.274   9.092   0.821 -0.8083 -0.4075  0.3749
21854SOL    HW169350   8.274   9.113   0.915  0.6776 -1.6042  0.6805
21854SOL    HW269351   8.331   9.158   0.782 -1.7072  0.3080  0.2340
21855SOL     OW69352   7.778   4.940   3.299  0.4690 -0.3149  0.4692
21855SOL    HW169353   7.826   4.914   3.220 -1.1319 -0.7819 -0.3754
21855SOL    HW269354   7.789   5.035   3.302 -1.5245  0.0868 -1.7998
21856SOL     OW69355   6.881   7.108   9.659  0.0915  0.5022  0.3678
21856SOL    HW169356   6.938   7.141   9.589 -0.2479  0.5393  0.1053
21856SOL    HW269357   6.823   7.182   9.679 -0.2173  0.2928  0.2573
21857SOL     OW69358   3.654   9.976   4.404  0.2934  0.2043  0.9220
21857SOL    HW169359   3.733  10.020   4.435  1.2612 -0.4628 -0.4874
21857SOL    HW269360   3.599   9.969   4.482  1.6476  0.6115  1.9691
21858SOL     OW69361   0.687   1.881   8.657 -0.4593 -0.0310  0.0994
21858SOL    HW169362   0.592   1.893   8.654 -0.6377 -1.3765 -0.3884
21858SOL    HW269363   0.700   1.809   8.720  0.0415 -1.3562 -1.4461
21859SOL     OW69364   8.155   4.229   3.352 -0.0832 -0.1879  0.4457
21859SOL    HW169365   8.241   4.266   3.329 -0.3760  0.0283 -0.3557
21859SOL    HW269366   8.157   4.140   3.315  1.0539 -1.4868  3.3482
21860SOL     OW69367   2.541   8.737   9.011  0.4934 -0.2373 -0.1657
21860SOL    HW169368   2.636   8.729   9.014  0.6807  1.6058 -0.2331
21860SOL    HW269369   2.514   8.671   8.947  1.7180 -0.7297 -0.2093
21861SOL     OW69370   8.513   2.463   7.686 -0.0288  0.2372 -0.1171
21861SOL    HW169371   8.596   2.503   7.712  0.5163 -0.8376 -0.1234
21861SOL    HW269372   8.503   2.389   7.746 -1.4741  0.9013  0.5017
21862SOL     OW69373   2.249   2.238   6.198  0.2035 -0.2688  0.5648
21862SOL    HW169374   2.178   2.299   6.216  0.8940  0.7929 -0.1773
21862SOL    HW269375   2.329   2.291   6.205  0.9940 -1.5490  1.9493
21863SOL     OW69376   1.898  10.007   9.611  0.3466 -0.1630  0.4803
21863SOL    HW169377   1.950  10.015   9.691 -2.0983  1.5950  2.0464
21863SOL    HW269378   1.869  10.097   9.592 -0.7278 -0.8170 -1.2552
21864SOL     OW69379   8.626   4.932   2.621  0.1964  0.0964 -0.1851
21864SOL    HW169380   8.714   4.957   2.592  0.1830  0.4589  0.0687
21864SOL    HW269381   8.636   4.843   2.655  0.5424  0.2649  0.1650
21865SOL     OW69382   5.123   0.253   5.104  0.3838 -0.1774 -0.3719
21865SOL    HW169383   5.036   0.283   5.130 -0.1168 -0.0932 -2.0363
21865SOL    HW269384   5.107   0.184   5.039  1.5546 -2.1849  1.3531
21866SOL     OW69385   4.946   4.467   2.668  0.2924  0.0106 -0.4615
21866SOL    HW169386   4.908   4.548   2.635  1.7294  0.6530 -0.6338
21866SOL    HW269387   4.973   4.487   2.757  0.4983 -0.3332 -0.4445
21867SOL     OW69388   2.067   9.213   5.674 -0.2096  0.3501 -0.0805
21867SOL    HW169389   2.161   9.232   5.670 -0.3596  1.0218 -0.4261
21867SOL    HW269390   2.063   9.127   5.716  0.5890  0.1052 -0.4650
21868SOL     OW69391   1.715   2.186   8.549  0.7576  0.1389 -0.6004
21868SOL    HW169392   1.658   2.132   8.494  0.0495  0.6599 -0.3986
21868SOL    HW269393   1.717   2.140   8.633  1.2494 -0.2719 -0.8284
21869SOL     OW69394   9.991   3.291   2.232 -0.0600 -0.2795 -0.2865
21869SOL    HW169395   9.955   3.375   2.202 -2.1408 -1.1503 -0.4059
21869SOL    HW269396  10.084   3.309   2.248 -0.3167  1.8803 -0.8896
21870SOL     OW69397   3.609   6.518   0.160  0.4952  0.2629 -0.1826
21870SOL    HW169398   3.628   6.597   0.109  2.1929 -0.4113 -0.6709
21870SOL    HW269399   3.558   6.463   0.101  1.2336  0.0792 -0.6606
21871SOL     OW69400   6.939   7.561   6.592 -0.1353  0.4476  0.0219
21871SOL    HW169401   6.869   7.597   6.537  0.0827  0.4857 -0.2302
21871SOL    HW269402   6.998   7.517   6.530 -0.0366  0.2515  0.2552
21872SOL     OW69403   8.082   5.503   9.007 -0.0927 -0.1371 -0.2395
21872SOL    HW169404   8.031   5.535   8.933 -2.4122  0.9305  1.6924
21872SOL    HW269405   8.020   5.453   9.060  1.5667 -1.1529  0.8589
21873SOL     OW69406   0.425   1.822   9.797 -0.0089  0.2889  0.2662
21873SOL    HW169407   0.364   1.758   9.759  0.5919  0.3839 -0.9004
21873SOL    HW269408   0.375   1.903   9.802 -0.0593  0.3145 -0.4930
21874SOL     OW69409   9.418   3.749   6.744 -0.1445 -0.1793 -0.0503
21874SOL    HW169410   9.495   3.806   6.749  1.0138 -1.4450 -1.9827
21874SOL    HW269411   9.451   3.663   6.768 -1.3962 -0.4357  0.8299
21875SOL     OW69412   7.696   1.392   0.808 -0.4192  0.1053 -0.0478
21875SOL    HW169413   7.636   1.390   0.883 -1.3312  1.4372 -0.6787
21875SOL    HW269414   7.773   1.439   0.840 -0.1486 -0.6870  0.4780
21876SOL     OW69415   2.059   0.815   8.510 -0.3406  0.2281  0.0696
21876SOL    HW169416   2.071   0.789   8.602 -1.3619 -0.8185 -0.0683
21876SOL    HW269417   2.094   0.904   8.506  1.6403 -0.4456  0.9902
21877SOL     OW69418   4.299   6.957   6.557 -0.4216  1.0041 -0.6803
21877SOL    HW169419   4.229   6.984   6.616  0.5867 -0.5469  1.3599
21877SOL    HW269420   4.262   6.882   6.509  0.2946 -1.0526  1.7450
21878SOL     OW69421   0.641   1.000   5.308  0.2354 -0.0655 -0.0769
21878SOL    HW169422   0.560   0.999   5.258 -0.9531  3.6842  1.4439
21878SOL    HW269423   0.709   0.981   5.244 -1.6390 -1.0522 -1.8652
21879SOL     OW69424   3.996   7.599  10.293  0.4737 -0.0445  0.3235
21879SOL    HW169425   4.027   7.640  10.374  1.3391 -1.9031  0.9780
21879SOL    HW269426   3.993   7.505  10.313 -0.3848 -0.4360 -1.4612
21880SOL     OW69427   2.716   9.385   8.916 -0.1370  0.3756 -0.7906
21880SOL    HW169428   2.722   9.312   8.854 -1.0503  0.7426 -1.3421
21880SOL    HW269429   2.732   9.346   9.002 -0.8690 -0.5343 -1.0511
21881SOL     OW69430   9.234   2.082   3.732  0.1944  0.1513  0.2321
21881SOL    HW169431   9.194   2.061   3.648 -0.2629 -0.4288  0.5770
21881SOL    HW269432   9.279   2.001   3.758  1.9453  0.9042 -0.3169
21882SOL     OW69433   7.377   8.477   9.524  0.4794  0.0639  0.0033
21882SOL    HW169434   7.352   8.399   9.574 -0.7541  1.1541  1.1865
21882SOL    HW269435   7.301   8.494   9.467  1.4701 -0.5968 -1.5631
21883SOL     OW69436   4.104   2.689   3.068 -0.3437 -0.0339 -0.2372
21883SOL    HW169437   4.166   2.672   3.139 -0.0953  0.1640 -0.4008
21883SOL    HW269438   4.143   2.647   2.991 -0.7130 -0.4241 -0.2170
21884SOL     OW69439   8.952   0.290   7.854 -0.6217 -0.4250 -0.1644
21884SOL    HW169440   8.857   0.286   7.863 -0.7062  0.7226 -0.4128
21884SOL    HW269441   8.976   0.374   7.893  0.0954  0.0580 -1.6120
21885SOL     OW69442   2.255   3.822   0.441 -0.0074  0.2761 -0.4745
21885SOL    HW169443   2.243   3.898   0.383  2.6701 -0.0289 -1.5748
21885SOL    HW269444   2.284   3.859   0.524 -0.2982  0.5290 -0.4839
21886SOL     OW69445  10.198  10.210   3.991 -0.2953  0.2657 -0.0629
21886SOL    HW169446  10.105  10.205   3.968 -0.3457  0.3867  0.1175
21886SOL    HW269447  10.201  10.184   4.083 -0.1560  0.3006 -0.0581
21887SOL     OW69448   5.056   2.718   2.612  0.1578  0.1182  0.3664
21887SOL    HW169449   4.970   2.694   2.646  1.3753 -3.2679  1.4316
21887SOL    HW269450   5.040   2.743   2.521 -1.9402 -0.3349  0.5776
21888SOL     OW69451   8.768   2.821   7.115 -0.1561 -0.3202  0.4938
21888SOL    HW169452   8.862   2.806   7.110 -0.0640  0.5102 -1.6813
21888SOL    HW269453   8.747   2.865   7.033 -2.3319  0.1936  1.2544
21889SOL     OW69454   7.969   7.278   9.132 -0.0941 -0.1520  0.0602
21889SOL    HW169455   8.030   7.338   9.090 -0.4510  0.5985  0.5942
21889SOL    HW269456   7.939   7.325   9.210 -1.4220 -0.4721 -0.2387
21890SOL     OW69457   5.504   0.441   3.692  0.0861 -0.1766  0.2804
21890SOL    HW169458   5.551   0.404   3.767  0.1756 -0.1584  0.2339
21890SOL    HW269459   5.549   0.523   3.673 -0.5257  0.2921  0.8005
21891SOL     OW69460   9.337  10.175   7.218 -0.0816 -0.3601 -0.0147
21891SOL    HW169461   9.275  10.247   7.214 -0.1438 -0.4785 -1.7212
21891SOL    HW269462   9.362  10.158   7.127  2.3534 -0.4190  0.5815
21892SOL     OW69463   3.968   7.802   8.582 -0.1229  0.7815  0.3343
21892SOL    HW169464   3.877   7.832   8.587 -1.3621 -2.5080  0.4567
21892SOL    HW269465   3.990   7.779   8.673  1.2530  2.4948  0.4704
21893SOL     OW69466   2.267   1.925   3.454  0.9251  0.1814 -0.3716
21893SOL    HW169467   2.240   1.909   3.544 -0.8323  0.3305 -0.8326
21893SOL    HW269468   2.210   1.868   3.402  0.0246  2.0600 -1.5359
21894SOL     OW69469   3.475   7.574   0.955  0.2480  0.1149 -0.1697
21894SOL    HW169470   3.440   7.555   0.869  0.7967  0.6070 -0.5145
21894SOL    HW269471   3.428   7.516   1.015 -0.4093  0.0502 -0.7485
21895SOL     OW69472   2.508   0.857  10.296  0.0528  0.0817  0.2346
21895SOL    HW169473   2.440   0.859  10.363  0.7559 -2.9858  1.2097
21895SOL    HW269474   2.460   0.855  10.213 -1.0344 -0.5931  0.8547
21896SOL     OW69475   0.427   4.012   8.658  0.0659 -0.5406  0.8784
21896SOL    HW169476   0.378   4.094   8.658 -0.1140 -0.6355 -0.5990
21896SOL    HW269477   0.361   3.943   8.666  0.2409 -0.5763  2.5481
21897SOL     OW69478   5.088   8.671   8.156 -0.0733  0.3360  0.1321
21897SOL    HW169479   5.110   8.579   8.143  0.2470  0.4934 -0.5023
21897SOL    HW269480   5.098   8.686   8.250  0.1276 -0.2091  0.1976
21898SOL     OW69481   9.014   0.308   9.612  0.6636  0.2384  0.2596
21898SOL    HW169482   9.034   0.396   9.579  1.0300  1.0786  2.5725
21898SOL    HW269483   8.921   0.296   9.591  0.4899  1.3622  0.3175
21899SOL     OW69484   4.474   3.337  10.259 -0.4795 -0.2269  0.1682
21899SOL    HW169485   4.538   3.357  10.327 -0.2927 -1.4399  0.3682
21899SOL    HW269486   4.391   3.329  10.305 -0.2004 -1.9995  0.4409
21900SOL     OW69487   4.873   0.921   5.041 -0.6633  0.6338  0.1684
21900SOL    HW169488   4.960   0.913   5.080 -0.4395  0.2628 -0.3956
21900SOL    HW269489   4.876   0.865   4.964 -1.4058  0.6239  0.1415
21901SOL     OW69490   4.264   2.987   2.931  0.5780 -0.4432 -0.5286
21901SOL    HW169491   4.174   2.981   2.897  0.1815  1.9304 -0.0861
21901SOL    HW269492   4.273   2.910   2.987 -1.9956  0.3032  1.1281
21902SOL     OW69493   5.039   0.748   4.800 -0.3384 -0.4317 -0.4829
21902SOL    HW169494   4.970   0.683   4.803 -0.7278 -0.1222 -1.9001
21902SOL    HW269495   5.086   0.737   4.882 -1.1245 -1.6839 -0.1735
21903SOL     OW69496   4.019   3.654   4.578  0.2234 -0.7336 -0.1946
21903SOL    HW169497   4.051   3.690   4.661 -1.1955 -0.0143  0.0796
21903SOL    HW269498   4.066   3.572   4.567  1.3802 -0.2087  0.6755
21904SOL     OW69499   5.367   6.136   0.394  0.3446 -0.6588 -0.6365
21904SOL    HW169500   5.326   6.142   0.308 -1.5352  0.4930  0.2578
21904SOL    HW269501   5.330   6.057   0.433  0.4865 -0.6822 -0.5478
21905SOL     OW69502   7.137   7.427   2.242 -0.4001 -0.0684 -0.5520
21905SOL    HW169503   7.101   7.492   2.301 -1.7401  0.1766 -1.5965
21905SOL    HW269504   7.179   7.362   2.299 -3.6995 -1.1321  0.8890
21906SOL     OW69505   4.551   5.255   8.445  0.1870  0.1816 -0.6184
21906SOL    HW169506   4.466   5.291   8.469  0.8884  1.0085  0.8001
21906SOL    HW269507   4.574   5.298   8.363  0.3078  1.8501  0.2470
21907SOL     OW69508   3.851   7.034   4.897  0.3355 -0.0547  0.2754
21907SOL    HW169509   3.894   7.107   4.853  1.1859  0.3721  1.7366
21907SOL    HW269510   3.885   6.956   4.852 -0.0691  0.4052 -0.8595
21908SOL     OW69511   7.801   7.920   7.120 -0.0884 -0.0953  0.0344
21908SOL    HW169512   7.723   7.912   7.175  0.9654 -1.7428  1.4164
21908SOL    HW269513   7.792   7.851   7.054 -0.8277  1.1772 -1.2554
21909SOL     OW69514   6.999   3.806   4.460 -0.7127  0.3443 -0.0123
21909SOL    HW169515   7.028   3.828   4.549 -2.6428  2.1395  0.2603
21909SOL    HW269516   6.910   3.773   4.471 -0.0351 -2.0459 -1.0881
21910SOL     OW69517   5.794   5.140   8.424  0.3940 -0.9499 -0.1652
21910SOL    HW169518   5.720   5.200   8.437 -0.7631 -2.7133  1.9872
21910SOL    HW269519   5.760   5.054   8.447  2.5715 -2.1667 -1.1775
21911SOL     OW69520   2.115   3.196   6.044  0.3133  0.2410 -0.4529
21911SOL    HW169521   2.075   3.128   6.098 -1.0816  0.1265 -1.5641
21911SOL    HW269522   2.090   3.278   6.086 -0.4746  0.1408 -0.6982
21912SOL     OW69523   0.797  10.185   0.481 -0.1157  0.3347  0.3610
21912SOL    HW169524   0.869  10.143   0.434 -0.3650 -0.4039  0.6277
21912SOL    HW269525   0.808  10.158   0.572  0.0727  1.3550  0.6453
21913SOL     OW69526   6.068   4.317   1.801 -0.1487 -0.1540  0.5725
21913SOL    HW169527   6.036   4.315   1.891  1.9685  0.7707  1.4128
21913SOL    HW269528   6.004   4.372   1.755  0.2018  1.7575  2.1971
21914SOL     OW69529   4.414   9.793   9.398 -0.1510  0.0292 -0.4961
21914SOL    HW169530   4.348   9.836   9.453 -0.5556 -0.6909 -0.4102
21914SOL    HW269531   4.376   9.794   9.310 -0.6620 -1.1172 -0.3078
21915SOL     OW69532   3.325   4.994   6.491 -0.3493  0.4399  0.6018
21915SOL    HW169533   3.257   5.039   6.441 -0.9938 -0.6690  0.4543
21915SOL    HW269534   3.403   5.049   6.480 -0.6628  0.6162 -0.9941
21916SOL     OW69535   4.350   5.823   4.982 -0.1207  0.0051 -0.4619
21916SOL    HW169536   4.321   5.911   5.007  0.9892  0.2171  0.1441
21916SOL    HW269537   4.365   5.829   4.888  0.4718  0.6388 -0.3376
21917SOL     OW69538   5.379   5.947   1.895  0.0068  0.2905  0.3062
21917SOL    HW169539   5.463   5.927   1.937 -0.3133  0.5851  1.1225
21917SOL    HW269540   5.336   6.007   1.956 -0.9197 -0.0877  0.0497
21918SOL     OW69541   2.211   2.575   5.985 -0.1447  0.2928 -0.6749
21918SOL    HW169542   2.307   2.579   5.984 -0.1150 -0.0207  0.1947
21918SOL    HW269543   2.190   2.484   5.965 -0.0865 -0.8050  3.3126
21919SOL     OW69544   3.415   4.463   6.570 -0.4383  0.0032  0.2182
21919SOL    HW169545   3.391   4.529   6.635 -1.6195  0.2405 -0.4222
21919SOL    HW269546   3.340   4.461   6.510  0.2089 -0.8946 -0.5827
21920SOL     OW69547  10.267   3.936   1.939  0.5119  0.1552 -0.7582
21920SOL    HW169548  10.282   3.866   2.001 -0.5542 -0.2834 -0.9620
21920SOL    HW269549  10.294   4.016   1.985 -3.6039  0.3697  1.8091
21921SOL     OW69550   7.333   1.456   4.486  0.4479  0.0022  0.6588
21921SOL    HW169551   7.313   1.546   4.509  0.6570 -0.3424  2.3195
21921SOL    HW269552   7.417   1.438   4.528  1.3336 -0.4263 -1.1703
21922SOL     OW69553   2.483   2.447   6.494  0.6245 -0.2731  0.6119
21922SOL    HW169554   2.466   2.422   6.404  1.5829 -3.9281  1.2858
21922SOL    HW269555   2.412   2.409   6.544  1.3290 -0.2988  1.6277
21923SOL     OW69556   1.839   6.373   5.729  0.3189  0.0934 -0.1377
21923SOL    HW169557   1.851   6.314   5.803  1.9784  0.3173 -0.1917
21923SOL    HW269558   1.789   6.322   5.665  1.4867 -1.1864 -0.0764
21924SOL     OW69559   3.499   9.767   7.489  0.3794 -0.4772 -0.3164
21924SOL    HW169560   3.476   9.693   7.433  2.0192 -1.1776 -0.1331
21924SOL    HW269561   3.589   9.749   7.516  0.1137  0.5484  1.4181
21925SOL     OW69562   5.930   1.351   0.088  0.6040  0.2219  0.0709
21925SOL    HW169563   5.888   1.290   0.028  0.6614  0.7123 -0.4730
21925SOL    HW269564   6.023   1.331   0.082  0.5532 -0.1825  0.5158
21926SOL     OW69565   0.355   4.194   0.967  0.3826 -0.1230  1.2596
21926SOL    HW169566   0.349   4.134   1.042  1.8556 -0.4521  1.1479
21926SOL    HW269567   0.292   4.160   0.904 -0.2072 -0.3904  1.9718
21927SOL     OW69568   1.833   6.875   4.847  0.5967  0.5060 -0.1180
21927SOL    HW169569   1.862   6.966   4.833  1.9945  0.1190  0.1462
21927SOL    HW269570   1.888   6.843   4.918  1.1315 -1.0130 -1.1701
21928SOL     OW69571   1.645   8.607   0.320 -0.2041 -0.6851 -0.6342
21928SOL    HW169572   1.552   8.587   0.309 -1.3570  2.0390  2.3856
21928SOL    HW269573   1.658   8.688   0.272  0.5829 -0.9277 -0.8436
21929SOL     OW69574   9.800   7.969   9.476 -0.3402  0.4345 -0.1192
21929SOL    HW169575   9.791   7.885   9.521 -1.2004  0.8283  0.4816
21929SOL    HW269576   9.783   7.949   9.384 -2.2043  0.1914  0.2331
21930SOL     OW69577   7.734  10.171   5.756  0.0411  0.1099  0.4797
21930SOL    HW169578   7.719  10.253   5.805  0.2753 -0.0758  0.8717
21930SOL    HW269579   7.765  10.200   5.670 -0.3060  0.4425  0.4607
21931SOL     OW69580   1.424   1.144  10.037 -0.2464  0.2030 -0.1024
21931SOL    HW169581   1.505   1.098  10.018 -0.5783 -0.9192  1.0237
21931SOL    HW269582   1.450   1.223  10.085  0.2332  0.3674 -0.6365
21932SOL     OW69583   2.900  10.102   1.392 -0.5656  0.1704 -0.3905
21932SOL    HW169584   2.984  10.056   1.404  0.1402  1.4387 -0.2802
21932SOL    HW269585   2.863  10.064   1.313 -0.0326 -0.6216 -0.2783
21933SOL     OW69586   7.943   1.883   2.536  0.3693 -0.2756 -0.2847
21933SOL    HW169587   7.967   1.968   2.499  0.3588 -0.6389 -1.1526
21933SOL    HW269588   7.888   1.904   2.611  1.4009  0.5144  0.2850
21934SOL     OW69589   6.207   7.401   3.572 -0.1349  0.0904 -0.0907
21934SOL    HW169590   6.222   7.345   3.648  0.3096  0.9722  0.4768
21934SOL    HW269591   6.113   7.393   3.555 -0.0462 -0.9939 -0.1644
21935SOL     OW69592   7.097   6.236   1.985  0.7409 -0.3495  0.2607
21935SOL    HW169593   7.037   6.310   1.999  0.4884 -0.4797 -0.1113
21935SOL    HW269594   7.178   6.262   2.029  0.4546 -0.1115  0.6474
21936SOL     OW69595   0.532   3.980   4.101  0.1555 -0.1640  0.0617
21936SOL    HW169596   0.535   4.061   4.152  1.4638 -0.0847 -0.0918
21936SOL    HW269597   0.616   3.937   4.119 -1.4865 -2.8146  2.2150
21937SOL     OW69598   2.542   9.165   7.197  0.0761 -0.3647 -0.6369
21937SOL    HW169599   2.619   9.123   7.236 -0.6041 -0.7741  0.2791
21937SOL    HW269600   2.579   9.227   7.134  1.1787 -0.0774  0.2573
21938SOL     OW69601   8.289   8.531   5.010  0.2158  0.1156  0.1584
21938SOL    HW169602   8.360   8.588   4.982 -1.0867  2.1140  0.7037
21938SOL    HW269603   8.234   8.521   4.932 -0.9102  1.8000  0.6774
21939SOL     OW69604   1.152  10.074   7.784 -0.3995 -0.6907 -0.0634
21939SOL    HW169605   1.232  10.114   7.749 -0.6725 -1.4167 -1.5869
21939SOL    HW269606   1.152   9.985   7.748 -2.7439 -0.1739 -1.5346
21940SOL     OW69607   4.802   1.076   1.961  0.2978 -0.1541  0.0282
21940SOL    HW169608   4.742   1.018   1.913  0.6087 -0.0211 -0.5290
21940SOL    HW269609   4.747   1.116   2.028 -0.2119 -0.1368 -0.3884
21941SOL     OW69610   9.146   4.563   9.814  0.3909  0.9937  0.0838
21941SOL    HW169611   9.190   4.539   9.896  1.8541 -1.3123 -1.2816
21941SOL    HW269612   9.214   4.603   9.761  0.8528 -2.0928 -1.8485
21942SOL     OW69613   4.974   3.534   2.092 -0.1669 -0.0619 -0.4417
21942SOL    HW169614   4.982   3.514   2.186 -0.0344  1.1672 -0.1792
21942SOL    HW269615   4.947   3.451   2.053  0.6023 -0.8147  0.5632
21943SOL     OW69616   7.375   0.777   9.617 -0.0902 -0.0875 -0.1156
21943SOL    HW169617   7.327   0.840   9.564 -0.3534 -2.3512 -2.7766
21943SOL    HW269618   7.464   0.779   9.583  0.5450  0.5664  1.4785
21944SOL     OW69619   3.162   7.426   6.131 -0.6303  0.4304 -0.3843
21944SOL    HW169620   3.165   7.379   6.048 -1.6200  0.1340 -0.2767
21944SOL    HW269621   3.111   7.505   6.113 -1.8752 -0.1987  0.1639
21945SOL     OW69622   1.760   1.354  10.014  0.7633  0.3953 -0.4177
21945SOL    HW169623   1.759   1.423  10.080 -0.1855 -0.5001  0.5455
21945SOL    HW269624   1.837   1.301  10.035  1.8745  1.4801 -1.5558
21946SOL     OW69625   4.143   9.003   9.057 -0.2730 -0.1301  0.1721
21946SOL    HW169626   4.195   8.994   8.977  2.6384 -0.4107  1.9757
21946SOL    HW269627   4.113   8.914   9.076  0.2059 -0.3021  0.1306
21947SOL     OW69628   2.210   6.608   4.688  0.6234 -0.3813 -0.0373
21947SOL    HW169629   2.193   6.515   4.705  0.8899 -0.2277  1.2030
21947SOL    HW269630   2.129   6.641   4.650  1.1911 -1.5420 -2.4341
21948SOL     OW69631  10.261   4.511   4.787 -0.3027  0.7582  0.2934
21948SOL    HW169632  10.178   4.545   4.751  0.1130  0.2343 -1.2348
21948SOL    HW269633  10.317   4.588   4.792  0.6931  0.4385 -3.3253
21949SOL     OW69634   6.428   5.751   5.327  0.0042  0.1666  0.4144
21949SOL    HW169635   6.439   5.827   5.385 -0.5344  1.3527 -0.9867
21949SOL    HW269636   6.352   5.772   5.274  0.1321 -1.1575 -0.3345
21950SOL     OW69637   0.754   5.603   7.346 -0.5586  0.3939  0.3894
21950SOL    HW169638   0.844   5.570   7.337 -0.6600  0.3451 -0.5351
21950SOL    HW269639   0.715   5.548   7.414 -0.8714 -1.7637 -1.4128
21951SOL     OW69640   1.949   1.549   4.214 -0.0135  0.0566  0.3367
21951SOL    HW169641   1.882   1.536   4.280  0.0247 -2.1517  0.0310
21951SOL    HW269642   2.031   1.527   4.258  0.4383  1.7824  0.4332
21952SOL     OW69643   0.770   1.861   6.044 -0.0350  0.0597 -0.3582
21952SOL    HW169644   0.761   1.892   5.954  2.0257 -0.8033 -0.9386
21952SOL    HW269645   0.713   1.784   6.049 -1.8037  1.3217 -0.2308
21953SOL     OW69646   6.930   6.291   2.329 -0.0483  0.0846  0.3110
21953SOL    HW169647   6.973   6.370   2.297 -0.1548  0.3417  0.7949
21953SOL    HW269648   6.918   6.237   2.251 -2.9814  1.9328 -0.7053
21954SOL     OW69649   3.911   8.778   3.711  0.5922 -0.3920  0.6655
21954SOL    HW169650   3.947   8.738   3.632  0.9300  1.7030 -0.3046
21954SOL    HW269651   3.962   8.859   3.723 -0.5174  0.1535  2.1081
21955SOL     OW69652   0.202   2.118   8.701 -0.4879  0.5304 -0.3257
21955SOL    HW169653   0.249   2.042   8.666 -0.0145  1.5661 -2.0479
21955SOL    HW269654   0.147   2.081   8.770  0.6676 -1.1733 -0.2261
21956SOL     OW69655  10.268   8.561   3.856  0.4009 -0.1602  0.0118
21956SOL    HW169656  10.255   8.468   3.837  0.1922 -0.1405  0.0562
21956SOL    HW269657  10.182   8.601   3.838  0.3898 -0.0337  0.3480
21957SOL     OW69658   4.969   7.550   1.093 -0.0732  0.2631  0.0442
21957SOL    HW169659   5.026   7.478   1.122  0.1747  0.1102 -0.7984
21957SOL    HW269660   4.944   7.595   1.174 -2.6335 -2.5000  1.0074
21958SOL     OW69661   4.568   2.529   8.355 -0.5329 -0.2308 -0.3938
21958SOL    HW169662   4.520   2.487   8.427  1.1758 -2.7185 -0.5667
21958SOL    HW269663   4.501   2.543   8.288 -1.8229  0.4896  0.9783
21959SOL     OW69664   5.591   8.432   8.596 -0.0719  0.3683  0.2593
21959SOL    HW169665   5.644   8.445   8.675  1.2705  0.0986 -0.5544
21959SOL    HW269666   5.501   8.431   8.627  0.3687  1.2184  1.6606
21960SOL     OW69667   5.114   7.906   3.142 -0.2268 -0.7551 -0.3690
21960SOL    HW169668   5.053   7.976   3.163 -0.9808 -2.1313  2.4869
21960SOL    HW269669   5.106   7.896   3.047 -1.2161  1.9441 -0.6625
21961SOL     OW69670   6.156   4.624   1.903 -0.1973 -0.0137 -0.1113
21961SOL    HW169671   6.111   4.583   1.830 -1.0759 -0.3223  0.5872
21961SOL    HW269672   6.096   4.692   1.934 -0.1655 -0.3614  0.7618
21962SOL     OW69673   3.687  10.145   8.430  0.3392  0.0390  0.3203
21962SOL    HW169674   3.637  10.077   8.387  1.0625  0.0549 -0.5802
21962SOL    HW269675   3.648  10.227   8.399  1.0514  0.0543 -0.5587
21963SOL     OW69676   7.579   7.600   8.551 -0.0865  0.3013 -0.1134
21963SOL    HW169677   7.484   7.597   8.558 -0.2834 -3.3700 -1.9836
21963SOL    HW269678   7.610   7.554   8.629  0.1752  1.1042  0.2684
21964SOL     OW69679   1.587   7.754   8.993 -0.0310 -0.1788 -0.4433
21964SOL    HW169680   1.563   7.840   9.028 -0.6356 -0.6291  0.2940
21964SOL    HW269681   1.538   7.746   8.911  0.3420  0.3391 -0.7202
21965SOL     OW69682   0.121   7.132   0.243 -0.6572  0.2102  0.4379
21965SOL    HW169683   0.123   7.036   0.253 -1.0957 -0.0680 -1.6661
21965SOL    HW269684   0.028   7.154   0.250 -0.7532  0.2416 -0.7905
21966SOL     OW69685   5.502   5.895   0.813  0.4003  0.1266  0.0424
21966SOL    HW169686   5.431   5.956   0.790 -0.5454 -0.8282  0.3275
21966SOL    HW269687   5.470   5.848   0.890  0.4356 -1.7588 -1.0177
21967SOL     OW69688   7.321   0.843   6.418 -0.1368 -0.0065  0.1134
21967SOL    HW169689   7.338   0.858   6.325  0.5572  1.0252  0.3877
21967SOL    HW269690   7.227   0.832   6.424 -0.2582  0.5585 -0.6357
21968SOL     OW69691   0.663   4.901   9.261 -0.0230  0.0494 -0.2494
21968SOL    HW169692   0.718   4.911   9.183  1.6413 -1.4669  0.6744
21968SOL    HW269693   0.663   4.807   9.279 -0.1382  0.3947  1.7395
21969SOL     OW69694   1.339   1.342   6.300  0.1347  0.3195 -0.4348
21969SOL    HW169695   1.271   1.409   6.294  0.6779  0.8806 -0.4714
21969SOL    HW269696   1.359   1.336   6.393  0.4831  0.6148 -0.4904
21970SOL     OW69697   1.141   1.670   0.504 -0.7172 -0.2788  0.6303
21970SOL    HW169698   1.174   1.586   0.471  0.6781 -0.0510  1.3823
21970SOL    HW269699   1.047   1.655   0.516 -0.4580 -1.8344  1.0003
21971SOL     OW69700   9.775   0.118   8.060  0.4647  0.3903  0.6990
21971SOL    HW169701   9.807   0.028   8.073 -0.1134 -0.1523 -1.2497
21971SOL    HW269702   9.697   0.123   8.115  0.3227 -0.4271  0.5961
21972SOL     OW69703   4.228   4.891   1.288 -0.2742  0.4516  0.0971
21972SOL    HW169704   4.181   4.816   1.253  0.1724 -0.5034  1.4763
21972SOL    HW269705   4.160   4.955   1.310 -0.7503 -0.0609  0.1169
21973SOL     OW69706   8.925   0.739   4.874 -0.3489 -0.3547 -0.2463
21973SOL    HW169707   8.834   0.722   4.849 -0.0701 -0.6331 -1.0986
21973SOL    HW269708   8.974   0.735   4.792  0.4896 -0.5885  0.2524
21974SOL     OW69709   8.990   2.380   8.679 -0.4748 -0.0506 -0.0623
21974SOL    HW169710   9.070   2.362   8.629 -1.3425 -0.7455 -1.2795
21974SOL    HW269711   8.980   2.304   8.737 -1.1215 -0.8185 -1.1330
21975SOL     OW69712   4.120   5.910   2.231  0.3609  0.1468 -0.2472
21975SOL    HW169713   4.127   5.883   2.323 -0.0288  0.3982 -0.1367
21975SOL    HW269714   4.106   6.005   2.236 -0.6902  0.0185 -0.5165
21976SOL     OW69715   8.581   6.273   1.964 -0.9326 -0.4695  0.1069
21976SOL    HW169716   8.597   6.328   1.887  0.8206 -1.4305 -0.2506
21976SOL    HW269717   8.526   6.202   1.932 -2.0409  0.2955  0.2605
21977SOL     OW69718   7.862   8.569  10.248 -0.1756 -0.3897  0.2610
21977SOL    HW169719   7.924   8.523  10.191 -0.8818 -2.3986  1.0237
21977SOL    HW269720   7.902   8.655  10.261  0.7851 -0.4267 -1.9334
21978SOL     OW69721   9.996   0.496   4.213 -0.2115  0.2336  0.7607
21978SOL    HW169722  10.049   0.493   4.293  1.4559  2.1692 -0.1795
21978SOL    HW269723  10.039   0.435   4.153 -0.0959  0.4886  0.5831
21979SOL     OW69724   8.234   1.115   5.032 -0.5263  0.3096 -0.0959
21979SOL    HW169725   8.179   1.105   5.110  0.1184  2.1301  0.6357
21979SOL    HW269726   8.291   1.188   5.052  1.4545 -0.8242 -1.2691
21980SOL     OW69727   0.856   9.724   1.724 -0.5322 -0.2905 -0.0103
21980SOL    HW169728   0.880   9.784   1.653 -0.1120 -0.9364 -0.4206
21980SOL    HW269729   0.845   9.781   1.800  0.8201  0.2255 -0.1648
21981SOL     OW69730   1.722   9.109   6.410 -0.1642  0.3145 -0.2712
21981SOL    HW169731   1.658   9.138   6.345  0.5247  0.9058 -0.6946
21981SOL    HW269732   1.785   9.056   6.360 -0.1581 -0.0276  0.0897
21982SOL     OW69733   7.685   2.952   6.362 -0.3549  0.0843 -0.4201
21982SOL    HW169734   7.699   2.861   6.388 -1.5575 -0.6375 -2.1043
21982SOL    HW269735   7.766   2.978   6.317  0.6955  0.4858  1.6009
21983SOL     OW69736   2.813   3.225   4.608  0.2521 -0.6529  0.0826
21983SOL    HW169737   2.874   3.157   4.635  1.4141  0.2541 -0.2027
21983SOL    HW269738   2.860   3.276   4.543 -1.3905 -0.8955 -1.3828
21984SOL     OW69739   7.645   1.978   8.190  0.3240  0.0405  0.7323
21984SOL    HW169740   7.682   2.008   8.107 -1.2103 -1.2729 -0.4716
21984SOL    HW269741   7.684   1.892   8.205 -2.1750 -1.4529 -0.6468
21985SOL     OW69742   9.068   8.437   3.275  0.2200 -0.2459 -0.6585
21985SOL    HW169743   9.017   8.357   3.281  1.6600 -1.2893 -1.6680
21985SOL    HW269744   9.085   8.449   3.182 -0.4129  1.5525 -0.5829
21986SOL     OW69745   0.480   5.149  10.228  0.0897  0.1814  0.2283
21986SOL    HW169746   0.401   5.127  10.178 -0.0438 -1.5172  1.1363
21986SOL    HW269747   0.548   5.156  10.162 -0.7766  1.6594 -0.5729
21987SOL     OW69748   5.425   0.286   4.521  0.6768  0.0389  0.4368
21987SOL    HW169749   5.356   0.341   4.486 -0.0102 -1.5202 -0.7969
21987SOL    HW269750   5.487   0.347   4.560  0.4639  1.7517 -1.7029
21988SOL     OW69751   9.946   3.381   4.559 -0.0386  0.5827 -0.5023
21988SOL    HW169752  10.029   3.411   4.523 -0.0896 -0.0453 -1.1688
21988SOL    HW269753   9.969   3.306   4.614 -0.3573 -1.0366 -2.4660
21989SOL     OW69754   0.733  10.250   5.422 -0.7194  0.2467 -0.0162
21989SOL    HW169755   0.797  10.220   5.357 -0.4412 -0.3206  0.5072
21989SOL    HW269756   0.689  10.324   5.380  0.6005  0.9569 -0.2161
21990SOL     OW69757   3.128   3.174   8.190  0.4109  0.1851 -0.5151
21990SOL    HW169758   3.078   3.133   8.261  0.3625  0.9567 -0.1031
21990SOL    HW269759   3.130   3.107   8.121 -1.3244  0.1694 -0.6017
21991SOL     OW69760   2.102   1.240   7.497  0.0653 -0.0401  0.3975
21991SOL    HW169761   2.032   1.200   7.445 -0.3175 -0.5436  1.2726
21991SOL    HW269762   2.175   1.179   7.489  0.0512 -0.0510  0.3454
21992SOL     OW69763   2.164   4.544   3.578 -0.1735 -0.0757  0.4064
21992SOL    HW169764   2.237   4.567   3.635 -0.4633 -1.4559  1.3711
21992SOL    HW269765   2.205   4.504   3.501  0.0969 -2.3174  1.6308
21993SOL     OW69766   1.550  10.060   2.383 -0.0810 -0.3487 -0.2376
21993SOL    HW169767   1.491  10.093   2.315 -0.7410 -0.6307  0.1883
21993SOL    HW269768   1.499  10.063   2.463  0.1687 -1.4652 -0.0184
21994SOL     OW69769   0.802   6.236   8.706 -0.1095 -0.3620 -0.3314
21994SOL    HW169770   0.858   6.271   8.637  0.3431  2.5223  1.3080
21994SOL    HW269771   0.853   6.166   8.746  0.8342 -0.1224 -1.0869
21995SOL     OW69772   9.534   2.085   7.885  0.4696 -0.1503 -0.0270
21995SOL    HW169773   9.462   2.079   7.822 -0.9534  0.1262  1.5303
21995SOL    HW269774   9.558   1.993   7.902  0.1785 -0.2634 -0.2117
21996SOL     OW69775   1.904   1.042   0.779  0.1772  0.4575  0.1678
21996SOL    HW169776   1.932   1.105   0.713  1.7235  0.2216  0.5611
21996SOL    HW269777   1.983   0.992   0.800 -0.4843 -0.0692  1.5421
21997SOL     OW69778   7.137   6.437   0.833  0.2086  0.1280 -0.4723
21997SOL    HW169779   7.144   6.424   0.928  0.6323  0.4376 -0.4585
21997SOL    HW269780   7.217   6.397   0.798  0.6793  1.1255 -0.5801
21998SOL     OW69781   0.623   6.912   2.594 -0.1738 -0.0151  0.3442
21998SOL    HW169782   0.575   6.902   2.676 -0.1427 -0.7170  0.2781
21998SOL    HW269783   0.590   6.842   2.538  1.2449 -0.7870  0.4483
21999SOL     OW69784   1.447   2.054   6.833 -0.2159 -0.1516 -0.2351
21999SOL    HW169785   1.357   2.074   6.810 -0.2390 -1.2960 -1.2168
21999SOL    HW269786   1.483   2.010   6.756  0.2262 -2.5765  1.2531
22000SOL     OW69787   5.297   0.971   8.802 -0.4579  0.1679 -0.4704
22000SOL    HW169788   5.291   1.062   8.831 -0.4712 -0.1275  0.5045
22000SOL    HW269789   5.383   0.963   8.763 -1.0258  0.9759 -1.9568
22001SOL     OW69790   7.755   6.192   2.858 -0.1502  0.6450  0.1712
22001SOL    HW169791   7.781   6.134   2.786 -2.0251  0.8032 -0.6968
22001SOL    HW269792   7.835   6.204   2.909  0.4420 -2.1594  0.0289
22002SOL     OW69793   8.116   5.665   8.539 -0.6196  0.0868  0.1496
22002SOL    HW169794   8.112   5.757   8.511 -1.0626  0.6069  1.8128
22002SOL    HW269795   8.050   5.621   8.485 -0.9010  0.8804 -0.1710
22003SOL     OW69796   9.227   5.276   1.684  0.7993 -0.0460  0.4217
22003SOL    HW169797   9.141   5.257   1.647  1.6243 -1.3954 -0.9254
22003SOL    HW269798   9.225   5.235   1.771 -0.9410  2.6339  1.8198
22004SOL     OW69799   8.338   7.449   7.887 -0.1189 -0.0259 -0.1755
22004SOL    HW169800   8.323   7.543   7.874 -0.2864  0.3806  2.4261
22004SOL    HW269801   8.417   7.430   7.836  0.5594  1.7965  0.1070
22005SOL     OW69802  10.359   5.370   7.187 -0.3080  0.2727 -0.1770
22005SOL    HW169803  10.390   5.327   7.107  0.7141 -2.5272  1.5469
22005SOL    HW269804  10.390   5.460   7.181  1.5867 -0.4318 -1.9875
22006SOL     OW69805   5.292   6.308   0.791 -0.5253 -0.6350  0.2656
22006SOL    HW169806   5.374   6.354   0.806 -0.5198 -0.5533 -0.0213
22006SOL    HW269807   5.244   6.363   0.730 -0.7468 -0.7383  0.3458
22007SOL     OW69808   5.549   1.299   5.334 -0.8197  0.1859  0.2356
22007SOL    HW169809   5.506   1.384   5.334 -1.6817 -0.1684  2.2899
22007SOL    HW269810   5.628   1.312   5.387 -0.1336  0.0493 -0.7293
22008SOL     OW69811   5.963   1.250   5.261  0.0738  0.2122  0.5883
22008SOL    HW169812   5.959   1.342   5.233 -2.2733 -0.2156 -0.7194
22008SOL    HW269813   5.907   1.246   5.339  0.6932 -0.0110  1.0322
22009SOL     OW69814   8.922   5.436   5.791 -0.0903  0.1456  0.0033
22009SOL    HW169815   8.911   5.412   5.699 -0.3049 -1.0131  0.3166
22009SOL    HW269816   8.885   5.362   5.840  1.2090  0.1419  1.0298
22010SOL     OW69817   2.261   9.933   0.014  0.0928 -0.2059 -0.2534
22010SOL    HW169818   2.326   9.931   0.085 -1.2679  1.8344  1.1662
22010SOL    HW269819   2.225   9.844   0.012  1.2026 -0.6965  0.6023
22011SOL     OW69820   9.998   5.131   2.147 -0.3185 -0.0776 -0.5218
22011SOL    HW169821   9.994   5.191   2.222  2.7744 -0.1435 -0.1958
22011SOL    HW269822   9.961   5.049   2.180 -0.4208  0.3455  0.4394
22012SOL     OW69823   4.213   9.916   9.521  0.0936 -0.1579  0.1626
22012SOL    HW169824   4.157   9.905   9.598 -0.0138 -1.0160 -0.0332
22012SOL    HW269825   4.179   9.995   9.479  0.0591  0.2320  0.9085
22013SOL     OW69826   8.734   8.188   4.226  0.0165  0.2712 -0.5656
22013SOL    HW169827   8.757   8.148   4.310  0.4460 -1.7190 -1.5871
22013SOL    HW269828   8.639   8.178   4.220 -0.1926  1.5289  0.1865
22014SOL     OW69829   2.564   3.490   2.729 -0.7122  0.1886 -0.1681
22014SOL    HW169830   2.618   3.488   2.808  0.5346  1.4894 -0.9518
22014SOL    HW269831   2.585   3.573   2.687 -1.2608 -0.5171 -1.9312
22015SOL     OW69832   0.697   3.094   1.841 -0.6829 -0.2877  0.3641
22015SOL    HW169833   0.692   2.998   1.843 -0.2258 -0.3078  0.7733
22015SOL    HW269834   0.703   3.115   1.748  0.7116 -0.7546  0.3190
22016SOL     OW69835  10.082   5.402   6.369  0.2684 -0.1371 -0.2198
22016SOL    HW169836  10.122   5.316   6.359  0.7334 -0.0464  0.6757
22016SOL    HW269837  10.153   5.463   6.348  0.3866  0.0248  0.6196
22017SOL     OW69838   2.346   6.663   2.385  0.1265  0.3949  0.0431
22017SOL    HW169839   2.325   6.688   2.475 -0.6926 -2.6440  0.8135
22017SOL    HW269840   2.265   6.624   2.351  1.3342 -1.5873 -0.7752
22018SOL     OW69841   9.998   6.497   1.053 -0.2396  0.2510  0.1936
22018SOL    HW169842  10.024   6.417   1.098 -1.4257 -0.2599 -0.0024
22018SOL    HW269843   9.957   6.551   1.121 -1.7746 -0.4030 -0.1748
22019SOL     OW69844   2.797   2.621  10.141 -0.6058 -0.1583  0.1779
22019SOL    HW169845   2.845   2.659  10.215 -1.0207 -1.2037  1.0052
22019SOL    HW269846   2.794   2.527  10.160 -0.8631 -0.4219 -1.0935
22020SOL     OW69847   6.758   6.868   9.012  0.5241  0.3512  0.0963
22020SOL    HW169848   6.717   6.893   8.929  1.6322 -0.9188 -0.8937
22020SOL    HW269849   6.701   6.800   9.048  0.4483  0.3417 -0.0412
22021SOL     OW69850   1.727   1.154  10.239  0.3160 -0.4087 -0.4624
22021SOL    HW169851   1.717   1.158  10.334  0.3104  0.5975 -0.4941
22021SOL    HW269852   1.731   1.060  10.219  1.7354 -0.6174  0.6648
22022SOL     OW69853   4.652   8.027   3.477 -0.3797  0.4917  0.4637
22022SOL    HW169854   4.595   8.017   3.401  2.1339 -2.3994 -1.2753
22022SOL    HW269855   4.639   7.947   3.528  1.1360  0.3130  0.6375
22023SOL     OW69856   8.548   1.035   5.261  0.3305 -0.0462 -0.0707
22023SOL    HW169857   8.462   1.001   5.285  1.3744 -2.5142  0.5089
22023SOL    HW269858   8.530   1.106   5.200 -2.1104 -0.1167  0.4764
22024SOL     OW69859   6.909   6.818   1.921  0.1569 -0.2015  0.0930
22024SOL    HW169860   6.857   6.891   1.954 -0.9979 -1.9981  2.5822
22024SOL    HW269861   6.861   6.740   1.949  3.0537 -1.9544  0.5241
22025SOL     OW69862   2.054   8.931   8.782 -0.0177  0.3635  0.1944
22025SOL    HW169863   2.086   8.987   8.711  0.0057 -1.7067 -1.4932
22025SOL    HW269864   1.974   8.974   8.812 -1.2834  0.1865 -2.6172
22026SOL     OW69865   2.997   3.743   5.604 -0.0211  0.0147 -0.0594
22026SOL    HW169866   2.953   3.780   5.528  0.0633  0.7578  0.2371
22026SOL    HW269867   2.995   3.814   5.669  1.0541 -0.1495  0.1781
22027SOL     OW69868   3.418   8.151  10.025 -0.0109 -0.1732  0.4438
22027SOL    HW169869   3.473   8.228  10.016  1.5973 -1.4751 -1.8469
22027SOL    HW269870   3.468   8.092  10.082  0.0315 -0.5412  0.0365
22028SOL     OW69871   9.008  10.223   8.274  0.0708 -0.3621 -0.1186
22028SOL    HW169872   9.019  10.242   8.181  1.2482  0.5389  0.1739
22028SOL    HW269873   9.076  10.276   8.317 -0.7331 -0.4262  1.2831
22029SOL     OW69874   2.666   2.697   6.990 -0.1075  0.1266  0.1919
22029SOL    HW169875   2.640   2.644   7.065 -1.2413 -2.0177 -1.6057
22029SOL    HW269876   2.588   2.701   6.935  1.0007  0.6653 -1.4146
22030SOL     OW69877   3.691   1.533   4.339  0.6387  0.2618  0.0492
22030SOL    HW169878   3.655   1.458   4.291 -1.2405  0.8759  0.4048
22030SOL    HW269879   3.700   1.502   4.429  2.0949 -0.2241 -0.2430
22031SOL     OW69880   8.372   9.471   5.614 -0.3437 -0.2758  0.0029
22031SOL    HW169881   8.283   9.436   5.601 -0.5640  0.5697 -0.8547
22031SOL    HW269882   8.379   9.483   5.709 -1.5144  0.5459  0.0128
22032SOL     OW69883   8.006   2.743   3.909  0.3609  0.3124 -0.0005
22032SOL    HW169884   8.016   2.654   3.875  0.8215  0.5657 -0.5463
22032SOL    HW269885   7.918   2.769   3.883  0.1101 -0.0845  0.4215
22033SOL     OW69886   8.208   3.887   3.957  0.5044 -0.1935 -0.4042
22033SOL    HW169887   8.269   3.938   3.903  1.3627 -0.5144  0.2465
22033SOL    HW269888   8.220   3.921   4.045 -0.5577  0.0056 -0.3259
22034SOL     OW69889   3.001  10.160   3.322  0.0984  0.1351  0.8740
22034SOL    HW169890   2.918  10.199   3.295  0.6883  0.8977  0.1286
22034SOL    HW269891   2.976  10.080   3.368 -0.9773 -0.9890 -1.5088
22035SOL     OW69892   4.308   0.304   5.792  0.3064  0.2823  0.2328
22035SOL    HW169893   4.343   0.218   5.815 -0.7730 -0.4454 -0.7566
22035SOL    HW269894   4.349   0.364   5.855 -0.0207 -1.1329  1.8703
22036SOL     OW69895   6.640   7.730   0.322  0.4781 -0.2939 -0.0754
22036SOL    HW169896   6.559   7.747   0.371  0.5090  1.4546 -0.5436
22036SOL    HW269897   6.612   7.725   0.231  1.0482  2.5108 -0.5172
22037SOL     OW69898   4.309   3.853   4.179  0.8772 -0.0913 -0.7003
22037SOL    HW169899   4.243   3.842   4.248  0.1642  0.7444 -1.2297
22037SOL    HW269900   4.285   3.786   4.114  1.4237 -0.7384 -0.2533
22038SOL     OW69901   8.243   7.973   5.317  0.2555 -0.0058  0.1322
22038SOL    HW169902   8.315   8.036   5.315  0.0470  0.2408  0.2955
22038SOL    HW269903   8.285   7.889   5.337  0.5835  0.0075 -0.4721
22039SOL     OW69904   6.253   1.165   2.678 -0.4154  0.2613 -0.7750
22039SOL    HW169905   6.257   1.072   2.702 -0.2619  0.2189 -0.9655
22039SOL    HW269906   6.230   1.165   2.585 -1.0446  0.4266 -0.6203
22040SOL     OW69907   4.795   1.172   5.102  0.4338  0.0581  0.5788
22040SOL    HW169908   4.813   1.179   5.196  0.4482 -0.3226  0.6043
22040SOL    HW269909   4.828   1.086   5.077  1.9033  0.7734 -0.0986
22041SOL     OW69910   9.330   3.986   7.877 -0.4347  0.3261 -0.0022
22041SOL    HW169911   9.248   3.962   7.920  0.0872 -0.3964  0.6249
22041SOL    HW269912   9.381   3.905   7.876  1.4882  1.3884  2.3571
22042SOL     OW69913   8.289   9.847   8.341  0.2015  0.5457  0.0808
22042SOL    HW169914   8.290   9.919   8.404 -1.8336  0.9767 -0.3176
22042SOL    HW269915   8.277   9.890   8.256  1.8105 -0.1065 -0.5217
22043SOL     OW69916   2.963  10.243   6.443 -0.5392  0.0400 -0.0959
22043SOL    HW169917   3.001  10.317   6.490 -1.1681  0.1805  0.2087
22043SOL    HW269918   3.016  10.168   6.469  0.3387  0.4369 -0.6995
22044SOL     OW69919   0.285   2.381   6.959 -0.0237  0.3510  0.0984
22044SOL    HW169920   0.302   2.470   6.926  0.7242 -0.5401 -2.0685
22044SOL    HW269921   0.195   2.363   6.933 -0.0672  0.3578  0.2461
22045SOL     OW69922   8.383   9.668   1.182 -0.1225 -0.2345 -0.7849
22045SOL    HW169923   8.338   9.597   1.227  0.6984 -1.5222 -1.9216
22045SOL    HW269924   8.312   9.724   1.149 -0.7594  0.1721  1.1072
22046SOL     OW69925   7.283   1.293   8.898 -0.1256 -0.7370  0.2754
22046SOL    HW169926   7.209   1.246   8.862  1.0064 -0.8775 -2.0558
22046SOL    HW269927   7.276   1.382   8.862 -1.0835  0.3879  2.9461
22047SOL     OW69928   2.647   9.327   9.933  0.5739 -0.1313  0.2425
22047SOL    HW169929   2.576   9.264   9.930  1.7757 -1.5195 -0.7126
22047SOL    HW269930   2.638   9.378   9.853 -0.2958  0.8220  0.9301
22048SOL     OW69931   2.159   6.461   2.014 -0.4348  0.2031  0.2370
22048SOL    HW169932   2.243   6.497   2.042 -0.3702  1.1212 -1.0659
22048SOL    HW269933   2.183   6.393   1.950 -0.5269 -2.5761  2.9361
22049SOL     OW69934   0.836   6.870   7.429 -0.8528  0.2853  0.0119
22049SOL    HW169935   0.768   6.832   7.484 -0.5236  0.3687  0.4953
22049SOL    HW269936   0.904   6.896   7.492 -0.4399  0.3236 -0.4491
22050SOL     OW69937   1.851   9.510   6.720 -0.2865 -0.0764  0.2378
22050SOL    HW169938   1.810   9.431   6.686 -0.3718  0.0157  0.1269
22050SOL    HW269939   1.793   9.581   6.694  0.7358  0.2463 -1.3326
22051SOL     OW69940   1.504   4.155   1.743  0.2191 -0.2621  0.2065
22051SOL    HW169941   1.482   4.205   1.664 -1.4641 -0.9893  0.1563
22051SOL    HW269942   1.437   4.180   1.806  1.1007 -0.2619  1.1620
22052SOL     OW69943   9.330   1.886   8.455 -0.1625  0.4769  0.1764
22052SOL    HW169944   9.304   1.794   8.455  1.7161 -0.0876  0.3931
22052SOL    HW269945   9.426   1.885   8.449  0.0679  2.3579  2.0648
22053SOL     OW69946   1.341   2.697   6.652  0.5108 -0.0422 -0.4652
22053SOL    HW169947   1.274   2.731   6.593  0.0020 -1.0842 -0.5101
22053SOL    HW269948   1.407   2.659   6.594  0.1905 -0.7347 -0.3928
22054SOL     OW69949   4.409   1.398   4.264  0.0206  0.4377 -0.0172
22054SOL    HW169950   4.424   1.316   4.217  0.8477  1.0726 -0.9043
22054SOL    HW269951   4.346   1.446   4.210 -0.1216  0.5747  0.2675
22055SOL     OW69952   0.073   4.205   0.163  0.0698 -0.5122  0.7955
22055SOL    HW169953   0.159   4.231   0.197  0.0806  1.7953 -0.7501
22055SOL    HW269954   0.018   4.282   0.176 -1.1364 -1.1477 -0.2940
22056SOL     OW69955   1.507   6.091   4.100 -0.4255 -0.1437 -0.3083
22056SOL    HW169956   1.541   6.018   4.048  2.4317  0.2941  0.7745
22056SOL    HW269957   1.520   6.064   4.191  1.7865  2.0810  0.1406
22057SOL     OW69958   7.064   7.358   8.151  0.0241  0.1918 -0.8671
22057SOL    HW169959   7.129   7.427   8.150  0.3668 -0.1125  0.0718
22057SOL    HW269960   6.988   7.396   8.196  0.7882 -0.5228  1.1343
22058SOL     OW69961   6.020  10.123   3.474  0.5765 -0.3554  0.5226
22058SOL    HW169962   6.027  10.029   3.490 -0.2610 -0.7568 -1.2591
22058SOL    HW269963   6.063  10.137   3.390  0.1327  0.7424  0.4573
22059SOL     OW69964   8.627   3.811   5.170  0.6686 -0.3137  0.5516
22059SOL    HW169965   8.650   3.725   5.134  0.1364 -0.2687  0.0928
22059SOL    HW269966   8.709   3.844   5.208  1.1061 -0.5958 -0.1299
22060SOL     OW69967   7.901   3.483   2.162 -0.1093  0.1242 -0.7478
22060SOL    HW169968   7.951   3.433   2.227  0.1639  2.7952  1.2521
22060SOL    HW269969   7.967   3.531   2.112 -0.4646  0.0989 -1.2481
22061SOL     OW69970   8.115  10.218   5.409 -0.5971 -0.2432 -0.6379
22061SOL    HW169971   8.195  10.217   5.356  1.2345  0.5133  1.9054
22061SOL    HW269972   8.106  10.309   5.437 -1.9899 -0.4584 -0.3181
22062SOL     OW69973   8.620   6.952   0.239 -0.4219  0.4055  0.6783
22062SOL    HW169974   8.707   6.957   0.279  1.1499  0.2250 -2.3739
22062SOL    HW269975   8.607   7.039   0.200 -0.5787 -0.1930 -0.6824
22063SOL     OW69976   3.411   3.894   9.126 -0.0433 -0.3298  0.1205
22063SOL    HW169977   3.412   3.799   9.135  1.4571 -0.4037 -0.4929
22063SOL    HW269978   3.397   3.910   9.032  0.1410  0.0493  0.1540
22064SOL     OW69979   4.316   7.069   3.903 -0.0058 -0.5627  0.6177
22064SOL    HW169980   4.285   7.089   3.814  0.3745 -0.6187  0.4717
22064SOL    HW269981   4.411   7.066   3.895  0.1728  1.3884  1.4191
22065SOL     OW69982   7.801   5.866   3.759  0.3859 -0.0786  0.7051
22065SOL    HW169983   7.768   5.777   3.771  0.0008  0.0353  0.5058
22065SOL    HW269984   7.764   5.916   3.831 -1.3769  0.4531 -0.4953
22066SOL     OW69985   0.627   8.956   1.042 -0.3925 -0.1262 -0.3194
22066SOL    HW169986   0.618   8.978   0.949  1.0885 -2.0827 -1.0086
22066SOL    HW269987   0.634   8.861   1.043  1.2030 -0.0609  1.6346
22067SOL     OW69988   1.754   5.965   1.369  0.4902  0.0271 -0.3702
22067SOL    HW169989   1.660   5.968   1.389  0.4307 -0.1758 -0.6160
22067SOL    HW269990   1.760   5.914   1.289  0.5716  2.0457 -1.7190
22068SOL     OW69991   9.594   4.142   8.185 -0.2592  0.3781  0.2723
22068SOL    HW169992   9.511   4.130   8.230  0.7906  0.0059  2.2417
22068SOL    HW269993   9.622   4.231   8.208  0.7930 -0.1878  1.3484
22069SOL     OW69994   3.895   2.704   5.702  0.3762 -0.3593 -0.1032
22069SOL    HW169995   3.948   2.641   5.751  0.3452 -0.2603  0.0570
22069SOL    HW269996   3.805   2.675   5.717  0.3872 -0.5644 -0.4261
22070SOL     OW69997   6.320   8.448   2.449  0.4062 -0.3664  0.6865
22070SOL    HW169998   6.299   8.414   2.362  0.1732 -1.7653  1.2562
22070SOL    HW269999   6.291   8.379   2.509 -0.4652  1.0332  1.9549
22071SOL     OW70000   7.184   8.253   0.088 -0.3438 -0.5775 -0.8193
22071SOL    HW170001   7.207   8.162   0.066 -0.4814 -1.2002  1.3298
22071SOL    HW270002   7.133   8.245   0.169 -1.0183  1.3798 -1.0170
22072SOL     OW70003   8.376   5.470   3.598  0.1080 -1.1594  0.0024
22072SOL    HW170004   8.369   5.521   3.678 -0.8801 -2.5547  0.8585
22072SOL    HW270005   8.417   5.529   3.535 -0.6023  0.5198  1.0483
22073SOL     OW70006   4.612   3.453   8.661 -0.1438 -0.3685  0.2919
22073SOL    HW170007   4.578   3.368   8.632  2.2932 -1.0030 -0.9820
22073SOL    HW270008   4.675   3.432   8.729  1.5215  0.2221 -0.9986
22074SOL     OW70009   1.784  10.031   4.298 -0.0227 -0.3879 -0.0033
22074SOL    HW170010   1.774  10.120   4.331  2.1164 -0.1810  0.2006
22074SOL    HW270011   1.757   9.975   4.370 -3.5128 -0.0030 -0.8397
22075SOL     OW70012   9.731   6.790   3.118  0.0703  0.2237 -0.3346
22075SOL    HW170013   9.809   6.760   3.164 -0.0875 -0.6557 -0.6187
22075SOL    HW270014   9.692   6.856   3.176  0.8238  0.4040 -0.0308
22076SOL     OW70015   8.948   1.227   2.660  0.6351  0.4460 -0.4249
22076SOL    HW170016   8.983   1.199   2.744  0.5469  2.9699  0.5428
22076SOL    HW270017   8.856   1.201   2.661  1.3868 -2.6483 -1.3034
22077SOL     OW70018   1.871   4.823   3.698  0.1848 -0.0931  0.5246
22077SOL    HW170019   1.879   4.753   3.762 -1.4572 -0.7332  0.0997
22077SOL    HW270020   1.832   4.781   3.622  1.0400  0.8906 -0.4860
22078SOL     OW70021   8.995   2.178   4.076 -0.2856  0.2049 -0.5647
22078SOL    HW170022   9.086   2.189   4.103 -0.5945  0.0609  0.6167
22078SOL    HW270023   8.988   2.086   4.050  0.6456  0.9290 -3.7988
22079SOL     OW70024   2.004   3.998   9.975  0.5493  0.2874 -0.7970
22079SOL    HW170025   1.972   4.068  10.032 -0.5008  0.1176 -1.1512
22079SOL    HW270026   1.977   4.024   9.887 -2.5387 -1.8985 -0.6627
22080SOL     OW70027   7.489   6.193   0.135 -0.4415  0.2081  0.5108
22080SOL    HW170028   7.409   6.168   0.089 -1.9906  1.1595  2.5220
22080SOL    HW270029   7.557   6.135   0.099 -2.0603 -0.7682 -1.1121
22081SOL     OW70030   0.765   4.607   0.364 -0.5370 -0.2310  0.4522
22081SOL    HW170031   0.786   4.654   0.283  0.3403 -1.0442  0.2054
22081SOL    HW270032   0.674   4.579   0.352 -0.7999  0.6657  0.2541
22082SOL     OW70033   5.496   9.702   6.306  0.5285 -0.1778  0.7642
22082SOL    HW170034   5.546   9.669   6.230 -0.6245 -0.5847  0.1521
22082SOL    HW270035   5.541   9.783   6.331  1.2770 -0.3420  0.0106
22083SOL     OW70036   4.877   6.481   0.280  0.0447  0.2505 -0.1583
22083SOL    HW170037   4.786   6.481   0.306 -0.1595 -0.6623 -0.8152
22083SOL    HW270038   4.883   6.414   0.211  1.3006 -0.0589  0.2139
22084SOL     OW70039   8.129   9.215   5.062  0.3481 -0.1871 -0.4276
22084SOL    HW170040   8.117   9.120   5.069  0.2449 -0.1957 -0.7352
22084SOL    HW270041   8.040   9.250   5.063  0.4096  0.0247  1.3521
22085SOL     OW70042   6.399   7.698   8.425  0.1870 -0.1070 -0.1138
22085SOL    HW170043   6.356   7.673   8.508  0.0384  0.2336 -0.0858
22085SOL    HW270044   6.336   7.757   8.383  1.0130  1.1269  0.3442
22086SOL     OW70045   3.275   6.170   9.653 -0.3279 -0.3458 -0.8939
22086SOL    HW170046   3.218   6.192   9.580 -1.0158 -1.8338 -0.8427
22086SOL    HW270047   3.361   6.156   9.613 -0.3239  0.4603 -1.1781
22087SOL     OW70048   8.243   3.163   6.350 -0.3563  0.2993 -0.1211
22087SOL    HW170049   8.221   3.226   6.418  1.2300  0.1034  0.6313
22087SOL    HW270050   8.329   3.192   6.318  0.5487 -1.5957  0.4319
22088SOL     OW70051   0.880   2.768   0.721  0.2173  0.0862  0.5520
22088SOL    HW170052   0.803   2.749   0.775  0.2965  0.9037  0.9645
22088SOL    HW270053   0.846   2.826   0.652 -0.0207 -1.4541 -0.6817
22089SOL     OW70054   4.498   4.075   3.222 -0.1992  0.2892  0.0533
22089SOL    HW170055   4.574   4.130   3.202  1.0273  0.2851  3.8018
22089SOL    HW270056   4.432   4.136   3.255 -1.1782  0.0890 -1.4688
22090SOL     OW70057   4.934   7.141   0.350 -0.3060 -0.1022 -0.1554
22090SOL    HW170058   5.025   7.122   0.369 -0.4771 -1.4479 -0.5725
22090SOL    HW270059   4.937   7.200   0.274  0.2343  1.4350  1.0069
22091SOL     OW70060   6.435   3.772   2.012  0.3355 -0.2068 -0.1208
22091SOL    HW170061   6.471   3.804   1.930 -1.2346 -0.0522 -0.7720
22091SOL    HW270062   6.494   3.701   2.038  1.0534 -0.0087 -1.1687
22092SOL     OW70063   6.526   3.639  10.260  0.2201 -0.4250 -0.2034
22092SOL    HW170064   6.471   3.696  10.206 -0.1894 -0.7694 -0.1571
22092SOL    HW270065   6.470   3.564  10.281  0.5853 -0.6028  0.1608
22093SOL     OW70066  10.328   9.946   6.453 -0.4535  0.1969  0.6621
22093SOL    HW170067  10.234   9.929   6.456 -0.7893  1.8332  0.2461
22093SOL    HW270068  10.361   9.914   6.537 -1.1673 -1.4369  0.3572
22094SOL     OW70069   9.861   6.661   5.145  0.1040 -0.0256 -0.8332
22094SOL    HW170070   9.857   6.684   5.053 -0.5645 -0.2356 -0.8649
22094SOL    HW270071   9.848   6.743   5.192  2.6348  0.4721 -0.8826
22095SOL     OW70072   9.755   2.892   1.770 -0.2259 -0.0914  0.4670
22095SOL    HW170073   9.702   2.852   1.701  1.4124  1.3130 -1.7156
22095SOL    HW270074   9.846   2.882   1.740  0.4369  2.1915  1.4798
22096SOL     OW70075   2.431   2.210   1.561 -0.3636 -0.0601 -0.4374
22096SOL    HW170076   2.355   2.228   1.617 -0.4218 -2.7485  0.4870
22096SOL    HW270077   2.490   2.160   1.617  0.8978 -0.3174 -1.9460
22097SOL     OW70078   2.278   1.652   5.023 -0.0986 -0.0278 -0.0829
22097SOL    HW170079   2.356   1.615   4.982  0.6784 -0.1630  1.4326
22097SOL    HW270080   2.309   1.689   5.106 -1.3785  1.3570 -0.1718
22098SOL     OW70081  10.356   6.690   7.629 -0.6280  0.0128  0.1929
22098SOL    HW170082  10.398   6.639   7.560  2.6612  0.4395  1.7257
22098SOL    HW270083  10.334   6.773   7.587  3.2953  1.1178 -0.0134
22099SOL     OW70084   8.084   7.340   1.860  0.5173 -0.2571  0.2127
22099SOL    HW170085   8.027   7.263   1.866  0.4333 -0.2290 -0.2273
22099SOL    HW270086   8.072   7.384   1.944 -0.8870  0.2882 -0.2336
22100SOL     OW70087   5.715   3.165   7.007  0.2039  0.1344  0.0769
22100SOL    HW170088   5.626   3.151   6.975  0.5472 -0.4711 -0.6361
22100SOL    HW270089   5.744   3.079   7.035  0.0767  0.5715  1.6539
22101SOL     OW70090  10.061   0.506   9.140  0.0420  0.1269 -0.1030
22101SOL    HW170091  10.101   0.470   9.219  1.6547 -0.3073 -1.0705
22101SOL    HW270092  10.009   0.434   9.105 -0.7252  0.3395  0.5696
22102SOL     OW70093   4.048   4.197   8.243  0.3576 -0.2432  0.1616
22102SOL    HW170094   4.032   4.276   8.295  0.2206 -1.1566  1.5732
22102SOL    HW270095   4.133   4.165   8.274  0.6204 -0.4104 -0.7128
22103SOL     OW70096   6.169   3.997   3.294 -0.1941 -0.2009 -0.5850
22103SOL    HW170097   6.242   3.962   3.242  0.8004  0.8142  0.0692
22103SOL    HW270098   6.192   3.975   3.385  0.1610  1.5731 -0.2178
22104SOL     OW70099  10.096   1.320   0.873  0.3080  0.0886  0.2155
22104SOL    HW170100  10.068   1.273   0.794  0.9553 -1.8682  1.0916
22104SOL    HW270101  10.052   1.404   0.867 -3.1106 -1.5419 -0.1448
22105SOL     OW70102   5.898   3.260   8.418  0.2083 -0.1793 -0.8095
22105SOL    HW170103   5.830   3.203   8.455  1.4537 -0.7684  0.6532
22105SOL    HW270104   5.855   3.345   8.407 -1.1297 -0.8700 -1.1901
22106SOL     OW70105   7.860  10.248   2.780 -0.0059 -0.1017  0.3203
22106SOL    HW170106   7.947  10.228   2.812 -0.2648  1.3181  2.0922
22106SOL    HW270107   7.856  10.344   2.780 -1.3555 -0.1282 -0.3276
22107SOL     OW70108   8.525   8.058   0.589 -0.7082 -0.2500 -0.3088
22107SOL    HW170109   8.606   8.059   0.539 -0.3700  0.7202  0.2451
22107SOL    HW270110   8.535   7.984   0.649 -0.0175  0.1770  0.1097
22108SOL     OW70111   7.355   6.768   7.183  0.5220  0.1921 -0.4359
22108SOL    HW170112   7.356   6.725   7.268  0.1972 -1.0205 -1.0312
22108SOL    HW270113   7.262   6.787   7.166  0.6906  1.5256 -0.0022
22109SOL     OW70114   9.635   0.314   3.914  0.7754  0.5209 -0.3144
22109SOL    HW170115   9.701   0.368   3.871  2.0591 -1.1965 -0.6102
22109SOL    HW270116   9.679   0.230   3.929 -0.8166 -0.1210  1.0366
22110SOL     OW70117  10.007   0.729   6.684 -0.3347 -0.2851 -0.6357
22110SOL    HW170118   9.933   0.770   6.729  0.6733  0.8924  0.0158
22110SOL    HW270119   9.967   0.673   6.618 -1.8058  0.2022 -0.1946
22111SOL     OW70120   2.248   4.880   7.219 -0.1907 -0.1515  0.3717
22111SOL    HW170121   2.306   4.927   7.279 -1.3630  1.1721  0.5302
22111SOL    HW270122   2.186   4.834   7.276 -0.7146  0.3346  0.2102
22112SOL     OW70123   2.418   1.460   2.394  0.1374  0.0332  1.1861
22112SOL    HW170124   2.449   1.370   2.408 -0.5317 -0.5676 -0.8714
22112SOL    HW270125   2.489   1.515   2.428  0.5947 -1.2584  2.4180
22113SOL     OW70126   6.078   9.525   9.323  0.1095 -0.4783  0.1538
22113SOL    HW170127   6.067   9.613   9.360 -0.7782 -0.9470  1.0298
22113SOL    HW270128   6.147   9.536   9.257  1.1851  0.5374  1.3882
22114SOL     OW70129   7.409   9.791   9.712  0.3627  0.4761  0.1155
22114SOL    HW170130   7.393   9.748   9.628 -0.1710  1.4797 -0.3190
22114SOL    HW270131   7.428   9.882   9.689 -0.2823  0.8778  1.1026
22115SOL     OW70132   3.854   5.118   3.983  0.4675 -0.2281  0.7189
22115SOL    HW170133   3.933   5.090   3.937  0.8448  1.8443 -0.0024
22115SOL    HW270134   3.787   5.055   3.957  0.9588  0.2103 -1.7789
22116SOL     OW70135   0.425   2.254   7.508  0.3447  0.0362 -0.4250
22116SOL    HW170136   0.392   2.329   7.556 -2.3602 -0.1916 -1.7375
22116SOL    HW270137   0.492   2.289   7.450  1.5633  0.7863  1.3713
22117SOL     OW70138   8.452   4.556   9.386 -0.2651  0.2513  0.9040
22117SOL    HW170139   8.383   4.529   9.447 -1.0143  0.4622  0.1585
22117SOL    HW270140   8.418   4.533   9.300 -0.7218  3.0629  0.2534
22118SOL     OW70141   7.074   6.256   3.807 -0.0463  0.0062 -0.3538
22118SOL    HW170142   7.017   6.221   3.738  0.6310 -1.5417 -0.1702
22118SOL    HW270143   7.112   6.178   3.849  2.5933  0.9486 -0.7966
22119SOL     OW70144   1.801   1.904   3.232  0.3618 -0.1185  0.2648
22119SOL    HW170145   1.721   1.956   3.232  0.3196 -0.0883 -1.5476
22119SOL    HW270146   1.869   1.966   3.258  0.0748  0.4196 -0.2340
22120SOL     OW70147   1.005   9.451   3.741  0.1055  0.4615  0.0744
22120SOL    HW170148   1.061   9.437   3.818 -1.3690  1.5117  1.4073
22120SOL    HW270149   0.930   9.499   3.775  0.1100  2.3624 -2.3120
22121SOL     OW70150   2.552   7.356   6.344 -0.2118  0.6096  0.1186
22121SOL    HW170151   2.596   7.294   6.285  1.1240  0.9572  0.6990
22121SOL    HW270152   2.550   7.312   6.429 -1.9487  0.1899 -0.1142
22122SOL     OW70153   5.740   5.229   1.791 -0.4612 -0.2287  0.2057
22122SOL    HW170154   5.761   5.311   1.747 -2.0897  0.5750  0.8284
22122SOL    HW270155   5.823   5.182   1.795  0.4687  1.2737 -0.3946
22123SOL     OW70156   0.706   7.524   0.667  0.5115  0.1191 -0.0627
22123SOL    HW170157   0.760   7.585   0.717  0.2138  1.3233 -1.1692
22123SOL    HW270158   0.747   7.438   0.682 -0.9986 -0.0663  4.2439
22124SOL     OW70159   2.058   7.007   4.739  0.4125 -0.9070  0.1648
22124SOL    HW170160   2.045   6.931   4.682  1.0894 -1.3207  0.5560
22124SOL    HW270161   2.024   7.081   4.688 -0.7229 -1.5316 -0.0156
22125SOL     OW70162   5.646   9.228   3.443  0.3391  0.1286 -0.5708
22125SOL    HW170163   5.686   9.314   3.445 -2.8310  1.7437  0.8930
22125SOL    HW270164   5.658   9.192   3.531 -1.9405  1.0244  0.1829
22126SOL     OW70165   1.490   4.399   9.954 -0.5568 -0.6045  0.7536
22126SOL    HW170166   1.509   4.426  10.044  0.9407 -2.6619  1.1163
22126SOL    HW270167   1.551   4.327   9.936 -1.1351 -0.5851 -1.7574
22127SOL     OW70168   5.958  10.092   5.821  0.3935  0.3530 -0.0920
22127SOL    HW170169   5.879  10.098   5.875  0.8498 -0.8189  0.7416
22127SOL    HW270170   5.953  10.168   5.763 -1.5017  0.1410 -0.2696
22128SOL     OW70171   7.640   5.639   6.356  0.0785  0.0842 -0.4925
22128SOL    HW170172   7.640   5.596   6.442  0.3300  1.0623  0.0213
22128SOL    HW270173   7.584   5.716   6.368  0.1773  0.2723 -1.1865
22129SOL     OW70174   7.160   6.163   5.225  0.4999  0.4945  0.5282
22129SOL    HW170175   7.237   6.174   5.280  0.0452 -2.3728  1.9047
22129SOL    HW270176   7.181   6.088   5.169 -0.7096  0.6731 -0.1947
22130SOL     OW70177   8.836   5.952   9.009  1.1002 -0.0130  0.4207
22130SOL    HW170178   8.825   5.909   9.093 -1.6908 -1.8645 -0.7025
22130SOL    HW270179   8.746   5.970   8.980  1.9689  0.9789 -1.9266
22131SOL     OW70180   2.831   6.756   0.000  0.2146  0.3109  0.1702
22131SOL    HW170181   2.759   6.765   0.063  0.5290  0.2951  0.5370
22131SOL    HW270182   2.816   6.671  -0.041 -2.1601  1.8409 -2.5332
22132SOL     OW70183   2.889   1.525   7.010  1.0238  0.5856 -0.0260
22132SOL    HW170184   2.889   1.514   6.915 -1.8259 -0.4274  0.0084
22132SOL    HW270185   2.856   1.442   7.044  2.0995  0.8829  1.8898
22133SOL     OW70186   1.349   7.779   0.621 -0.0024 -0.3614 -0.1997
22133SOL    HW170187   1.392   7.865   0.618  1.9085 -1.2796 -0.6777
22133SOL    HW270188   1.394   7.731   0.690 -0.3196 -1.3458 -0.6549
22134SOL     OW70189   6.993   4.846   2.744  0.1629 -0.9869  0.5261
22134SOL    HW170190   6.901   4.871   2.754  0.3976 -0.0600  0.4448
22134SOL    HW270191   6.998   4.809   2.656  0.1956  0.5024 -0.1170
22135SOL     OW70192   3.429   0.774   5.286  0.2795 -0.1784  0.1144
22135SOL    HW170193   3.500   0.720   5.250 -1.1157 -0.8467 -1.7781
22135SOL    HW270194   3.444   0.773   5.380  2.9400 -0.0443 -0.2134
22136SOL     OW70195   5.244   2.046   5.022  0.1432 -0.0587 -0.2972
22136SOL    HW170196   5.179   1.988   4.982 -0.2870  1.2215 -1.5518
22136SOL    HW270197   5.236   2.128   4.973  0.9273  0.9722  1.2355
22137SOL     OW70198   3.215   8.912   3.709 -0.4957 -0.4380 -0.3454
22137SOL    HW170199   3.297   8.940   3.669 -1.5240  0.9604 -1.5573
22137SOL    HW270200   3.180   8.846   3.649  0.3178 -2.0030  0.8264
22138SOL     OW70201   1.690   0.527   2.155  0.2336  0.0142  0.3158
22138SOL    HW170202   1.595   0.538   2.153  0.1825 -0.4924 -1.1738
22138SOL    HW270203   1.723   0.604   2.107  0.5527  0.0109  0.5313
22139SOL     OW70204   7.880   2.642  10.006 -0.1883  0.0785  0.4319
22139SOL    HW170205   7.890   2.737  10.000 -1.4043  0.2251  0.4089
22139SOL    HW270206   7.945   2.607   9.945  0.5627  0.8706  0.7583
22140SOL     OW70207   6.136   7.531   4.838  0.0830  0.5338  0.0007
22140SOL    HW170208   6.172   7.443   4.848 -1.5711  0.0106  2.2562
22140SOL    HW270209   6.180   7.583   4.906 -0.7328  0.7986  0.3386
22141SOL     OW70210   1.264   0.864   6.675 -0.1662 -0.1595 -0.9186
22141SOL    HW170211   1.257   0.818   6.759  0.9142 -1.6016 -1.5663
22141SOL    HW270212   1.270   0.956   6.698  0.8609 -0.5815  0.6541
22142SOL     OW70213   3.710   0.920   7.745 -0.3479 -0.0971  0.2895
22142SOL    HW170214   3.710   0.982   7.819  0.2944 -0.7440  0.8434
22142SOL    HW270215   3.727   0.975   7.668  0.0547  0.4369  0.7493
22143SOL     OW70216   3.681   6.418   9.653 -0.1876 -0.4849  0.4421
22143SOL    HW170217   3.692   6.326   9.676  0.3678 -0.5261  0.0278
22143SOL    HW270218   3.769   6.450   9.635 -0.3849  0.1001  0.4645
22144SOL     OW70219   4.020   2.753   9.049 -0.2028  0.1018 -0.2784
22144SOL    HW170220   3.945   2.761   9.108 -0.4687  0.1896 -0.6249
22144SOL    HW270221   4.042   2.660   9.050 -1.8181 -0.3636 -2.0017
22145SOL     OW70222   1.283   3.349   0.482  0.4263  0.5144 -0.6847
22145SOL    HW170223   1.344   3.355   0.555 -0.9140 -0.8783  0.6192
22145SOL    HW270224   1.313   3.274   0.431 -0.4728 -0.5452  0.2889
22146SOL     OW70225   2.153   4.625   6.151  1.1260 -0.0398 -0.1685
22146SOL    HW170226   2.236   4.673   6.160  0.8748  0.6274 -1.2217
22146SOL    HW270227   2.179   4.534   6.140  1.6209 -0.1951  1.7967
22147SOL     OW70228   8.537   7.867   3.501 -0.4708 -0.0884 -0.2859
22147SOL    HW170229   8.581   7.948   3.476  0.1515  0.1514  1.4256
22147SOL    HW270230   8.546   7.810   3.425 -0.3554  1.2142 -1.2807
22148SOL     OW70231   5.214   6.593   8.846 -0.3503 -0.4961  0.0771
22148SOL    HW170232   5.213   6.497   8.853 -1.2176 -0.4557  0.5399
22148SOL    HW270233   5.306   6.617   8.860 -0.0438 -1.2899 -0.5118
22149SOL     OW70234   8.939   0.207   0.331  0.1137 -0.0112  0.2820
22149SOL    HW170235   9.002   0.276   0.351 -0.3542  0.2399  0.9238
22149SOL    HW270236   8.931   0.208   0.236 -0.4136  1.3093  0.3206
22150SOL     OW70237   3.317   4.545   1.661 -0.5746 -0.1150  0.0195
22150SOL    HW170238   3.386   4.479   1.661  0.5883  1.0642 -0.0646
22150SOL    HW270239   3.362   4.627   1.640 -2.0902  0.5984 -0.6217
22151SOL     OW70240   3.281  10.358   7.040 -0.1689 -0.6900 -0.2031
22151SOL    HW170241   3.293  10.310   7.122 -0.0778  0.3933  0.4319
22151SOL    HW270242   3.260  10.290   6.975  0.1003 -1.5930  0.6369
22152SOL     OW70243   1.941   2.068  10.276  0.0447 -0.2500  0.1311
22152SOL    HW170244   1.896   2.152  10.264  1.3752  0.7323  1.6080
22152SOL    HW270245   1.960   2.038  10.187 -0.0537  1.2364 -0.4239
22153SOL     OW70246   7.292   4.905   2.120  0.4517  0.4305 -0.3564
22153SOL    HW170247   7.260   4.946   2.040 -0.9558 -1.3518 -0.7582
22153SOL    HW270248   7.388   4.908   2.112  0.3506  1.4835 -1.4454
22154SOL     OW70249   6.079   2.698   9.879 -0.2369 -0.1865 -0.8070
22154SOL    HW170250   6.003   2.745   9.913  0.8681  0.2542  1.2437
22154SOL    HW270251   6.124   2.763   9.824 -1.7013 -0.6951 -2.6833
22155SOL     OW70252   6.186   4.347   8.269 -0.1076  0.0222  0.2667
22155SOL    HW170253   6.101   4.309   8.251  0.3823 -0.5817 -0.8450
22155SOL    HW270254   6.226   4.288   8.333 -0.3082  0.0297  0.4011
22156SOL     OW70255   1.575   4.905   3.733  0.0520 -0.2442  0.1846
22156SOL    HW170256   1.623   4.974   3.687 -1.5708  2.4789  2.2750
22156SOL    HW270257   1.483   4.929   3.724 -0.6842 -2.7330  0.2095
22157SOL     OW70258   2.581   5.762   1.760 -0.7082 -0.9377  0.4627
22157SOL    HW170259   2.510   5.776   1.698  1.4086 -0.3616 -2.0102
22157SOL    HW270260   2.644   5.708   1.713  1.5878  0.5790  1.6000
22158SOL     OW70261   1.496   9.389   1.190 -0.1048 -0.1864 -0.5062
22158SOL    HW170262   1.560   9.395   1.261  0.1495 -0.4423 -0.7103
22158SOL    HW270263   1.424   9.337   1.227 -0.5984  0.8292  0.0109
22159SOL     OW70264   6.443   7.193   0.877  0.4171  0.0890  0.4810
22159SOL    HW170265   6.482   7.245   0.807  1.6035 -0.6599  0.5541
22159SOL    HW270266   6.349   7.194   0.858  0.7645 -0.7941 -1.6461
22160SOL     OW70267   8.231   2.097   7.225 -0.0452 -0.0035 -0.0796
22160SOL    HW170268   8.326   2.110   7.223 -0.2893  2.6454  1.5135
22160SOL    HW270269   8.210   2.087   7.318 -1.4806  1.0175 -0.2644
22161SOL     OW70270   4.844   9.565   8.857  0.0592 -0.1638 -0.2594
22161SOL    HW170271   4.769   9.505   8.858  0.4505 -0.6761 -0.9027
22161SOL    HW270272   4.853   9.594   8.947 -0.5130 -0.6012 -0.0567
22162SOL     OW70273   3.842  10.106   9.179 -0.1525  0.2948 -0.1080
22162SOL    HW170274   3.834  10.192   9.221 -0.4884 -0.7513  2.0931
22162SOL    HW270275   3.861  10.126   9.087 -0.0913  2.7099  0.3678
22163SOL     OW70276   3.588  10.035   9.113  0.4950  0.0051 -0.0110
22163SOL    HW170277   3.675  10.027   9.152  0.0231  1.1261  1.3317
22163SOL    HW270278   3.596  10.108   9.051 -0.2794  2.5167  2.6434
22164SOL     OW70279   6.006   0.092   9.258 -0.0780  0.4048  0.1293
22164SOL    HW170280   5.972   0.012   9.300  0.2112 -0.0038 -0.4081
22164SOL    HW270281   5.928   0.139   9.230 -0.2346 -0.4241 -0.9015
22165SOL     OW70282   5.575   0.685   5.131  0.0684  0.1390  0.1298
22165SOL    HW170283   5.506   0.629   5.165 -1.5474  1.3240 -1.0606
22165SOL    HW270284   5.612   0.727   5.209 -0.4036 -0.6704  0.8016
22166SOL     OW70285   5.632   5.963   4.518 -0.1136 -1.1293 -0.0620
22166SOL    HW170286   5.709   5.908   4.506  0.1884 -0.6988 -0.1165
22166SOL    HW270287   5.563   5.903   4.546 -0.1680 -1.7725 -1.5007
22167SOL     OW70288   7.129   8.996   3.490 -0.0066  0.2886 -0.5486
22167SOL    HW170289   7.151   8.909   3.457  0.2392  0.7824 -1.7736
22167SOL    HW270290   7.036   8.992   3.509 -0.2800  0.1071 -1.8230
22168SOL     OW70291   8.634   2.523   5.848  0.3390 -0.1935  0.2735
22168SOL    HW170292   8.621   2.511   5.942  0.9149 -3.3735  0.0559
22168SOL    HW270293   8.716   2.478   5.829  0.5791  0.9447 -1.6928
22169SOL     OW70294   6.290   0.159   3.553  0.2050 -0.4335 -0.5079
22169SOL    HW170295   6.366   0.194   3.599  0.2804  0.1015 -1.0281
22169SOL    HW270296   6.229   0.134   3.622  0.9214 -1.0488 -0.0715
22170SOL     OW70297   5.400   7.804   0.351 -0.1073  0.3750  0.0762
22170SOL    HW170298   5.328   7.863   0.331 -1.2355 -0.4117  1.6428
22170SOL    HW270299   5.442   7.842   0.428 -0.6891 -0.6895  0.9494
22171SOL     OW70300   6.351   8.852   3.899 -0.2772 -0.2608  0.1307
22171SOL    HW170301   6.338   8.791   3.826  1.8185 -0.2772 -0.3097
22171SOL    HW270302   6.361   8.795   3.976  2.3740 -0.6248 -0.3840
22172SOL     OW70303   0.639   4.291   0.480  0.2755  0.0636  0.3270
22172SOL    HW170304   0.612   4.373   0.439 -0.5866 -0.3093  0.1158
22172SOL    HW270305   0.602   4.294   0.568 -0.4394 -0.4286  0.0543
22173SOL     OW70306   1.382  10.188   7.107  0.3314 -0.0442  0.6145
22173SOL    HW170307   1.302  10.136   7.108 -0.0285  0.4942  1.3800
22173SOL    HW270308   1.371  10.250   7.034 -0.2936  0.5284  1.1841
22174SOL     OW70309   9.695   3.285   2.635  0.0425 -0.3602 -0.3851
22174SOL    HW170310   9.699   3.190   2.632  1.1926 -0.3615  0.6226
22174SOL    HW270311   9.651   3.304   2.718 -0.0777 -0.0012 -0.5291
22175SOL     OW70312   9.111   5.529   3.985 -0.0946  1.0024 -0.1230
22175SOL    HW170313   9.057   5.450   3.983  0.3709  0.6889 -2.2299
22175SOL    HW270314   9.049   5.601   3.996 -0.5872  0.4274  1.0326
22176SOL     OW70315  10.260  10.159   5.304  0.3842 -0.0979 -0.1225
22176SOL    HW170316  10.251  10.122   5.216  2.1432  0.6520 -0.6646
22176SOL    HW270317  10.217  10.096   5.361  0.8722 -1.5798 -1.3238
22177SOL     OW70318   3.846   0.280   6.260  0.1606 -0.5074 -0.2751
22177SOL    HW170319   3.894   0.210   6.304  0.0798 -0.5602 -0.2714
22177SOL    HW270320   3.814   0.335   6.331 -0.9360 -1.2140 -0.2039
22178SOL     OW70321   1.751   2.481   4.270 -0.5392  0.6019 -0.3022
22178SOL    HW170322   1.835   2.506   4.231 -0.1555  0.0133  0.1374
22178SOL    HW270323   1.686   2.531   4.220  0.0387  0.7770 -0.8968
22179SOL     OW70324   7.653   9.888   1.248 -0.4511  0.0863  0.8447
22179SOL    HW170325   7.571   9.843   1.228  0.5423 -1.4673  0.0490
22179SOL    HW270326   7.704   9.823   1.297  0.1958  1.1356  1.6003
22180SOL     OW70327   4.040   5.910   9.168  0.1216 -0.1133 -0.1799
22180SOL    HW170328   3.967   5.907   9.229  0.6135 -0.7878  0.3892
22180SOL    HW270329   4.110   5.956   9.214  1.1774 -2.3082  0.5773
22181SOL     OW70330   7.449   9.181   0.719  0.0344 -0.6353  0.1115
22181SOL    HW170331   7.532   9.218   0.751  1.4823 -1.3429 -2.4791
22181SOL    HW270332   7.475   9.123   0.647 -2.8014 -0.0136 -1.5698
22182SOL     OW70333   6.713   4.538   4.383  0.2454  0.8665 -0.3116
22182SOL    HW170334   6.770   4.503   4.314 -0.4255 -1.7402  0.3526
22182SOL    HW270335   6.774   4.571   4.449  1.0529 -0.9600 -0.0667
22183SOL     OW70336   4.384   0.779   5.126  0.2603  0.2320  0.4548
22183SOL    HW170337   4.463   0.734   5.096  0.9962  0.7114  1.5784
22183SOL    HW270338   4.322   0.772   5.054  1.3642 -0.0959 -0.4762
22184SOL     OW70339   2.351   9.233   3.950 -0.1688 -0.8942 -0.5558
22184SOL    HW170340   2.257   9.241   3.937 -0.3215 -1.2147  0.2877
22184SOL    HW270341   2.379   9.320   3.980 -0.2139 -0.8278 -0.7080
22185SOL     OW70342   7.399   2.962   3.921 -0.3447 -0.3120 -0.1888
22185SOL    HW170343   7.389   2.949   4.015 -2.3864  1.5681 -0.0567
22185SOL    HW270344   7.460   3.035   3.913 -0.4826 -0.2062 -0.2942
22186SOL     OW70345   8.660   4.574   3.589  0.0139  0.5820  0.9994
22186SOL    HW170346   8.752   4.550   3.593  0.1297  0.6541 -0.5703
22186SOL    HW270347   8.653   4.656   3.637  0.8759  0.8697  0.6366
22187SOL     OW70348   4.447   6.642   8.574  0.0124  0.2188  0.3049
22187SOL    HW170349   4.470   6.557   8.536  0.9451  1.2974 -1.7117
22187SOL    HW270350   4.487   6.641   8.661  1.4825 -0.7837 -0.3358
22188SOL     OW70351   2.794   9.285   0.617 -0.1858  0.0223 -0.0826
22188SOL    HW170352   2.778   9.379   0.615  0.9220  0.2064 -1.5675
22188SOL    HW270353   2.772   9.259   0.707  1.5558  2.0654  1.0342
22189SOL     OW70354   2.384   9.709   0.896 -0.4071 -0.2530  0.3289
22189SOL    HW170355   2.350   9.718   0.807  1.8378  0.7495 -0.5097
22189SOL    HW270356   2.398   9.800   0.925  1.3766 -0.5886  0.6366
22190SOL     OW70357   2.549   1.779   0.569 -0.1323 -0.1777 -0.4328
22190SOL    HW170358   2.510   1.705   0.522  0.3497 -0.8027  0.1455
22190SOL    HW270359   2.474   1.829   0.600 -0.4621 -0.4476 -0.7783
22191SOL     OW70360   9.336   7.814   5.538  0.1169 -0.4850  0.8055
22191SOL    HW170361   9.287   7.880   5.587  0.1313 -0.3631  0.6574
22191SOL    HW270362   9.373   7.862   5.464  0.8602 -0.4730  1.1809
22192SOL     OW70363   1.059   8.307   6.064 -0.6007 -0.5373  0.1821
22192SOL    HW170364   1.046   8.328   6.156 -1.8957 -1.9729  0.3741
22192SOL    HW270365   1.057   8.392   6.019  0.0045  0.1735  1.4587
22193SOL     OW70366   2.304   3.497   9.768 -0.4057 -1.0061 -0.0362
22193SOL    HW170367   2.238   3.528   9.830  0.0619  0.9780 -0.4554
22193SOL    HW270368   2.372   3.457   9.823 -0.7145 -0.6672  0.5970
22194SOL     OW70369   2.396   3.588   1.970 -0.3761 -0.0265  0.5412
22194SOL    HW170370   2.360   3.565   2.056 -0.8922 -0.4604  0.2164
22194SOL    HW270371   2.391   3.507   1.919  1.7816 -0.3182  0.7055
22195SOL     OW70372   3.727   5.075   8.864 -0.2607  0.7359  0.0663
22195SOL    HW170373   3.655   5.048   8.807 -0.1352 -0.8373  0.6019
22195SOL    HW270374   3.755   5.159   8.828  0.6557 -0.7248 -3.0590
22196SOL     OW70375   9.227   6.735   0.684 -0.2987  0.6176 -0.5889
22196SOL    HW170376   9.232   6.804   0.750 -0.9304 -0.1927  0.3396
22196SOL    HW270377   9.315   6.730   0.648  0.2302  0.6901  0.6267
22197SOL     OW70378   7.963   9.198   8.064  0.1324  0.2257 -0.2338
22197SOL    HW170379   8.007   9.276   8.032  1.2562 -0.8405 -1.3867
22197SOL    HW270380   7.894   9.231   8.121  1.3965  1.9988  0.3403
22198SOL     OW70381   1.107   7.131   1.408  0.2574  0.0442 -0.2732
22198SOL    HW170382   1.137   7.173   1.489  1.8415 -1.2470 -0.1213
22198SOL    HW270383   1.103   7.038   1.430 -0.1101 -0.2401 -1.4590
22199SOL     OW70384   2.373   7.908   1.075 -0.0595 -0.3896  0.4895
22199SOL    HW170385   2.443   7.968   1.050 -1.1235  0.8404  0.3462
22199SOL    HW270386   2.412   7.852   1.142  1.4076 -0.5626 -0.4577
22200SOL     OW70387   1.938   2.691   6.088 -0.3919  0.1786  0.2393
22200SOL    HW170388   1.980   2.757   6.143  0.0699 -0.4873  0.6945
22200SOL    HW270389   1.995   2.685   6.011  0.1982 -0.5080  0.7204
22201SOL     OW70390   0.995   9.823   2.730  0.0350 -0.5271  0.0654
22201SOL    HW170391   1.077   9.865   2.703 -0.8576  1.2436 -0.0801
22201SOL    HW270392   1.007   9.803   2.822  0.6299 -0.2723  0.0454
22202SOL     OW70393   9.083   3.176   2.766 -0.3263  0.3116  0.5356
22202SOL    HW170394   9.120   3.132   2.689 -0.4212  0.2200  0.5416
22202SOL    HW270395   9.046   3.257   2.733 -1.9044 -0.4974  0.1771
22203SOL     OW70396   4.348   8.603   1.991 -0.1066  0.0134 -1.2338
22203SOL    HW170397   4.422   8.597   2.051 -0.0081 -2.2183 -1.5253
22203SOL    HW270398   4.273   8.621   2.048  0.4102  0.8939 -0.7997
22204SOL     OW70399   9.825   5.684   5.836 -0.4995  0.7736 -0.1346
22204SOL    HW170400   9.810   5.634   5.916  0.4903  0.0750 -0.3628
22204SOL    HW270401   9.781   5.768   5.851 -2.0543 -0.0840  0.3184
22205SOL     OW70402   9.706   7.765   5.439 -0.1582  0.0773 -0.1995
22205SOL    HW170403   9.696   7.679   5.481 -1.3689  0.0709 -0.4577
22205SOL    HW270404   9.648   7.761   5.363 -1.0485  1.5015  0.3721
22206SOL     OW70405   2.799   9.396   5.353  0.2937  0.5269 -0.5736
22206SOL    HW170406   2.770   9.447   5.428  0.5367 -0.5313  0.2748
22206SOL    HW270407   2.718   9.360   5.315  0.2971 -0.7027  0.5165
22207SOL     OW70408   1.770   5.569   4.043  0.1164 -0.6667  0.0282
22207SOL    HW170409   1.768   5.554   4.138 -0.6820 -1.3426 -0.0852
22207SOL    HW270410   1.679   5.559   4.015 -0.0487  1.7070 -0.5009
22208SOL     OW70411   6.287   8.641   3.716  0.2799  0.0457 -0.1551
22208SOL    HW170412   6.236   8.701   3.662 -2.2990 -0.3470  1.6412
22208SOL    HW270413   6.309   8.568   3.658 -3.8618 -1.2116 -0.4549
22209SOL     OW70414   6.861   1.210   6.360 -0.0079 -0.2465 -0.0044
22209SOL    HW170415   6.914   1.221   6.281  0.2828  0.8637  0.3271
22209SOL    HW270416   6.797   1.143   6.337 -0.9513  1.1448 -1.7333
22210SOL     OW70417   6.307   5.599   6.815  0.1710 -0.4483 -0.0273
22210SOL    HW170418   6.338   5.510   6.803  1.2166 -0.0176 -0.6708
22210SOL    HW270419   6.301   5.610   6.910  2.1249 -0.5217  0.1363
22211SOL     OW70420   7.101  10.195  10.025  0.1336 -0.2711  0.1155
22211SOL    HW170421   7.011  10.226  10.009 -0.1377 -2.4403 -3.6884
22211SOL    HW270422   7.091  10.127  10.091 -1.7648 -2.8678 -2.5781
22212SOL     OW70423   5.648   8.979   3.363  0.1876 -0.3615 -0.0746
22212SOL    HW170424   5.662   9.072   3.380 -0.1371 -0.2788 -0.2566
22212SOL    HW270425   5.617   8.944   3.447 -0.5574 -0.1248 -0.2448
22213SOL     OW70426   8.093   1.574   1.244  0.6069  0.3778 -0.4807
22213SOL    HW170427   8.136   1.539   1.322  0.9586  1.0597 -0.3609
22213SOL    HW270428   8.138   1.656   1.226 -0.9353  1.3515 -0.1005
22214SOL     OW70429   2.558   4.047   0.155  0.2178 -0.5746 -0.0319
22214SOL    HW170430   2.485   4.089   0.200  1.3728  1.1550  0.3112
22214SOL    HW270431   2.615   4.017   0.226  1.0590  0.3630 -0.2948
22215SOL     OW70432   6.755   2.703   9.994  0.4578  0.2996 -0.2320
22215SOL    HW170433   6.760   2.735  10.084  2.4989  0.1767 -0.2419
22215SOL    HW270434   6.708   2.620  10.001 -3.0293  2.1510  0.0732
22216SOL     OW70435   9.518   3.451   1.987  0.3515  0.1820 -0.6926
22216SOL    HW170436   9.517   3.358   1.968  0.4795 -0.4639  2.0097
22216SOL    HW270437   9.428   3.480   1.977 -0.1728 -0.8344  0.7835
22217SOL     OW70438   7.904   2.636   1.329  0.0545 -0.7109 -0.2547
22217SOL    HW170439   7.975   2.659   1.390  0.7956 -0.6489 -1.1189
22217SOL    HW270440   7.891   2.715   1.277  0.8991 -1.3988 -1.5808
22218SOL     OW70441   8.076   4.752   1.999 -0.4135 -0.2018 -0.5179
22218SOL    HW170442   8.092   4.841   1.969 -1.3925 -0.2001 -1.0528
22218SOL    HW270443   8.130   4.697   1.943 -1.7566 -0.1469 -1.9144
22219SOL     OW70444   6.692   6.308   5.961  0.3460 -0.4765 -0.0535
22219SOL    HW170445   6.754   6.294   5.890 -1.4025 -2.1065 -1.3845
22219SOL    HW270446   6.676   6.403   5.961  1.4846 -0.2729 -0.8543
22220SOL     OW70447   9.011   0.492   9.882  0.1679  0.2514  0.1289
22220SOL    HW170448   8.978   0.576   9.914 -1.8449 -0.2385 -0.5427
22220SOL    HW270449   9.033   0.508   9.791  0.3871  0.2033  0.1723
22221SOL     OW70450   6.519   3.783   6.696  1.3375  0.8966 -0.0134
22221SOL    HW170451   6.544   3.743   6.612  0.8692  0.8753 -0.1445
22221SOL    HW270452   6.591   3.761   6.755  1.8213  1.1701 -0.4879
22222SOL     OW70453   9.327   0.565   9.622  0.5307  0.6341  0.1962
22222SOL    HW170454   9.391   0.581   9.554 -0.4212  2.5682 -0.3229
22222SOL    HW270455   9.372   0.509   9.685  2.1688  0.6424 -0.9106
22223SOL     OW70456   7.421   5.301   8.150 -0.5393 -0.4841  0.0150
22223SOL    HW170457   7.385   5.372   8.203 -1.7709  0.1858 -1.6402
22223SOL    HW270458   7.363   5.295   8.074  0.2108 -2.4948 -0.4797
22224SOL     OW70459   3.725   6.436   5.513 -0.2868  0.3596  0.3028
22224SOL    HW170460   3.690   6.429   5.424 -0.1717 -0.3068  0.3079
22224SOL    HW270461   3.655   6.479   5.563 -0.2894  0.8874 -0.1416
22225SOL     OW70462   3.512   0.115  10.283 -0.5306  0.0625 -0.1241
22225SOL    HW170463   3.504   0.049  10.215 -1.6842  1.2948 -1.2343
22225SOL    HW270464   3.444   0.091  10.347 -0.6101 -0.0953 -0.2663
22226SOL     OW70465   0.710   9.822   1.421 -0.2011  0.6703  0.3916
22226SOL    HW170466   0.797   9.860   1.430 -0.3019  1.7111 -2.3449
22226SOL    HW270467   0.651   9.891   1.453 -0.1491  1.1837 -0.5767
22227SOL     OW70468   6.685   2.288   6.834 -0.0807 -0.0295 -0.4566
22227SOL    HW170469   6.645   2.231   6.900 -2.9799  0.2035 -1.8565
22227SOL    HW270470   6.613   2.343   6.804  1.8303  1.9466 -1.7045
22228SOL     OW70471   3.186   3.829   1.871 -0.2719 -0.5044  0.4298
22228SOL    HW170472   3.263   3.849   1.819  0.0245 -2.7173 -0.0799
22228SOL    HW270473   3.114   3.828   1.807  0.0274 -2.8128  0.0607
22229SOL     OW70474   4.658   1.972   5.216  0.2856  0.0423 -0.0967
22229SOL    HW170475   4.627   2.017   5.295  0.3487  1.1306 -0.6721
22229SOL    HW270476   4.719   1.907   5.248 -0.8519 -0.5872  0.8787
22230SOL     OW70477   0.142   5.537   8.534  0.3999  0.2341  0.2510
22230SOL    HW170478   0.087   5.471   8.492 -0.1108  0.2955  0.8020
22230SOL    HW270479   0.082   5.586   8.590  0.6458  1.5818 -0.6250
22231SOL     OW70480   6.734   7.387   4.191  0.0357  1.0547  0.4668
22231SOL    HW170481   6.699   7.303   4.160  0.4759 -0.1388  2.9149
22231SOL    HW270482   6.725   7.446   4.116 -1.9320 -0.6895 -0.8026
22232SOL     OW70483   6.497   6.449   2.848 -0.3605  0.2848  0.0058
22232SOL    HW170484   6.592   6.453   2.840 -0.3980  0.1540 -0.5236
22232SOL    HW270485   6.464   6.485   2.766 -0.7742  0.7871  0.3835
22233SOL     OW70486   3.754   1.240   7.272  0.4866  0.2148  0.1321
22233SOL    HW170487   3.784   1.163   7.223  0.2493  0.9622 -1.2204
22233SOL    HW270488   3.663   1.252   7.244  0.5486  1.0354  0.2646
22234SOL     OW70489   2.536   0.386   5.844 -0.4470 -0.7614 -0.7501
22234SOL    HW170490   2.456   0.367   5.892  0.9100 -1.0541  1.5403
22234SOL    HW270491   2.513   0.373   5.752 -3.3729  0.4968 -0.3152
22235SOL     OW70492   7.527   6.689   6.905 -0.1267  0.0575  0.0823
22235SOL    HW170493   7.560   6.776   6.930 -0.2138  0.5325 -1.3707
22235SOL    HW270494   7.490   6.654   6.986  1.5812  0.5757  1.1485
22236SOL     OW70495   1.024   1.439   7.638  0.1821  0.1379  0.0221
22236SOL    HW170496   1.061   1.421   7.724  0.8842  0.2217 -0.2505
22236SOL    HW270497   1.040   1.359   7.588 -1.1432 -0.2969  0.2574
22237SOL     OW70498   1.171   0.465   8.204 -0.5460 -0.8884  0.4684
22237SOL    HW170499   1.229   0.392   8.180  1.3288 -0.1711  2.5132
22237SOL    HW270500   1.160   0.457   8.298  1.4964  2.6179  1.1634
22238SOL     OW70501   7.315   3.632   6.869  0.5082 -0.5840  0.0898
22238SOL    HW170502   7.371   3.558   6.849  0.8819 -0.1534 -0.4668
22238SOL    HW270503   7.230   3.593   6.890  0.5053 -1.1228 -0.8962
22239SOL     OW70504   0.766   1.959   9.046 -0.0957 -0.1344  0.5146
22239SOL    HW170505   0.734   1.883   8.999 -1.1155 -0.4755  1.7093
22239SOL    HW270506   0.697   2.025   9.035  0.0411  0.0638  0.8211
22240SOL     OW70507   9.096   1.511   1.488  0.1509 -0.0887  0.1110
22240SOL    HW170508   9.050   1.558   1.558  1.2819  0.8002  0.2787
22240SOL    HW270509   9.132   1.434   1.532 -1.3972 -0.9660 -0.0870
22241SOL     OW70510   1.006   1.316   5.395 -0.0829  0.3141  0.2943
22241SOL    HW170511   1.095   1.311   5.360  0.1522  0.1108  0.9136
22241SOL    HW270512   1.013   1.372   5.472 -0.3102 -0.4586  0.8901
22242SOL     OW70513   7.929   1.236   8.949 -0.1647 -0.4645  0.6445
22242SOL    HW170514   7.968   1.262   8.866  4.2863 -0.4317  2.4372
22242SOL    HW270515   7.863   1.302   8.967 -0.5121  0.1134 -2.3228
22243SOL     OW70516   9.563   6.308   6.172  0.8836  0.2626 -0.6862
22243SOL    HW170517   9.537   6.379   6.113  3.8392  1.5002 -0.6765
22243SOL    HW270518   9.592   6.237   6.113 -0.4693 -0.3284 -0.6799
22244SOL     OW70519   6.511   9.320   0.213  0.1947  0.3035 -0.3729
22244SOL    HW170520   6.585   9.363   0.254  0.3886 -0.9225  0.6205
22244SOL    HW270521   6.508   9.356   0.124  0.2473  2.4232  0.4222
22245SOL     OW70522   6.200   3.607   6.273  0.0980  0.0409  0.1662
22245SOL    HW170523   6.141   3.570   6.207  0.9637 -0.1455 -0.5278
22245SOL    HW270524   6.165   3.576   6.357 -0.1480 -0.9940 -0.2993
22246SOL     OW70525   5.302   3.478   9.115  0.4870 -0.5062 -0.1295
22246SOL    HW170526   5.326   3.456   9.026 -0.5660 -0.4962 -0.4350
22246SOL    HW270527   5.269   3.396   9.153  3.9161 -1.3795  1.3726
22247SOL     OW70528   6.413   5.643   1.517 -0.3593 -0.1533 -0.2254
22247SOL    HW170529   6.441   5.560   1.480  1.3193  0.6435 -0.8235
22247SOL    HW270530   6.399   5.700   1.441 -0.8377  0.3192  0.2071
22248SOL     OW70531   3.173   5.076   4.226 -0.5442  0.5249  0.2651
22248SOL    HW170532   3.232   5.086   4.301  0.5222  3.3503 -0.8044
22248SOL    HW270533   3.088   5.055   4.265  0.1955  0.8386  2.1773
22249SOL     OW70534   0.337   4.356   8.644  0.7713  0.3556 -0.0747
22249SOL    HW170535   0.360   4.396   8.728 -3.8378  1.1602  1.0662
22249SOL    HW270536   0.291   4.425   8.596  1.2000 -0.8131 -2.3069
22250SOL     OW70537   0.487   1.246   8.317  0.3350  0.1535  0.6304
22250SOL    HW170538   0.418   1.306   8.288 -1.1252 -0.9261  1.7039
22250SOL    HW270539   0.519   1.204   8.237 -1.9248 -1.0306  0.2765
22251SOL     OW70540   2.015   3.336   8.420 -0.1898  0.5219  0.1265
22251SOL    HW170541   1.925   3.305   8.434 -0.1433 -0.0072 -0.6491
22251SOL    HW270542   2.022   3.416   8.471 -0.9778  0.3456  0.5203
22252SOL     OW70543   1.984   3.079   2.069  0.1837 -0.6269 -0.0894
22252SOL    HW170544   2.036   3.015   2.118  0.1160 -0.8825 -0.3490
22252SOL    HW270545   1.958   3.144   2.134  0.8323 -0.4975  0.0452
22253SOL     OW70546   0.522   3.797   5.170 -0.2066 -0.3380  0.5521
22253SOL    HW170547   0.549   3.821   5.081 -2.3495 -0.5645 -0.2180
22253SOL    HW270548   0.584   3.843   5.227  1.7683 -0.8742 -1.0294
22254SOL     OW70549   6.161   8.252   9.417 -0.2766 -0.3113  0.4545
22254SOL    HW170550   6.208   8.185   9.368  0.3098 -0.6732  1.4921
22254SOL    HW270551   6.229   8.306   9.457 -0.7193 -0.6596  1.7252
22255SOL     OW70552   8.462   8.383   9.887  0.6655 -0.1976  0.1490
22255SOL    HW170553   8.406   8.344   9.820  0.0148  0.6947  0.1681
22255SOL    HW270554   8.483   8.310   9.946 -0.3299 -0.5783  0.0501
22256SOL     OW70555   7.686  10.076   3.831  0.0860  0.1920  0.0838
22256SOL    HW170556   7.632  10.146   3.794 -0.0571 -0.4921 -1.0497
22256SOL    HW270557   7.643   9.995   3.802 -0.2027 -0.3941  2.0253
22257SOL     OW70558   7.956   8.971   4.904 -0.1393  0.5155  0.3985
22257SOL    HW170559   7.950   9.059   4.866  1.1232 -0.6532 -2.9442
22257SOL    HW270560   8.048   8.963   4.929 -0.4620  0.4483  1.5962
22258SOL     OW70561   0.883   2.504   6.254 -0.2464  0.0072 -0.2681
22258SOL    HW170562   0.805   2.470   6.210  0.0061 -0.7382 -0.1516
22258SOL    HW270563   0.953   2.443   6.229 -0.1819 -0.7114  1.5398
22259SOL     OW70564   6.754   2.232   4.739 -0.1020  0.1025  0.6563
22259SOL    HW170565   6.793   2.159   4.788  1.0992 -0.0997 -0.5321
22259SOL    HW270566   6.802   2.309   4.768 -0.4037  0.2176  0.8619
22260SOL     OW70567   3.955   7.527   4.667  0.6590 -0.0795 -0.2608
22260SOL    HW170568   3.958   7.481   4.583 -2.4717 -0.0648 -0.5119
22260SOL    HW270569   3.919   7.613   4.647  0.7038  0.2613  0.9867
22261SOL     OW70570   2.699   6.321   9.407  0.2027 -0.2384 -0.5121
22261SOL    HW170571   2.644   6.259   9.455  0.4738 -0.8579 -0.9729
22261SOL    HW270572   2.784   6.316   9.450  0.3889 -0.6402 -0.9126
22262SOL     OW70573   3.813   8.578   0.827  0.1751 -0.3015 -0.2199
22262SOL    HW170574   3.850   8.666   0.836  1.8595 -0.7591 -1.9006
22262SOL    HW270575   3.734   8.590   0.774  0.9663  0.1269 -1.3436
22263SOL     OW70576   1.579   2.647   8.177  0.5789  0.4706 -0.3744
22263SOL    HW170577   1.581   2.575   8.240  0.9865 -0.2433 -1.1719
22263SOL    HW270578   1.491   2.644   8.140  0.4071  0.7574  0.0037
22264SOL     OW70579   1.975   8.159   9.266  0.2953  0.0896  0.1359
22264SOL    HW170580   1.986   8.127   9.355 -0.0982  2.2177  1.0098
22264SOL    HW270581   1.880   8.157   9.251  0.1828  1.4727  0.5017
22265SOL     OW70582   6.439   4.150   4.895 -0.2794  0.3403  0.0082
22265SOL    HW170583   6.369   4.215   4.906 -2.3568 -1.6058 -1.1187
22265SOL    HW270584   6.414   4.078   4.952  0.2389 -0.8164 -1.1783
22266SOL     OW70585   1.638   4.976   8.775  0.0099  0.3286  0.2809
22266SOL    HW170586   1.705   4.940   8.832 -0.7726 -0.2428  0.8572
22266SOL    HW270587   1.595   5.043   8.827 -1.3740 -0.8805  0.7692
22267SOL     OW70588   2.672   0.744   7.787  0.5477 -0.7849 -0.4334
22267SOL    HW170589   2.745   0.806   7.789  0.0027 -0.0966  1.9039
22267SOL    HW270590   2.594   0.799   7.793  0.0454 -1.6139  1.5438
22268SOL     OW70591   6.096   8.690   1.974 -0.1019  0.5099  0.0403
22268SOL    HW170592   6.172   8.684   2.031  1.4813  1.1695 -1.9122
22268SOL    HW270593   6.132   8.692   1.886 -2.4769 -0.9095 -1.0599
22269SOL     OW70594   1.293   6.691   5.339 -0.0466 -0.5726 -0.1350
22269SOL    HW170595   1.307   6.654   5.426  0.7905 -2.1387 -0.9122
22269SOL    HW270596   1.306   6.785   5.351 -0.7628 -0.6616  1.5841
22270SOL     OW70597   9.924   3.400   8.839 -0.3066 -0.4015  0.5534
22270SOL    HW170598   9.911   3.467   8.772 -0.8117 -1.8857 -0.8973
22270SOL    HW270599   9.841   3.398   8.888 -0.1641  0.2533  0.8295
22271SOL     OW70600   2.097   7.584   0.862 -0.0271  0.6645 -0.1529
22271SOL    HW170601   2.107   7.489   0.859  0.0477  0.5949  1.2983
22271SOL    HW270602   2.126   7.615   0.777  3.3333 -0.3250  0.5023
22272SOL     OW70603   1.514   0.061   7.449  0.8983  0.3048  0.0852
22272SOL    HW170604   1.558   0.085   7.368 -0.1764  0.2685 -0.5388
22272SOL    HW270605   1.421   0.072   7.429  0.5380 -1.1089  0.8549
22273SOL     OW70606   9.569   6.814   0.889  0.3527  0.1704 -0.0665
22273SOL    HW170607   9.570   6.719   0.895 -1.4766  0.1851  2.0312
22273SOL    HW270608   9.646   6.842   0.938  0.4005 -0.2261  0.0888
22274SOL     OW70609   5.365   4.475   2.373  0.1790  0.5456  0.4666
22274SOL    HW170610   5.352   4.391   2.417  0.0672  0.5671  0.4752
22274SOL    HW270611   5.441   4.513   2.416  0.6824  0.1223 -0.0279
22275SOL     OW70612   0.495   9.287   2.631  0.2842  0.3663 -0.3731
22275SOL    HW170613   0.463   9.288   2.721 -0.0579  0.0981 -0.4877
22275SOL    HW270614   0.416   9.270   2.578  0.4663  0.6058 -0.7264
22276SOL     OW70615   2.740   7.201   8.780 -0.5133 -0.4950 -0.0749
22276SOL    HW170616   2.679   7.273   8.792 -2.1314 -1.7899 -0.1138
22276SOL    HW270617   2.778   7.187   8.867  0.9965  1.3345 -0.3746
22277SOL     OW70618   3.125   7.301   9.174  0.3557 -0.1910  0.0236
22277SOL    HW170619   3.166   7.222   9.141 -0.6292 -0.2910 -1.0072
22277SOL    HW270620   3.066   7.329   9.104  0.0072  0.9394  0.7406
22278SOL     OW70621   1.413   8.656   6.244 -0.9310  0.5064  0.1200
22278SOL    HW170622   1.455   8.737   6.216 -1.2558  0.3619 -0.8150
22278SOL    HW270623   1.474   8.617   6.306 -1.0722  1.7936  1.1170
22279SOL     OW70624   0.757   3.167   6.256  0.1321  0.1083  0.3811
22279SOL    HW170625   0.846   3.153   6.286  0.7109  0.4661 -1.1003
22279SOL    HW270626   0.764   3.173   6.160 -1.7549 -2.1814 -0.0189
22280SOL     OW70627   1.104   2.393   6.098 -0.4317 -0.2113 -0.2044
22280SOL    HW170628   1.146   2.308   6.084  1.4922  0.5483  0.6122
22280SOL    HW270629   1.129   2.444   6.021  0.2765  0.2889  0.3484
22281SOL     OW70630   7.022   6.124   4.110  0.1739  0.6375  0.2100
22281SOL    HW170631   7.004   6.076   4.191  1.6222  0.5617  0.5121
22281SOL    HW270632   6.981   6.070   4.042 -0.3705  0.2864  0.7956
22282SOL     OW70633   6.829  10.048   2.155 -0.8177 -0.1089  0.2434
22282SOL    HW170634   6.743  10.036   2.196 -2.4173 -0.5794 -2.8769
22282SOL    HW270635   6.813  10.112   2.086  1.7174  0.8039  0.4124
22283SOL     OW70636   8.019   7.871   8.815  0.4893  0.0345 -0.4320
22283SOL    HW170637   8.011   7.915   8.899 -3.8500 -0.4178 -0.4114
22283SOL    HW270638   7.980   7.784   8.828 -1.5917  0.4234 -3.1230
22284SOL     OW70639   1.771   3.232   8.453  0.1111 -0.0136 -0.0122
22284SOL    HW170640   1.737   3.147   8.423 -0.3334  0.0563  0.2726
22284SOL    HW270641   1.700   3.267   8.508 -0.3978  1.2621 -1.4135
22285SOL     OW70642   9.786   6.119   2.552  0.5438  0.2901  0.7809
22285SOL    HW170643   9.859   6.078   2.599  0.9755  1.0197  0.7611
22285SOL    HW270644   9.770   6.201   2.600  0.4722  0.6679  0.1252
22286SOL     OW70645   6.456   9.035   0.911 -0.2143 -0.0140  0.1554
22286SOL    HW170646   6.510   8.973   0.960  1.1594  0.3047 -0.8804
22286SOL    HW270647   6.434   8.989   0.830 -1.3314 -0.0499  0.4658
22287SOL     OW70648   7.810   7.943   4.895 -0.1056  0.5477 -0.4964
22287SOL    HW170649   7.752   7.868   4.906 -0.5550  0.9071 -0.4059
22287SOL    HW270650   7.805   7.964   4.802 -0.6969  1.0394 -0.3566
22288SOL     OW70651   8.009   7.993   9.059  0.4417  0.2927 -0.2676
22288SOL    HW170652   7.943   8.062   9.065  0.1706 -0.0184  0.5773
22288SOL    HW270653   7.996   7.941   9.138  1.6102  0.1360 -0.1563
22289SOL     OW70654   3.039   9.208  10.005  0.1512 -0.1073  0.4867
22289SOL    HW170655   3.069   9.166   9.925  1.4422  1.3656  0.1552
22289SOL    HW270656   3.086   9.163  10.075  1.5737  0.7814  0.1313
22290SOL     OW70657   6.998   3.202   2.383 -0.0363 -0.1991  0.4945
22290SOL    HW170658   7.049   3.282   2.396  0.5792 -0.4791 -0.0702
22290SOL    HW270659   6.907   3.230   2.391  0.1656  0.5686  0.2751
22291SOL     OW70660   6.813   8.153   4.852  0.1004 -0.5510 -0.2315
22291SOL    HW170661   6.844   8.062   4.849  0.8994 -0.3233  0.7804
22291SOL    HW270662   6.855   8.194   4.776  2.7840 -0.1386  1.3344
22292SOL     OW70663   5.813   9.850   2.578 -0.4625  0.4594 -0.1159
22292SOL    HW170664   5.766   9.923   2.619 -1.8799 -1.1827  1.3743
22292SOL    HW270665   5.762   9.773   2.602  2.0346 -1.2546  0.0307
22293SOL     OW70666   5.320   4.665   4.824  0.0960 -0.0565  0.2124
22293SOL    HW170667   5.251   4.654   4.759 -0.6505  2.1844  0.5523
22293SOL    HW270668   5.397   4.624   4.785 -0.6535  0.1033 -1.5107
22294SOL     OW70669   9.901   9.746   6.804 -0.0923  0.5893  0.1271
22294SOL    HW170670   9.985   9.774   6.839 -0.1977  0.9307  0.1139
22294SOL    HW270671   9.837   9.802   6.849 -0.4626 -0.7455  1.3501
22295SOL     OW70672  10.063   7.870   2.584  0.1582 -0.3405  0.4468
22295SOL    HW170673  10.140   7.864   2.528 -0.8256 -1.2752 -0.8610
22295SOL    HW270674  10.017   7.948   2.554 -0.4639 -0.9445 -0.2014
22296SOL     OW70675   6.484   5.022   5.503 -0.7309  0.7359 -0.4263
22296SOL    HW170676   6.548   4.963   5.463 -0.9488  0.8089 -0.8884
22296SOL    HW270677   6.450   4.973   5.578 -1.5115 -0.0651 -1.2878
22297SOL     OW70678   8.915   2.014   9.718  0.1293 -0.2384  0.2459
22297SOL    HW170679   8.839   2.059   9.681  0.6706 -1.0946 -2.0547
22297SOL    HW270680   8.887   1.923   9.728  0.5599 -0.3765  0.2305
22298SOL     OW70681   9.203   7.539   8.430  0.0967 -0.1384 -0.4699
22298SOL    HW170682   9.250   7.481   8.489 -0.2270 -0.6660 -0.7229
22298SOL    HW270683   9.271   7.591   8.387  0.2384  2.0203  2.1148
22299SOL     OW70684   0.234  10.064   4.096  0.0218 -0.2862 -0.6890
22299SOL    HW170685   0.189   9.986   4.128 -1.3942  0.7723  0.0163
22299SOL    HW270686   0.187  10.087   4.016 -1.3807  1.3515  0.5322
22300SOL     OW70687  10.057   3.958   4.343 -0.1094 -0.2894  0.0599
22300SOL    HW170688  10.107   3.877   4.336  0.5694  0.1581 -0.2973
22300SOL    HW270689  10.006   3.947   4.424  0.7434 -0.6444  0.5573
22301SOL     OW70690   2.852   8.207   3.174 -0.2299  0.0177 -0.2558
22301SOL    HW170691   2.816   8.283   3.128  1.8500  0.4086 -1.3490
22301SOL    HW270692   2.776   8.152   3.191 -1.5703  1.5679 -0.9011
22302SOL     OW70693   2.047   2.140   1.748 -0.2670 -0.3855  0.4188
22302SOL    HW170694   2.098   2.088   1.687  0.0114 -0.2421  0.5265
22302SOL    HW270695   2.027   2.081   1.820  1.9677  0.2357  1.6246
22303SOL     OW70696   3.244   8.889   2.985 -0.4376 -0.2461 -0.0744
22303SOL    HW170697   3.253   8.949   2.910  0.6990 -0.8699 -0.4662
22303SOL    HW270698   3.324   8.838   2.983  0.6895  1.1918  2.9181
22304SOL     OW70699   7.932   2.936   7.366 -0.1709  0.2186  0.1495
22304SOL    HW170700   7.865   2.891   7.417 -0.1044  0.6670  0.6446
22304SOL    HW270701   7.950   2.878   7.292 -0.8743 -0.0532  0.1837
22305SOL     OW70702   7.734   5.359   0.884 -0.2131  0.0225  0.0199
22305SOL    HW170703   7.754   5.266   0.894 -3.2795 -0.8226 -0.6764
22305SOL    HW270704   7.645   5.368   0.919 -0.3898  2.4743 -0.9005
22306SOL     OW70705   6.209   4.350   7.161 -0.1991  0.2523  0.2739
22306SOL    HW170706   6.293   4.393   7.146  0.0784 -0.7957 -1.4492
22306SOL    HW270707   6.152   4.383   7.092 -1.2991  1.1233  1.5615
22307SOL     OW70708   8.298   6.176   8.577  0.0312 -0.2153  0.1530
22307SOL    HW170709   8.265   6.266   8.580  3.2568  1.0580  1.0782
22307SOL    HW270710   8.384   6.183   8.535 -0.1476 -3.0905 -0.9099
22308SOL     OW70711   4.254   6.486   9.278  0.1737 -0.3731  0.1612
22308SOL    HW170712   4.266   6.536   9.358  0.5816  1.0313 -0.7296
22308SOL    HW270713   4.342   6.476   9.242 -0.0755 -0.3515 -0.4711
22309SOL     OW70714   8.768   4.200   7.479 -0.3088 -0.1242  0.1010
22309SOL    HW170715   8.756   4.107   7.457 -0.2147  0.1661 -1.2898
22309SOL    HW270716   8.747   4.246   7.398  2.5017  0.8891 -0.1321
22310SOL     OW70717   3.462   3.780   1.097  0.1044 -0.6441  0.6893
22310SOL    HW170718   3.489   3.783   1.006  0.8184  2.3656  0.8679
22310SOL    HW270719   3.544   3.786   1.146 -0.3529 -0.6788  1.4735
22311SOL     OW70720   0.841   8.738  10.325  0.4288  0.1071 -0.5182
22311SOL    HW170721   0.770   8.796  10.351  0.0884 -0.3602 -0.3886
22311SOL    HW270722   0.896   8.730  10.403 -0.0748 -0.5396 -0.2205
22312SOL     OW70723   0.970   5.665   1.290 -0.2133  0.1978  0.4355
22312SOL    HW170724   1.056   5.665   1.330 -0.8372 -0.6844  1.8381
22312SOL    HW270725   0.978   5.604   1.216  0.2126 -0.3336  0.9148
22313SOL     OW70726   3.022   9.438   4.091  0.7389 -0.6034 -0.0009
22313SOL    HW170727   3.011   9.347   4.064  1.1441 -0.3561 -1.0533
22313SOL    HW270728   2.948   9.484   4.053  1.8069 -0.0876 -1.5522
22314SOL     OW70729   8.867   4.763   5.014  0.2144  0.1170  0.0290
22314SOL    HW170730   8.937   4.792   4.955 -1.2808 -0.3873 -2.1254
22314SOL    HW270731   8.850   4.839   5.070  0.0749  1.5436 -1.8416
22315SOL     OW70732   0.552   6.585   8.368  0.1705  0.0320  0.4478
22315SOL    HW170733   0.507   6.582   8.452 -0.5687  1.7246  0.1507
22315SOL    HW270734   0.533   6.500   8.327 -1.9750  0.3343  0.7382
22316SOL     OW70735   4.163   0.581   1.582  0.2108  0.0112 -0.9540
22316SOL    HW170736   4.125   0.629   1.656  1.4281 -1.2766  0.6009
22316SOL    HW270737   4.108   0.503   1.575 -0.1355  0.3167 -1.6804
22317SOL     OW70738   7.859   4.354   8.263  0.7161  0.1056  0.2200
22317SOL    HW170739   7.942   4.356   8.215  0.4384  0.5528 -0.2508
22317SOL    HW270740   7.821   4.441   8.249  0.5111  0.1540  1.0452
22318SOL     OW70741   1.133   7.710   4.925 -0.4923  0.2204  0.3560
22318SOL    HW170742   1.152   7.620   4.951  3.0158  1.0793  1.2053
22318SOL    HW270743   1.194   7.728   4.854 -3.5718  0.9519 -2.3954
22319SOL     OW70744   8.812   0.041   4.828 -0.4981  0.0957 -0.0728
22319SOL    HW170745   8.796  -0.021   4.899 -2.0400  0.9308  0.3606
22319SOL    HW270746   8.848   0.119   4.871 -0.3380  0.1918 -0.3714
22320SOL     OW70747   9.422   7.090   6.142 -0.7356 -0.3596 -0.2358
22320SOL    HW170748   9.351   7.138   6.186  0.8258  1.1297  0.7744
22320SOL    HW270749   9.479   7.159   6.108  1.4841 -1.4337  1.0804
22321SOL     OW70750   0.188   9.127   5.861 -0.3412 -0.0815  0.2383
22321SOL    HW170751   0.253   9.086   5.804 -0.6288  0.5491 -0.5598
22321SOL    HW270752   0.154   9.200   5.810 -0.5108  0.5879  1.2785
22322SOL     OW70753   2.821   6.482   0.000  0.2901 -0.8814  0.2220
22322SOL    HW170754   2.865   6.423  -0.061  0.3211  0.7399 -1.3952
22322SOL    HW270755   2.728   6.470  -0.017  0.2242 -1.6826  1.0975
22323SOL     OW70756   1.072   3.944   3.074  0.1673 -0.7188 -0.0710
22323SOL    HW170757   0.980   3.946   3.048 -0.1511 -0.1409  1.0748
22323SOL    HW270758   1.113   4.014   3.023 -0.1110 -0.6762 -0.2370
22324SOL     OW70759   9.710   7.645   9.862 -0.0830  0.5711  0.9117
22324SOL    HW170760   9.671   7.729   9.882 -0.4432  0.2284  1.6920
22324SOL    HW270761   9.644   7.580   9.887 -0.4668  0.0713 -1.1481
22325SOL     OW70762   8.681   5.778   2.491 -0.1339  0.3646 -0.9114
22325SOL    HW170763   8.751   5.767   2.555 -0.3179  0.3000 -0.7231
22325SOL    HW270764   8.602   5.750   2.536  0.0624 -2.0094 -1.9120
22326SOL     OW70765   7.274   9.513   5.005  0.1030  0.5669  0.6903
22326SOL    HW170766   7.277   9.600   5.044  2.6948  0.4393  0.9818
22326SOL    HW270767   7.293   9.453   5.077  0.2560 -0.0808  0.1311
22327SOL     OW70768   9.407   5.552   6.173 -0.5625 -0.2549 -0.7143
22327SOL    HW170769   9.335   5.493   6.192  0.4591 -1.9810 -1.9597
22327SOL    HW270770   9.475   5.529   6.237  0.1217 -0.9986 -1.6769
22328SOL     OW70771   3.679   8.759   7.390 -0.5675  0.0369  0.4780
22328SOL    HW170772   3.646   8.671   7.370 -0.0213  0.3135 -2.0871
22328SOL    HW270773   3.772   8.745   7.408 -0.7490 -0.0322  1.4147
22329SOL     OW70774   3.226   6.010   8.804 -0.5488  0.3143  0.3377
22329SOL    HW170775   3.273   6.016   8.888 -1.6944 -1.4483  1.1477
22329SOL    HW270776   3.134   6.023   8.827 -0.9684 -1.0230 -0.5024
22330SOL     OW70777   5.393   0.536   4.282  0.3220  0.2842 -0.5080
22330SOL    HW170778   5.475   0.567   4.245  1.3179 -2.6812 -1.0656
22330SOL    HW270779   5.329   0.547   4.211  0.6946  0.7403 -0.7783
22331SOL     OW70780   2.869   1.739   6.186  0.5951  0.2367 -0.4709
22331SOL    HW170781   2.917   1.778   6.259 -1.7080  0.9638  0.7561
22331SOL    HW270782   2.897   1.789   6.109  1.6714  0.6968  0.2029
22332SOL     OW70783   6.584   0.586   3.844 -0.0326  0.4193  0.7626
22332SOL    HW170784   6.523   0.568   3.772  0.7438 -4.2726  0.9413
22332SOL    HW270785   6.667   0.606   3.801  0.1131 -1.0797  0.2795
22333SOL     OW70786   9.457   5.071   3.100  0.0046  0.4193  0.3517
22333SOL    HW170787   9.551   5.060   3.087 -0.2371 -0.5576 -0.7921
22333SOL    HW270788   9.446   5.162   3.127  1.1799  0.8393 -0.5057
22334SOL     OW70789   3.110  10.315   8.559  0.0487  0.3686  0.0209
22334SOL    HW170790   3.036  10.325   8.498 -1.2088  0.5174  1.5018
22334SOL    HW270791   3.156  10.398   8.554  1.9458 -0.7153 -3.1049
22335SOL     OW70792   0.542   6.062   0.485 -0.7331 -0.2553 -0.1842
22335SOL    HW170793   0.598   6.101   0.552 -1.0479  2.0731 -1.1755
22335SOL    HW270794   0.598   5.997   0.443 -0.0060 -0.5925  1.2464
22336SOL     OW70795   5.871   6.506   9.898 -0.3121 -0.3450 -0.0826
22336SOL    HW170796   5.901   6.567   9.831 -0.2748 -0.8365 -0.5204
22336SOL    HW270797   5.884   6.552   9.981 -1.2893  0.6591 -0.4622
22337SOL     OW70798   5.707   9.871   9.063  0.1058  0.1276 -0.0599
22337SOL    HW170799   5.701   9.780   9.035  0.5021  0.3228 -0.7901
22337SOL    HW270800   5.622   9.909   9.042  0.3660  0.2473 -0.9406
22338SOL     OW70801   3.156   8.764   1.122 -0.8368 -0.6146  0.6604
22338SOL    HW170802   3.108   8.773   1.204 -2.0681 -1.5933  0.0680
22338SOL    HW270803   3.103   8.706   1.068  0.7788 -1.3616 -0.2127
22339SOL     OW70804   9.995   4.676   0.497 -0.0405 -0.2676 -0.3917
22339SOL    HW170805   9.911   4.710   0.465 -0.9933  0.5148  2.5920
22339SOL    HW270806  10.022   4.739   0.564  0.9908 -2.4823  1.4036
22340SOL     OW70807   0.812   8.896   7.744 -0.1535  0.1313  0.3368
22340SOL    HW170808   0.849   8.967   7.795  0.6201 -1.0024  1.4109
22340SOL    HW270809   0.885   8.862   7.692 -1.0599  1.7170 -2.1972
22341SOL     OW70810   5.124   2.836   1.302  0.4040  0.3803  0.5669
22341SOL    HW170811   5.199   2.895   1.307  2.1993 -1.5541 -1.5793
22341SOL    HW270812   5.114   2.817   1.209 -0.3655 -2.3028  1.1209
22342SOL     OW70813   2.211   4.792   8.569 -0.2864 -0.1761  0.1041
22342SOL    HW170814   2.257   4.736   8.507  0.0382  0.6074 -0.3699
22342SOL    HW270815   2.280   4.830   8.624 -0.5619 -0.8081  0.9207
22343SOL     OW70816   7.960   5.845   7.353  0.0662 -0.6079 -0.8199
22343SOL    HW170817   7.952   5.768   7.408 -2.3587  1.4490  2.0604
22343SOL    HW270818   7.911   5.823   7.274 -2.2285 -1.4566  0.7348
22344SOL     OW70819   8.201   0.274   7.341  0.2085  0.4190  0.5698
22344SOL    HW170820   8.292   0.246   7.352  0.9630  1.4692 -2.1596
22344SOL    HW270821   8.167   0.281   7.430  2.3646 -1.3154  1.6237
22345SOL     OW70822   2.108   8.314   4.891 -1.0163 -0.2770  0.4458
22345SOL    HW170823   2.067   8.394   4.922  0.0519  0.4438  0.0214
22345SOL    HW270824   2.051   8.284   4.820  0.1270  1.7341 -1.4164
22346SOL     OW70825   4.633   6.591   0.038  0.5845 -0.7515  0.0757
22346SOL    HW170826   4.596   6.637  -0.037  1.9329 -0.0857 -0.2098
22346SOL    HW270827   4.699   6.532   0.000  1.9143  0.2328  0.7653
22347SOL     OW70828   7.853   7.833   5.364  0.6684 -0.1958 -0.4946
22347SOL    HW170829   7.912   7.906   5.382 -0.3152  0.7166 -0.9321
22347SOL    HW270830   7.912   7.763   5.334  1.5001  0.8212 -1.3261
22348SOL     OW70831   6.826   2.186   8.188  0.6002 -0.9294 -0.3352
22348SOL    HW170832   6.857   2.263   8.140  3.4842 -1.5072  0.3589
22348SOL    HW270833   6.816   2.217   8.278 -1.8942 -0.5518 -0.6860
22349SOL     OW70834   5.229   5.439   4.515 -0.1464  0.0464 -0.0810
22349SOL    HW170835   5.323   5.423   4.523 -0.3959 -2.3579 -1.0274
22349SOL    HW270836   5.192   5.405   4.597 -0.3616 -1.0928 -0.6311
22350SOL     OW70837  10.070   0.926   3.978  0.0592  0.1529 -0.0452
22350SOL    HW170838  10.112   0.999   4.024 -0.3689 -0.6934  1.8075
22350SOL    HW270839  10.019   0.967   3.908  0.5907  1.5335  0.3498
22351SOL     OW70840   3.182   0.642   1.472  0.0878 -0.7634 -0.0456
22351SOL    HW170841   3.269   0.643   1.511  0.4273 -0.1775 -0.7944
22351SOL    HW270842   3.197   0.650   1.378 -0.8042  1.0785 -0.0842
22352SOL     OW70843   6.675   9.757   0.730  0.4459  0.6941  0.2416
22352SOL    HW170844   6.723   9.830   0.769 -0.4523  0.4766  1.8609
22352SOL    HW270845   6.616   9.728   0.799 -0.9926  0.0281 -1.2143
22353SOL     OW70846   8.358   2.219   0.533  0.0412  0.4192  0.6479
22353SOL    HW170847   8.402   2.134   0.534  1.3987  1.1057  0.7677
22353SOL    HW270848   8.269   2.199   0.503  1.0415 -0.7376 -1.8942
22354SOL     OW70849   2.130   9.783   3.350  0.5215  0.2961 -0.1701
22354SOL    HW170850   2.188   9.759   3.422  0.8968  1.5089 -0.0381
22354SOL    HW270851   2.166   9.865   3.317 -1.4107  1.3935  0.2701
22355SOL     OW70852   5.610   5.012   4.030 -0.4759 -0.0099  0.3489
22355SOL    HW170853   5.634   4.937   3.975  1.3257  0.2904  0.6584
22355SOL    HW270854   5.629   4.982   4.120  2.5594  1.4997  0.3516
22356SOL     OW70855   1.509   5.469   3.994 -0.1536  0.2473 -0.1480
22356SOL    HW170856   1.501   5.510   3.909 -0.1880 -1.0447 -0.7928
22356SOL    HW270857   1.491   5.376   3.978  0.8398 -0.1854  1.0787
22357SOL     OW70858   1.462   5.492   4.453 -0.3514 -0.1229  0.0916
22357SOL    HW170859   1.370   5.472   4.467 -0.7672  0.9336 -0.9582
22357SOL    HW270860   1.466   5.588   4.454  0.3371 -0.0869 -2.1039
22358SOL     OW70861   0.702   0.409   4.315  0.1338 -0.6960 -0.1443
22358SOL    HW170862   0.627   0.402   4.255  1.4690 -1.1012 -1.8370
22358SOL    HW270863   0.679   0.349   4.387 -2.6167  1.6301  1.1220
22359SOL     OW70864   9.506   9.267   4.285  0.0335  0.9892  0.2335
22359SOL    HW170865   9.425   9.226   4.316 -0.1526  0.4898 -0.8677
22359SOL    HW270866   9.499   9.265   4.189  2.2466 -0.9907  0.0124
22360SOL     OW70867   4.499   6.098   8.281 -0.1251 -1.0659  0.2626
22360SOL    HW170868   4.589   6.077   8.257  1.1892  3.7787 -0.0571
22360SOL    HW270869   4.460   6.133   8.200 -2.4084 -2.9420  0.4229
22361SOL     OW70870   5.618   0.424   6.507  0.1668  0.2025 -0.2486
22361SOL    HW170871   5.568   0.454   6.431  0.5355  0.4286 -0.4073
22361SOL    HW270872   5.660   0.343   6.479  0.3500  0.3165 -0.3106
22362SOL     OW70873   8.496   3.811   6.743  0.3642  0.1304  0.0769
22362SOL    HW170874   8.447   3.835   6.823 -2.7559 -1.6312 -1.1112
22362SOL    HW270875   8.580   3.856   6.752 -1.4942  3.6569  2.2436
22363SOL     OW70876   7.093   8.226   9.462 -0.1781  0.6034  0.4063
22363SOL    HW170877   7.032   8.258   9.528 -0.6961 -1.2740  0.9224
22363SOL    HW270878   7.152   8.168   9.510 -0.0725 -0.1775 -0.6309
22364SOL     OW70879   7.736   5.029   7.111 -0.0296 -0.1660  0.0703
22364SOL    HW170880   7.700   5.042   7.199  0.6885 -0.1736  0.3692
22364SOL    HW270881   7.725   4.936   7.095  0.4617 -0.2907  0.4344
22365SOL     OW70882   0.361   9.785   1.403 -0.6405  0.1641 -0.2036
22365SOL    HW170883   0.435   9.845   1.409  0.4770 -1.2617  1.3208
22365SOL    HW270884   0.304   9.822   1.335  1.6602  1.1018 -1.7298
22366SOL     OW70885   6.425   2.342   7.925 -0.3988  0.1363 -0.0035
22366SOL    HW170886   6.450   2.267   7.978 -3.3454 -0.7043  0.3840
22366SOL    HW270887   6.436   2.313   7.835 -0.7022 -0.4643  0.1505
22367SOL     OW70888   3.990   4.342   8.015 -0.7831 -0.6584 -0.1051
22367SOL    HW170889   4.078   4.378   8.018 -0.8145 -0.2975 -2.2943
22367SOL    HW270890   3.988   4.277   8.085  0.9050 -0.0399  0.5583
22368SOL     OW70891   7.758   4.999   1.546 -0.1342 -0.7734  0.1390
22368SOL    HW170892   7.663   5.007   1.534 -0.1639  0.6564  1.0159
22368SOL    HW270893   7.784   5.083   1.585  1.8196 -0.3057 -1.9926
22369SOL     OW70894   9.684   4.910   3.833 -0.2460 -0.4636  0.3074
22369SOL    HW170895   9.676   4.825   3.790 -3.7075 -0.4341  0.6448
22369SOL    HW270896   9.640   4.899   3.917  0.4905  1.3166  0.9729
22370SOL     OW70897   3.584   6.060   0.886  0.2154  0.2429  0.2056
22370SOL    HW170898   3.527   5.985   0.868 -0.6523  0.5586  1.5004
22370SOL    HW270899   3.537   6.134   0.847 -0.3676  0.5253  1.3965
22371SOL     OW70900   2.694   0.701   9.318 -0.5275 -0.4300  0.2324
22371SOL    HW170901   2.705   0.787   9.277  0.9962 -0.8259 -0.2384
22371SOL    HW270902   2.758   0.700   9.389 -1.9309 -0.4270  1.5641
22372SOL     OW70903   6.228   7.406   9.245  0.9885  0.3614  0.2397
22372SOL    HW170904   6.211   7.343   9.175  1.1066  0.1671  0.3826
22372SOL    HW270905   6.237   7.352   9.323  0.2886  0.6211  0.5036
22373SOL     OW70906   8.423   8.619   2.587  0.1557  0.3713 -0.1187
22373SOL    HW170907   8.443   8.712   2.585  0.9442  0.2091  0.0201
22373SOL    HW270908   8.355   8.611   2.655  1.7596  0.5596  1.6016
22374SOL     OW70909   4.367   5.672   3.573  0.4236 -0.7246  0.0670
22374SOL    HW170910   4.418   5.621   3.636  1.5182  0.4039  0.1362
22374SOL    HW270911   4.334   5.746   3.624  2.0029  0.6518 -0.7930
22375SOL     OW70912   6.429   6.226   1.502 -0.0959  0.3009 -0.2869
22375SOL    HW170913   6.362   6.251   1.438 -0.3969  0.2465  0.0072
22375SOL    HW270914   6.408   6.136   1.525  0.9302 -0.2257 -1.2778
22376SOL     OW70915   4.896   5.086   9.303  0.5523  0.4288 -0.1489
22376SOL    HW170916   4.847   5.009   9.274  2.0028  0.0629 -1.8658
22376SOL    HW270917   4.938   5.118   9.223  1.8204  1.6405  0.9590
22377SOL     OW70918   9.488   0.039   5.037 -0.0863  0.9659  0.3175
22377SOL    HW170919   9.449   0.046   5.124 -1.0847 -0.8810  0.0737
22377SOL    HW270920   9.432   0.092   4.981 -1.6788 -0.7404  0.1872
22378SOL     OW70921   5.142   7.856   3.938  0.0663  0.3123 -0.0194
22378SOL    HW170922   5.213   7.918   3.953 -0.4356  0.8885 -0.0080
22378SOL    HW270923   5.173   7.801   3.866  0.7457  0.2140  0.3467
22379SOL     OW70924   1.320   2.648   2.004  0.2773 -0.0371  0.4634
22379SOL    HW170925   1.324   2.571   1.947  1.8497 -0.7246  1.4253
22379SOL    HW270926   1.343   2.721   1.947 -1.3431 -0.2208 -0.4889
22380SOL     OW70927   8.616   2.574   8.791 -0.5060 -0.2760 -0.2664
22380SOL    HW170928   8.621   2.583   8.696 -0.9520  0.3202 -0.2409
22380SOL    HW270929   8.559   2.499   8.806  1.2349 -1.7290 -0.4727
22381SOL     OW70930   7.672   1.977   4.236  0.4285  0.0039 -0.0542
22381SOL    HW170931   7.623   2.020   4.305 -0.4371 -1.0948  0.0231
22381SOL    HW270932   7.611   1.971   4.162  0.7264 -0.5653 -0.2623
22382SOL     OW70933   8.993   3.474   9.915 -0.4197  0.1597 -0.6895
22382SOL    HW170934   9.069   3.415   9.923  0.9897  1.7597 -1.6422
22382SOL    HW270935   8.918   3.418   9.935  0.9834 -1.5074  0.2637
22383SOL     OW70936   2.565   1.263   3.966 -0.4348 -0.2676 -0.1474
22383SOL    HW170937   2.611   1.346   3.976 -0.8504 -0.0049 -0.3458
22383SOL    HW270938   2.565   1.248   3.871 -3.0072  1.0792 -0.4613
22384SOL     OW70939   3.535   5.524  10.157  0.5359 -0.4996  0.1052
22384SOL    HW170940   3.631   5.521  10.153  0.5237 -0.3186 -0.4044
22384SOL    HW270941   3.516   5.571  10.238  0.8695 -0.8991  0.4197
22385SOL     OW70942   1.144   7.429   3.430  0.2472  0.6400  0.5352
22385SOL    HW170943   1.203   7.485   3.380  0.6327  0.2841  0.5814
22385SOL    HW270944   1.182   7.341   3.420  0.4855  0.6052  1.6849
22386SOL     OW70945   0.856   3.980   2.091 -0.3593 -0.4731 -0.1767
22386SOL    HW170946   0.829   4.034   2.165  1.4074 -0.3447  0.4182
22386SOL    HW270947   0.775   3.941   2.058 -1.2593  0.0395  1.3604
22387SOL     OW70948   3.064   6.757   4.432  0.4192 -0.0865 -0.0817
22387SOL    HW170949   3.152   6.765   4.395 -0.2331 -1.4454 -2.1034
22387SOL    HW270950   3.012   6.820   4.384 -0.2123 -1.0586 -0.7040
22388SOL     OW70951   8.573   7.904  10.330  0.9572 -0.6575  0.1032
22388SOL    HW170952   8.643   7.947  10.380  0.7594  0.6832 -0.7257
22388SOL    HW270953   8.524   7.976  10.290 -1.7180 -1.4869  1.6705
22389SOL     OW70954   1.941   8.049   7.627  0.2265  0.1217 -0.3819
22389SOL    HW170955   1.939   8.141   7.653  0.6874  0.1035 -0.2601
22389SOL    HW270956   1.915   8.001   7.706 -1.8098  0.2176 -0.9497
22390SOL     OW70957   2.919   4.928   2.796  0.2930 -0.1135 -0.3615
22390SOL    HW170958   2.987   4.882   2.748  1.4588  0.5750  0.5905
22390SOL    HW270959   2.952   5.017   2.805 -0.6844  0.2062  0.2118
22391SOL     OW70960   1.018   2.601   0.306  0.3334  0.0792 -0.2132
22391SOL    HW170961   0.964   2.558   0.373 -0.2718 -0.6172 -1.1214
22391SOL    HW270962   0.997   2.555   0.225  0.2875  1.5619 -1.0814
22392SOL     OW70963   0.789   4.495   5.890  0.1495  0.6620  0.0927
22392SOL    HW170964   0.802   4.536   5.976 -0.9508  0.4443  0.3789
22392SOL    HW270965   0.766   4.568   5.833 -1.1724  0.5716  0.4624
22393SOL     OW70966   3.100   1.801   4.381  1.0815  0.2087 -0.0974
22393SOL    HW170967   3.022   1.749   4.364  1.0153  0.2995 -0.0746
22393SOL    HW270968   3.171   1.738   4.386  1.0992  0.1803 -0.6881
22394SOL     OW70969   3.434   5.173   3.449 -0.8168 -0.8789  0.2713
22394SOL    HW170970   3.516   5.194   3.494 -0.0502  0.5399 -1.6428
22394SOL    HW270971   3.449   5.086   3.413 -0.1127 -0.6068 -0.1184
22395SOL     OW70972   5.580   1.589   5.804  0.3270  0.0907 -0.3282
22395SOL    HW170973   5.617   1.612   5.889  0.7484  0.7825 -0.6846
22395SOL    HW270974   5.608   1.660   5.746 -0.0173 -0.3306 -1.0255
22396SOL     OW70975   2.037   6.403   4.477  0.3648  0.2279  0.1078
22396SOL    HW170976   1.981   6.419   4.400  0.4432 -0.4843 -0.1063
22396SOL    HW270977   2.019   6.477   4.535 -0.3243  0.3463 -0.2368
22397SOL     OW70978   2.710   3.974   0.362  0.1716 -0.3530 -0.0275
22397SOL    HW170979   2.774   3.912   0.397 -1.9671 -2.5931  0.2696
22397SOL    HW270980   2.697   4.037   0.432 -0.6442 -2.0864  1.4815
22398SOL     OW70981   0.547   3.216   3.796  0.3031  0.1979  0.4641
22398SOL    HW170982   0.504   3.140   3.755  0.1155  1.0867 -1.0423
22398SOL    HW270983   0.638   3.211   3.765  0.8993 -0.6592  2.2030
22399SOL     OW70984   4.137   7.600   3.201  0.2996 -0.0382 -0.0058
22399SOL    HW170985   4.051   7.563   3.183  0.3389 -0.9824  1.5117
22399SOL    HW270986   4.197   7.525   3.196  0.5450 -0.0316  2.0120
22400SOL     OW70987   9.850   8.381   6.737  0.2138  0.2152 -0.1174
22400SOL    HW170988   9.761   8.354   6.756  0.0334  0.0915 -1.0669
22400SOL    HW270989   9.905   8.308   6.769  0.1116  0.9494  1.8370
22401SOL     OW70990   4.188   4.244   3.174  0.9689 -0.2900 -0.2049
22401SOL    HW170991   4.139   4.317   3.136  0.0195  0.1632  1.7821
22401SOL    HW270992   4.240   4.210   3.101 -0.8964  0.3772 -1.9451
22402SOL     OW70993   7.234   5.394   2.883  0.4032 -0.4323 -0.2346
22402SOL    HW170994   7.237   5.469   2.823  1.0930 -0.0942  0.2060
22402SOL    HW270995   7.153   5.348   2.861  0.2357  0.1545 -0.8609
22403SOL     OW70996   5.503   5.712   7.305  0.3415  0.4593  0.4743
22403SOL    HW170997   5.563   5.728   7.232 -0.3760 -0.3394 -0.3193
22403SOL    HW270998   5.559   5.684   7.377  1.0476  1.0833  0.1793
22404SOL     OW70999   9.613   5.908   4.093 -0.1751  0.1887 -0.2406
22404SOL    HW171000   9.659   5.980   4.050 -2.5168  1.1725 -1.2567
22404SOL    HW271001   9.620   5.928   4.186 -0.7110  1.7151 -0.5041
22405SOL     OW71002   6.081   2.135   2.466 -0.0076 -0.4348  0.2498
22405SOL    HW171003   5.989   2.117   2.488 -0.4260  1.7549  0.5140
22405SOL    HW271004   6.102   2.215   2.513  2.8970 -2.1877  2.2786
22406SOL     OW71005   5.370   6.076   2.376 -0.1853 -0.1942  0.3303
22406SOL    HW171006   5.414   6.017   2.436  1.6117 -0.0178 -0.7671
22406SOL    HW271007   5.332   6.019   2.309 -0.8964 -0.2781  0.7913
22407SOL     OW71008   7.069   2.292   8.047 -0.0456 -0.4365  0.2688
22407SOL    HW171009   7.020   2.294   7.965  0.6895  0.7011 -0.1659
22407SOL    HW271010   7.132   2.221   8.036 -1.7266 -2.1187  0.9508
22408SOL     OW71011   0.874   2.407   8.084  0.3208 -0.2114  0.0069
22408SOL    HW171012   0.784   2.432   8.066  0.1018 -1.0507 -0.1142
22408SOL    HW271013   0.926   2.459   8.023 -0.0508  0.5510  0.3388
22409SOL     OW71014   1.115   9.784   7.912  0.1142 -0.4148  0.1428
22409SOL    HW171015   1.154   9.697   7.924 -0.0971 -0.3293  1.5725
22409SOL    HW271016   1.027   9.776   7.948  0.5629  0.7511  1.5687
22410SOL     OW71017   9.567   0.878   4.276 -0.1182 -0.2500  0.3597
22410SOL    HW171018   9.622   0.948   4.310 -1.2809 -0.0080  1.8155
22410SOL    HW271019   9.628   0.809   4.253  0.8240  0.0763  1.7796
22411SOL     OW71020   2.850  10.005   9.427  0.2695 -0.1848 -0.4064
22411SOL    HW171021   2.873  10.040   9.340  0.4581  0.1176 -0.2397
22411SOL    HW271022   2.779  10.061   9.457 -0.6110 -1.0386 -0.8617
22412SOL     OW71023   0.755   6.841   6.819  0.4158 -1.0433  0.3399
22412SOL    HW171024   0.688   6.908   6.835  0.0853 -1.0008 -1.0402
22412SOL    HW271025   0.837   6.881   6.851 -0.1402 -0.9671  1.7386
22413SOL     OW71026   7.457   3.655   5.630  0.7498  0.6621  0.3749
22413SOL    HW171027   7.527   3.645   5.694  1.2778  0.6747 -0.1915
22413SOL    HW271028   7.483   3.600   5.556 -0.4239 -0.2889  0.6254
22414SOL     OW71029   7.560   2.134   0.072 -0.3390 -0.6888 -0.5146
22414SOL    HW171030   7.616   2.198   0.114 -0.6232 -0.5883 -0.2814
22414SOL    HW271031   7.552   2.163  -0.019 -0.7323 -0.2054 -0.3330
22415SOL     OW71032   4.552   6.771   8.176 -0.4057 -0.0439 -0.5393
22415SOL    HW171033   4.602   6.707   8.226 -0.8675 -0.4265 -0.5587
22415SOL    HW271034   4.530   6.840   8.239 -0.4292 -0.2044 -0.3723
22416SOL     OW71035   2.655   3.412   8.776  0.2250  0.2358 -0.3092
22416SOL    HW171036   2.601   3.486   8.751  0.7312  1.1672  1.2215
22416SOL    HW271037   2.656   3.414   8.872  0.3482 -1.6814 -0.2199
22417SOL     OW71038   5.833   2.070   1.370 -0.1570 -0.6528 -0.1646
22417SOL    HW171039   5.904   2.006   1.379 -0.1881 -0.6049  0.4350
22417SOL    HW271040   5.852   2.115   1.287  0.8513 -0.2272  0.2780
22418SOL     OW71041   2.499   2.627   6.044 -0.1830  0.1406 -0.0740
22418SOL    HW171042   2.571   2.568   6.021 -0.8613 -0.6436 -0.2307
22418SOL    HW271043   2.539   2.692   6.101  1.2224  1.2517 -2.1989
22419SOL     OW71044   0.359   0.897   9.227 -0.5096  0.0717  0.1045
22419SOL    HW171045   0.361   0.992   9.213 -0.4083  0.0728  0.1256
22419SOL    HW271046   0.268   0.878   9.252  0.0227  0.5523  2.7538
22420SOL     OW71047   6.425   4.172   6.157  0.0523 -0.3007  0.2349
22420SOL    HW171048   6.401   4.100   6.099 -0.9763  0.4253 -0.2805
22420SOL    HW271049   6.509   4.203   6.124  0.1702 -0.8280  0.0370
22421SOL     OW71050   8.546   7.016   5.121 -0.2940  0.9551  0.1873
22421SOL    HW171051   8.612   7.063   5.172  0.5538 -0.7660  0.7301
22421SOL    HW271052   8.529   6.936   5.170 -1.4164  0.4829 -0.9033
22422SOL     OW71053   3.462   0.652   9.762 -0.6033  0.5549  0.0465
22422SOL    HW171054   3.429   0.742   9.768  1.0330  1.4476 -2.5549
22422SOL    HW271055   3.384   0.600   9.741 -1.3664  1.5920  0.2093
22423SOL     OW71056   5.831   5.881   8.259  0.5743 -0.0566  0.1225
22423SOL    HW171057   5.856   5.866   8.168  2.4947 -0.2962  0.6417
22423SOL    HW271058   5.746   5.837   8.268  1.6763 -2.5783 -0.8501
22424SOL     OW71059   9.891   2.116   3.583 -0.3387 -0.0731 -0.3413
22424SOL    HW171060   9.936   2.080   3.506  0.5447  1.4207 -0.5445
22424SOL    HW271061   9.804   2.141   3.550 -0.3843 -0.5055 -0.5665
22425SOL     OW71062   4.511   9.180  10.220 -0.5001  0.4584  0.3874
22425SOL    HW171063   4.529   9.256  10.275  1.5815  0.1933  0.1333
22425SOL    HW271064   4.586   9.123  10.233 -2.0490 -1.6386  0.6504
22426SOL     OW71065   2.234   5.499   0.275 -0.4052 -0.1408 -1.1346
22426SOL    HW171066   2.182   5.420   0.285  0.7945 -0.6543  2.0665
22426SOL    HW271067   2.170   5.569   0.266 -1.5104 -1.1985 -1.7841
22427SOL     OW71068   3.812   4.651   1.608 -0.0196 -0.2908 -0.2392
22427SOL    HW171069   3.906   4.644   1.626  0.3410  1.0533 -1.4287
22427SOL    HW271070   3.783   4.561   1.598  0.9994 -0.7619  0.8115
22428SOL     OW71071   4.578   2.547   1.530  0.4360 -0.6554  0.0967
22428SOL    HW171072   4.520   2.622   1.519  1.1523  0.3046  2.4191
22428SOL    HW271073   4.663   2.584   1.550  1.6435 -2.0725 -2.0357
22429SOL     OW71074   8.134   2.026   7.730  0.1879 -0.6099 -0.4447
22429SOL    HW171075   8.047   2.015   7.768  0.5698 -1.7905  0.1258
22429SOL    HW271076   8.192   2.039   7.805  0.8044 -1.9956 -0.6572
22430SOL     OW71077  10.006   4.976   6.779  0.2194 -0.0161 -0.2116
22430SOL    HW171078  10.049   4.954   6.697 -1.3709 -2.6318 -0.4696
22430SOL    HW271079  10.078   4.997   6.839  1.6331 -0.9540 -1.5044
22431SOL     OW71080  10.288   4.419   6.699  0.2050  0.8012  0.0518
22431SOL    HW171081  10.360   4.474   6.730  1.1672 -0.8886  1.0193
22431SOL    HW271082  10.288   4.344   6.759 -1.0562 -0.2263 -1.1513
22432SOL     OW71083   6.539   1.477   4.480 -0.1759  0.3166 -0.4419
22432SOL    HW171084   6.515   1.410   4.544  1.2370 -1.2092 -1.4118
22432SOL    HW271085   6.574   1.549   4.533 -1.7626  0.3702  0.6266
22433SOL     OW71086   2.981   3.379   4.415  0.1001 -0.1902 -0.5793
22433SOL    HW171087   3.050   3.378   4.348 -0.0596  1.4643 -0.8135
22433SOL    HW271088   2.949   3.469   4.414 -1.1976 -0.6198  0.4273
22434SOL     OW71089   4.288   1.579   5.272 -0.5444  0.5677  0.1580
22434SOL    HW171090   4.194   1.577   5.253 -0.7529  1.2466  1.0288
22434SOL    HW271091   4.301   1.506   5.333 -0.3987  0.1247 -0.4010
22435SOL     OW71092   9.328   2.563   4.040 -0.0833 -0.2885 -0.5305
22435SOL    HW171093   9.237   2.540   4.021  0.2528  0.1111 -2.8181
22435SOL    HW271094   9.379   2.519   3.973  1.1548  1.7426 -0.9955
22436SOL     OW71095   3.550   1.229   5.684 -0.3269  0.1225 -0.2655
22436SOL    HW171096   3.557   1.244   5.590 -0.7684  2.8901  0.0615
22436SOL    HW271097   3.463   1.264   5.707  0.0714  0.1597  1.2794
22437SOL     OW71098   5.288   4.523   6.697 -0.7376 -0.3187 -0.1376
22437SOL    HW171099   5.198   4.527   6.730 -0.2959 -1.5060  1.3573
22437SOL    HW271100   5.340   4.499   6.774  1.0221  1.3508 -0.7186
22438SOL     OW71101  10.086   9.648   5.256 -0.9049 -0.1110  0.3201
22438SOL    HW171102  10.014   9.712   5.255 -0.5910  0.2454  0.4267
22438SOL    HW271103  10.165   9.700   5.245 -0.5277 -0.3162  1.8203
22439SOL     OW71104   1.928   0.822   5.261  0.1877  0.3822 -0.1103
22439SOL    HW171105   1.957   0.801   5.172  0.3894 -0.7820  0.2159
22439SOL    HW271106   1.839   0.856   5.250  0.8593  1.9736 -0.9183
22440SOL     OW71107   1.098   4.977   0.434 -0.1541 -0.4879  0.0152
22440SOL    HW171108   1.061   4.922   0.503 -0.8402  0.9081  0.8096
22440SOL    HW271109   1.025   4.991   0.373 -0.1266 -0.0491  0.0834
22441SOL     OW71110   1.941   8.347   8.000  0.8393  0.0660  0.2235
22441SOL    HW171111   1.942   8.383   8.089  2.5288  0.2170  0.1823
22441SOL    HW271112   1.968   8.256   8.011 -0.2812 -0.3015 -0.0061
22442SOL     OW71113   6.561   3.813   8.288 -0.3622  0.0846 -0.3251
22442SOL    HW171114   6.562   3.721   8.314 -0.2103  0.3232  0.5511
22442SOL    HW271115   6.488   3.820   8.227  0.0668 -0.7625 -0.9662
22443SOL     OW71116   9.287   0.975   2.786 -0.1196  0.1362  0.3801
22443SOL    HW171117   9.308   0.882   2.798  0.8303  0.4997  1.7069
22443SOL    HW271118   9.369   1.021   2.807 -1.3736  1.4535  2.6726
22444SOL     OW71119   9.420   2.516   4.654 -0.3241  0.1839  0.3828
22444SOL    HW171120   9.394   2.454   4.722 -0.1888  0.4022  0.6391
22444SOL    HW271121   9.482   2.468   4.600  0.3552  0.3139  1.0167
22445SOL     OW71122   1.600   6.230   1.013 -0.3785 -0.8739 -0.1914
22445SOL    HW171123   1.539   6.204   1.082 -0.5469 -0.5343 -0.2130
22445SOL    HW271124   1.686   6.229   1.056 -0.8631  3.7880  1.3927
22446SOL     OW71125  10.017   7.600   4.965 -0.0232  0.2071  0.1727
22446SOL    HW171126  10.000   7.522   5.018  0.5029  0.2973  0.4870
22446SOL    HW271127  10.100   7.581   4.921 -1.1041 -0.4268 -1.7034
22447SOL     OW71128   3.775   4.104   4.932  0.1408  0.1068  0.6630
22447SOL    HW171129   3.795   4.025   4.983  0.7250 -0.1293  0.0736
22447SOL    HW271130   3.860   4.136   4.903 -0.2618 -0.7887 -1.7134
22448SOL     OW71131   2.286  10.347   3.602 -0.2065  0.4534 -0.2853
22448SOL    HW171132   2.298  10.327   3.510 -0.7590 -0.8084 -0.1131
22448SOL    HW271133   2.207  10.401   3.605 -0.2839  0.3573 -0.5448
22449SOL     OW71134   4.725   0.719   8.803  0.3777  0.1577 -0.1392
22449SOL    HW171135   4.725   0.815   8.804 -1.2116  0.2050  1.3944
22449SOL    HW271136   4.812   0.695   8.832  0.9439  1.1103 -0.9518
22450SOL     OW71137   0.620   9.367   4.674 -0.0060  0.4277  0.0474
22450SOL    HW171138   0.569   9.446   4.656  0.5335  1.0476  1.0894
22450SOL    HW271139   0.676   9.392   4.748  0.9544 -0.5969 -0.3071
22451SOL     OW71140   0.502   0.289   1.132  0.4193 -0.3340  0.4109
22451SOL    HW171141   0.443   0.278   1.058  0.5515 -1.4776  0.4620
22451SOL    HW271142   0.588   0.264   1.098  1.1162  2.2825  0.0472
22452SOL     OW71143   4.346   1.379   2.234 -0.4606 -0.1069  0.2014
22452SOL    HW171144   4.377   1.314   2.297 -1.1010 -0.4438  0.1769
22452SOL    HW271145   4.328   1.329   2.154  2.0491  0.5538 -0.8869
22453SOL     OW71146   6.110   3.873   9.067 -0.7671 -0.2533  0.1959
22453SOL    HW171147   6.159   3.955   9.060  0.5734 -0.9376  1.1489
22453SOL    HW271148   6.161   3.810   9.016 -0.3694 -1.0793  1.5497
22454SOL     OW71149   9.359   3.708   3.148 -0.4156  0.7136  0.0657
22454SOL    HW171150   9.349   3.729   3.240 -3.1226 -1.1992  0.3255
22454SOL    HW271151   9.452   3.692   3.137 -0.3752 -3.4629  3.6563
22455SOL     OW71152   0.254   4.763   4.226 -0.2776 -0.1641  0.2342
22455SOL    HW171153   0.276   4.679   4.187  2.6179  0.3728  0.4359
22455SOL    HW271154   0.233   4.743   4.317  1.2379 -0.6534  0.5099
22456SOL     OW71155   9.563   1.301   8.865 -0.3322  0.4693 -0.0820
22456SOL    HW171156   9.639   1.247   8.884  0.0284  1.5824  1.8762
22456SOL    HW271157   9.492   1.262   8.917 -0.5574  0.7340 -0.1848
22457SOL     OW71158   2.490   9.719   4.594  0.1734 -0.2705 -0.2655
22457SOL    HW171159   2.510   9.726   4.687 -1.1351 -2.4387  0.2248
22457SOL    HW271160   2.576   9.716   4.551  0.8337 -1.5630  1.0769
22458SOL     OW71161   1.568   8.131   7.397 -0.3128  0.5586 -0.1218
22458SOL    HW171162   1.586   8.096   7.485  0.8410  0.4478 -0.3809
22458SOL    HW271163   1.572   8.054   7.340 -1.2175  0.6039 -0.2686
22459SOL     OW71164   5.471   4.997   5.649 -0.1331 -0.0859  0.5450
22459SOL    HW171165   5.379   5.013   5.633 -0.2566  0.3516  1.6209
22459SOL    HW271166   5.473   4.913   5.694  0.2337 -1.4572 -1.8277
22460SOL     OW71167   4.084   1.710   8.524  0.5480  0.6821 -0.4881
22460SOL    HW171168   4.132   1.690   8.444  2.3253  1.5761  0.2806
22460SOL    HW271169   4.139   1.673   8.594 -0.3180  1.0082  0.3836
22461SOL     OW71170   6.901   8.462   4.136 -0.6420  0.2373 -0.2054
22461SOL    HW171171   6.874   8.386   4.187  1.7020 -0.6000 -0.0831
22461SOL    HW271172   6.869   8.537   4.185  1.1129 -0.5429  2.3609
22462SOL     OW71173   9.317  10.357   8.282 -0.4710 -0.0821  0.0349
22462SOL    HW171174   9.288  10.442   8.248 -1.7626  0.0470  1.3136
22462SOL    HW271175   9.310  10.367   8.377  0.0465 -1.3935  0.2231
22463SOL     OW71176   6.116   2.229   6.957 -0.1729  0.2027  0.3798
22463SOL    HW171177   6.090   2.177   7.033  0.1869 -0.3234  0.1444
22463SOL    HW271178   6.178   2.174   6.909 -1.3520 -0.0037 -0.9882
22464SOL     OW71179   2.720   5.428   8.745 -0.5976 -0.0042 -0.1749
22464SOL    HW171180   2.662   5.452   8.817 -1.4735 -1.8597 -0.2034
22464SOL    HW271181   2.702   5.493   8.677 -0.1780  1.4299  1.0154
22465SOL     OW71182   7.161   6.384   7.933 -0.0623 -0.0320  0.2996
22465SOL    HW171183   7.242   6.435   7.933  0.3793 -0.7246  1.0802
22465SOL    HW271184   7.165   6.331   8.012 -2.7882  2.2486  2.1775
22466SOL     OW71185   6.143   5.773   0.429 -0.2689  0.3912  0.1834
22466SOL    HW171186   6.092   5.852   0.444 -0.7612  0.2890 -0.9162
22466SOL    HW271187   6.136   5.756   0.335  1.7309  0.3245  0.0123
22467SOL     OW71188  10.275   8.514   0.263 -0.0719  0.3070  0.3276
22467SOL    HW171189  10.191   8.484   0.228 -0.5255  1.3612  0.4883
22467SOL    HW271190  10.324   8.544   0.186 -0.2445  0.6427  0.3465
22468SOL     OW71191   3.723   9.020   1.165 -0.2325  0.1896 -0.1185
22468SOL    HW171192   3.677   8.943   1.130 -1.7647  1.6575 -1.5141
22468SOL    HW271193   3.656   9.070   1.210  0.2836  1.6516 -0.8909
22469SOL     OW71194   9.173   0.093   2.425 -0.0370  0.4192 -0.0109
22469SOL    HW171195   9.122   0.173   2.416  0.9242  0.9912 -0.5765
22469SOL    HW271196   9.258   0.123   2.457  0.6750 -0.2414 -1.2023
22470SOL     OW71197   9.043   4.067   2.229 -0.3873  0.7053 -0.0724
22470SOL    HW171198   9.129   4.109   2.231 -0.8630  1.7244 -0.3472
22470SOL    HW271199   9.045   4.012   2.151  0.8338 -1.1329  1.1702
22471SOL     OW71200   4.623   6.299   0.858  0.4578  0.3057 -0.0820
22471SOL    HW171201   4.660   6.268   0.941 -2.2233  1.0072  1.5005
22471SOL    HW271202   4.698   6.336   0.811  2.3107 -1.2952  1.4104
22472SOL     OW71203   2.481   7.082   5.418 -0.0782  0.0193  0.1834
22472SOL    HW171204   2.515   7.106   5.504 -0.2577 -0.8118  0.4903
22472SOL    HW271205   2.444   6.995   5.430 -1.3233  0.4343 -0.4108
22473SOL     OW71206   8.810   1.067   6.640 -0.5024  0.0535 -0.0649
22473SOL    HW171207   8.796   0.973   6.625  1.7526 -0.0247 -2.5002
22473SOL    HW271208   8.850   1.072   6.727  1.7909 -1.6195 -0.9257
22474SOL     OW71209   1.534   7.126   9.926  0.0272 -0.4920 -0.0153
22474SOL    HW171210   1.472   7.196   9.909  0.3118 -0.3408 -0.4421
22474SOL    HW271211   1.561   7.096   9.839 -0.1560 -1.1848  0.1629
22475SOL     OW71212   0.586   8.751   6.458 -0.5230 -0.0649 -0.2024
22475SOL    HW171213   0.590   8.754   6.363 -1.2253 -1.6078 -0.3101
22475SOL    HW271214   0.493   8.760   6.479 -0.5102 -0.8371  0.2499
22476SOL     OW71215   0.164   6.519   4.513 -0.5682 -0.7957 -0.2888
22476SOL    HW171216   0.197   6.530   4.424 -0.7975  0.3737 -0.2431
22476SOL    HW271217   0.213   6.444   4.547  0.6044 -0.3426 -0.8923
22477SOL     OW71218   6.925   6.477   8.906 -0.7232  0.0913  0.0145
22477SOL    HW171219   6.955   6.403   8.959 -0.8033 -0.6286 -0.9183
22477SOL    HW271220   6.848   6.445   8.860 -0.8849  0.8266 -0.2526
22478SOL     OW71221   5.544   6.870   3.119  0.1959 -0.3766  0.2515
22478SOL    HW171222   5.534   6.788   3.168  0.5410 -0.0081  0.9512
22478SOL    HW271223   5.529   6.845   3.028 -1.5867 -0.8830  0.6302
22479SOL     OW71224   0.498   3.918   6.057 -0.6985  0.1452  0.1700
22479SOL    HW171225   0.552   3.878   6.125 -0.6488 -0.2800 -0.1150
22479SOL    HW271226   0.415   3.937   6.101 -0.3399  0.7608  0.5969
22480SOL     OW71227   4.261   3.386   7.728 -0.4362  0.5201  0.4195
22480SOL    HW171228   4.300   3.472   7.744 -1.2332  1.0028 -0.1354
22480SOL    HW271229   4.183   3.405   7.676 -0.8926 -0.4946  0.7109
22481SOL     OW71230   9.693   1.050   4.484  0.0416  0.1719  0.8115
22481SOL    HW171231   9.633   1.114   4.523 -0.4026 -0.3126  0.9385
22481SOL    HW271232   9.779   1.074   4.518  0.3090  2.2683 -1.1117
22482SOL     OW71233   4.605  10.323   1.678 -0.0398 -0.1091  0.5508
22482SOL    HW171234   4.620  10.278   1.761 -0.6927 -2.0508 -0.3265
22482SOL    HW271235   4.513  10.347   1.679  0.4602  1.9379  1.3131
22483SOL     OW71236   1.585   1.052   0.816 -0.2532 -0.3862 -0.5403
22483SOL    HW171237   1.633   1.039   0.734 -0.3740 -1.2215 -0.4833
22483SOL    HW271238   1.570   0.964   0.850 -4.6373 -0.5114 -2.1362
22484SOL     OW71239   2.818   6.064   0.086 -0.1078  0.0513  0.0064
22484SOL    HW171240   2.884   6.006   0.047 -2.5216 -2.3223 -0.8493
22484SOL    HW271241   2.789   6.119   0.013  0.1830  0.3813  0.1368
22485SOL     OW71242   6.476   9.777   7.405  0.0332 -0.0979  0.2387
22485SOL    HW171243   6.437   9.713   7.463 -2.3495  0.4823 -0.6200
22485SOL    HW271244   6.521   9.725   7.338  1.9055 -0.7660  1.9317
22486SOL     OW71245   1.789   9.532   8.355  0.1187  0.0639 -0.2353
22486SOL    HW171246   1.699   9.527   8.325  0.6411  1.2961 -2.2136
22486SOL    HW271247   1.785   9.515   8.449 -2.2685  0.9465 -0.1264
22487SOL     OW71248   3.314   0.392   7.925  0.6408  0.2149 -0.3978
22487SOL    HW171249   3.230   0.369   7.964  0.9847 -3.0432 -1.3013
22487SOL    HW271250   3.298   0.392   7.831  1.4434  0.4599 -0.5434
22488SOL     OW71251   3.283   1.780   0.056 -0.2742 -0.0847  0.1724
22488SOL    HW171252   3.300   1.853  -0.004 -0.5395  1.4397  1.8427
22488SOL    HW271253   3.188   1.773   0.058 -0.2325 -0.9876 -0.5276
22489SOL     OW71254   1.249   1.472   3.151  0.1428 -0.3734 -0.1402
22489SOL    HW171255   1.240   1.504   3.061 -1.9839 -0.9922 -0.2111
22489SOL    HW271256   1.230   1.549   3.205 -0.9554 -0.5289 -0.2744
22490SOL     OW71257   9.297   9.896   2.523 -0.1199 -0.1710  0.1963
22490SOL    HW171258   9.269   9.862   2.438 -1.2709  0.5728  0.2566
22490SOL    HW271259   9.391   9.876   2.527  0.3506  1.2042 -1.9603
22491SOL     OW71260   8.818   0.188   4.322  0.8620 -0.5422 -0.1508
22491SOL    HW171261   8.857   0.180   4.409 -0.2255 -1.0286  0.3103
22491SOL    HW271262   8.826   0.281   4.301 -0.3287 -0.0874  1.2004
22492SOL     OW71263   5.900   1.858   4.102 -0.1819 -0.3503  0.0344
22492SOL    HW171264   5.846   1.779   4.109 -2.1914  0.7895 -1.3711
22492SOL    HW271265   5.855   1.922   4.158 -1.3622  1.1000 -2.3910
22493SOL     OW71266   4.582   8.969   1.544 -0.5583 -0.0598 -0.0608
22493SOL    HW171267   4.516   9.037   1.528 -0.4599  0.0333 -0.0663
22493SOL    HW271268   4.536   8.887   1.524 -0.2027  0.0994 -1.6859
22494SOL     OW71269   9.806   2.410   1.677  0.2101  0.6886  0.1064
22494SOL    HW171270   9.740   2.442   1.738 -0.1774 -1.6581  1.0229
22494SOL    HW271271   9.882   2.466   1.693  0.0445  0.3245  2.6061
22495SOL     OW71272   5.162   6.071   4.312  0.1623  0.7253 -0.1362
22495SOL    HW171273   5.099   6.081   4.383  1.5454  1.0593  1.0935
22495SOL    HW271274   5.196   5.982   4.322 -1.8164 -0.3838 -2.3091
22496SOL     OW71275   8.593   3.456   4.033 -0.3182  0.3619  0.1666
22496SOL    HW171276   8.534   3.531   4.034  1.9783  2.3262 -1.0526
22496SOL    HW271277   8.611   3.441   3.940  1.0938 -0.1719  0.5074
22497SOL     OW71278   6.712   9.484   7.708 -0.6490 -0.1357 -0.0437
22497SOL    HW171279   6.770   9.523   7.772 -1.2715  0.0971  0.3820
22497SOL    HW271280   6.682   9.402   7.749 -0.1459 -0.5689 -0.5146
22498SOL     OW71281   6.841   4.620   9.274 -0.6013 -0.0326 -0.0796
22498SOL    HW171282   6.863   4.550   9.212 -1.8875  0.7799 -1.5125
22498SOL    HW271283   6.908   4.614   9.342  0.6529 -1.1967 -1.3676
22499SOL     OW71284   5.899   4.471   5.468  0.3303  0.4796  0.2655
22499SOL    HW171285   5.894   4.516   5.384  0.5244  1.2862  0.6769
22499SOL    HW271286   5.912   4.379   5.446 -1.1319  0.4649 -0.6069
22500SOL     OW71287   4.949   5.653   5.438  0.2045 -0.5841 -0.2932
22500SOL    HW171288   4.930   5.723   5.501  1.7703  1.5128 -1.9752
22500SOL    HW271289   5.041   5.631   5.453  0.4089 -0.5329 -1.3669
22501SOL     OW71290   1.123   8.720   5.476  0.0362  0.0513  0.3448
22501SOL    HW171291   1.171   8.775   5.537  1.9639 -1.9218  0.7169
22501SOL    HW271292   1.070   8.663   5.531 -0.9856  0.6689  0.0150
22502SOL     OW71293   6.136   7.506   2.240 -0.0666  0.1511  0.0076
22502SOL    HW171294   6.220   7.526   2.199  0.4225  0.0947  0.9667
22502SOL    HW271295   6.109   7.588   2.281  0.0850 -0.1448  0.6958
22503SOL     OW71296   5.824   3.720   4.364  0.0390 -0.0981 -0.3627
22503SOL    HW171297   5.870   3.797   4.330  0.3730  1.9107  3.8526
22503SOL    HW271298   5.733   3.749   4.375 -0.1076 -0.7037  0.1216
22504SOL     OW71299   5.022   1.208   2.347  0.5200 -0.1162 -0.3307
22504SOL    HW171300   4.927   1.207   2.347  0.5081 -0.4787 -1.7047
22504SOL    HW271301   5.046   1.275   2.283  1.2165  0.8536  0.8928
22505SOL     OW71302   3.534   3.305   0.084  0.2749 -0.0519 -0.3269
22505SOL    HW171303   3.456   3.348   0.119 -0.9435 -2.7273  0.4340
22505SOL    HW271304   3.586   3.377   0.047 -0.7289  2.3306  2.4857
22506SOL     OW71305   3.278   7.084   5.301  0.1680  0.0637 -0.6528
22506SOL    HW171306   3.207   7.140   5.269 -0.7453 -0.1623  0.8931
22506SOL    HW271307   3.358   7.125   5.268 -0.5122  1.9486 -0.0709
22507SOL     OW71308   9.622   4.478   2.399 -0.5881 -0.1302  0.2256
22507SOL    HW171309   9.591   4.398   2.356  0.4805 -0.4591  0.0406
22507SOL    HW271310   9.687   4.448   2.462  0.9563  0.6939 -0.9039
22508SOL     OW71311   2.151   9.156   4.674  0.2121  0.1921 -0.6131
22508SOL    HW171312   2.143   9.061   4.671  1.8945  0.0017 -0.0346
22508SOL    HW271313   2.060   9.187   4.680 -0.4280 -1.2934 -2.0008
22509SOL     OW71314   9.457   6.052   8.619  0.0864 -0.0666  0.2674
22509SOL    HW171315   9.437   6.079   8.709 -0.3042 -1.3167  0.5807
22509SOL    HW271316   9.376   6.011   8.588  0.1961  0.4224 -0.6980
22510SOL     OW71317   6.751   1.138   8.207 -0.5991 -0.0899  0.4760
22510SOL    HW171318   6.815   1.171   8.143  0.6684 -0.5515  1.4578
22510SOL    HW271319   6.674   1.193   8.194  0.0720  0.6471 -0.5915
22511SOL     OW71320   8.656   5.636  10.248  0.0761 -0.0862 -0.1168
22511SOL    HW171321   8.628   5.611  10.336  0.6865 -0.6467 -0.0772
22511SOL    HW271322   8.752   5.641  10.254  0.0866  0.4679 -0.5965
22512SOL     OW71323   7.381  10.299   9.066  0.1272  0.0350  0.4963
22512SOL    HW171324   7.473  10.321   9.051  0.1225 -0.1807  0.1531
22512SOL    HW271325   7.383  10.213   9.108  0.1018  0.2511  0.9468
22513SOL     OW71326  10.134   7.443   9.239 -0.0452  0.2456 -0.3163
22513SOL    HW171327  10.206   7.431   9.177 -0.0937  1.6905 -0.7025
22513SOL    HW271328  10.177   7.451   9.324  0.2770  1.0497 -0.5368
22514SOL     OW71329   3.996   3.556   4.185 -0.2845 -0.2029  0.6288
22514SOL    HW171330   3.917   3.602   4.157 -0.3688  0.6453  2.0983
22514SOL    HW271331   3.973   3.463   4.182 -0.7535 -0.0590 -0.5965
22515SOL     OW71332   4.572   7.894   2.406 -0.7967  0.5100 -0.0284
22515SOL    HW171333   4.576   7.876   2.312  0.5825  1.5940 -0.2124
22515SOL    HW271334   4.519   7.823   2.442  0.2552 -1.0302 -1.3753
22516SOL     OW71335   1.198   8.872   8.382  0.5290 -0.4995  0.0572
22516SOL    HW171336   1.195   8.890   8.476 -0.4418 -0.5893  0.0498
22516SOL    HW271337   1.178   8.779   8.374  0.9569 -0.5716 -0.2239
22517SOL     OW71338   2.233   9.040   9.454  0.1778 -0.1606  0.4687
22517SOL    HW171339   2.143   9.026   9.426 -0.3230  0.5791  1.6811
22517SOL    HW271340   2.279   9.067   9.374 -0.8524  0.2689  0.0133
22518SOL     OW71341   3.986   7.360   4.021 -0.3830  0.0091  0.0360
22518SOL    HW171342   3.962   7.362   4.113  1.1283 -1.0979  0.5030
22518SOL    HW271343   3.934   7.289   3.983  0.6740 -1.1090  0.6030
22519SOL     OW71344   6.547   0.117   6.341 -0.3619  0.2869  0.0276
22519SOL    HW171345   6.606   0.062   6.393 -2.1669 -0.5232  1.3560
22519SOL    HW271346   6.495   0.164   6.407  0.0555  2.3965 -1.0952
22520SOL     OW71347   7.994   0.618   4.176 -0.1360  0.3655 -0.1165
22520SOL    HW171348   7.937   0.549   4.143 -0.2607  0.3796  0.0680
22520SOL    HW271349   8.012   0.593   4.266  1.6288 -0.5967 -0.7014
22521SOL     OW71350   0.230   4.906   9.624 -0.8363 -0.5258 -0.2220
22521SOL    HW171351   0.235   4.997   9.654 -1.4847  0.0202 -1.6906
22521SOL    HW271352   0.181   4.861   9.693 -0.4718  0.2111  0.5411
22522SOL     OW71353   1.951   6.860   1.673 -1.1369 -0.4001 -0.3740
22522SOL    HW171354   1.927   6.906   1.753 -0.9342 -0.3678 -0.3313
22522SOL    HW271355   2.031   6.812   1.695  1.1075  2.4831 -1.4961
22523SOL     OW71356   7.043   1.522   0.940 -0.0964  0.2298  0.2013
22523SOL    HW171357   6.948   1.516   0.950 -0.3198  0.6344 -1.4765
22523SOL    HW271358   7.056   1.590   0.875  1.4289  1.3193  1.5614
22524SOL     OW71359   0.817   6.562   2.108 -0.5224  0.1221 -0.1920
22524SOL    HW171360   0.734   6.554   2.155  0.1211  0.0818  0.9498
22524SOL    HW271361   0.884   6.536   2.171  0.3923  0.4033 -1.0155
22525SOL     OW71362   2.390   0.206   3.171  0.2652  0.4450 -0.5391
22525SOL    HW171363   2.338   0.147   3.117 -0.2541 -0.5885  1.0030
22525SOL    HW271364   2.473   0.160   3.183  0.1155  0.3346  0.1048
22526SOL     OW71365   5.874   5.045  10.100 -0.2765  0.1051  0.5350
22526SOL    HW171366   5.874   4.968  10.156 -0.9886  0.6463  1.3135
22526SOL    HW271367   5.932   5.023  10.027  0.8381 -0.5488  1.5842
22527SOL     OW71368   1.737   9.830   0.420  0.2180 -0.7010 -0.8629
22527SOL    HW171369   1.714   9.908   0.370 -0.5118 -0.6607 -0.4770
22527SOL    HW271370   1.812   9.793   0.374  0.6943  0.3365 -0.9353
22528SOL     OW71371   8.762   8.242   6.547  0.6869  0.2828 -0.3723
22528SOL    HW171372   8.713   8.241   6.465  1.1853 -0.2890 -0.6745
22528SOL    HW271373   8.823   8.169   6.539 -1.1428 -1.6269  1.6560
22529SOL     OW71374   5.426   2.515   9.897  0.0063  0.5481  0.5010
22529SOL    HW171375   5.518   2.489   9.895 -0.5404 -1.5034 -0.9365
22529SOL    HW271376   5.412   2.545   9.987  2.2048  1.5648  0.5803
22530SOL     OW71377  10.311   7.034   3.209  0.8291  0.1242 -0.1988
22530SOL    HW171378  10.320   7.114   3.260  0.5163  0.0360 -0.0038
22530SOL    HW271379  10.393   6.987   3.224  1.3548  0.7735 -0.9598
22531SOL     OW71380   4.814   2.289   4.234 -0.2125 -0.5389  0.2512
22531SOL    HW171381   4.813   2.290   4.139 -2.3658  1.1756  0.2130
22531SOL    HW271382   4.784   2.201   4.258  1.3181 -1.3210 -0.5937
22532SOL     OW71383   2.610   0.365   2.374  0.6144  0.5045  0.5419
22532SOL    HW171384   2.564   0.338   2.453 -1.9563  0.2343 -0.9192
22532SOL    HW271385   2.698   0.388   2.403 -0.3229  0.7133  3.4843
22533SOL     OW71386   0.342   0.767   1.268 -0.1160  0.5053 -0.7350
22533SOL    HW171387   0.319   0.804   1.182  0.4362 -0.9230 -1.5308
22533SOL    HW271388   0.388   0.686   1.247 -0.7213 -0.3096  0.9356
22534SOL     OW71389   4.597   4.334   8.447 -0.2586 -0.1794 -0.9069
22534SOL    HW171390   4.622   4.406   8.505 -1.2028  1.8898 -2.9352
22534SOL    HW271391   4.539   4.279   8.500  3.2186 -1.5936  1.8557
22535SOL     OW71392   0.693   5.936   2.608  0.8657 -0.0504  0.2340
22535SOL    HW171393   0.771   5.926   2.662  1.4008  0.5782 -0.3919
22535SOL    HW271394   0.628   5.975   2.665  1.9873  2.3175 -0.0031
22536SOL     OW71395   3.906   7.313   4.825 -0.1363 -0.1152 -0.6814
22536SOL    HW171396   3.811   7.305   4.818 -0.7150  1.8127  2.7882
22536SOL    HW271397   3.930   7.374   4.756 -1.9115  1.6038  0.1322
22537SOL     OW71398   3.021   9.805   1.710  0.5967  0.5022  0.0039
22537SOL    HW171399   2.960   9.731   1.708  1.8804 -0.5851 -0.3035
22537SOL    HW271400   3.061   9.801   1.797  0.9599  0.5778 -0.1548
22538SOL     OW71401   4.727   7.248   0.577  0.2481  0.6481 -0.4212
22538SOL    HW171402   4.668   7.303   0.526 -0.7419 -1.0497 -1.1969
22538SOL    HW271403   4.741   7.171   0.523  1.3154 -0.0303  0.7674
22539SOL     OW71404   5.810   1.870   9.807  0.5678  0.1629  0.2385
22539SOL    HW171405   5.824   1.950   9.755 -1.5671 -0.7923 -2.0317
22539SOL    HW271406   5.764   1.900   9.885  0.9048  1.2995  0.0233
22540SOL     OW71407   2.226   4.032  10.141  0.1232 -0.4425  0.0159
22540SOL    HW171408   2.239   4.124  10.116  0.9328  0.1695  2.4363
22540SOL    HW271409   2.162   4.000  10.078  1.8516  0.9308 -2.6833
22541SOL     OW71410   4.012   8.120   3.269  0.5576 -0.5833 -0.5462
22541SOL    HW171411   4.010   8.136   3.363  0.2458  0.2708 -0.6994
22541SOL    HW271412   3.962   8.039   3.257 -0.2131 -0.1853 -0.0783
22542SOL     OW71413  10.258   8.079   9.698 -0.7606 -0.1878 -0.8458
22542SOL    HW171414  10.239   8.054   9.788  1.4029 -1.3012 -0.6090
22542SOL    HW271415  10.186   8.043   9.647 -0.3324 -2.5920  0.1030
22543SOL     OW71416   4.784   6.567   8.337 -0.2122 -0.7673 -0.0486
22543SOL    HW171417   4.814   6.655   8.357  3.0478 -1.2612 -1.9736
22543SOL    HW271418   4.800   6.517   8.417  2.3269 -0.5188 -0.3375
22544SOL     OW71419   7.553   4.622   6.729 -0.0559  0.2159 -0.2556
22544SOL    HW171420   7.479   4.609   6.788  0.1525 -0.4322 -0.1315
22544SOL    HW271421   7.556   4.717   6.715 -0.2744  0.3501  0.5616
22545SOL     OW71422   3.371   8.771   1.270 -0.8092  0.3829 -0.3451
22545SOL    HW171423   3.290   8.762   1.219 -1.9807  0.5883  1.3896
22545SOL    HW271424   3.432   8.814   1.210 -1.6905 -0.5343 -1.9818
22546SOL     OW71425   0.106   7.967   1.351  0.0095 -0.1961  0.2846
22546SOL    HW171426   0.153   7.929   1.425 -0.4659  1.0050  1.2510
22546SOL    HW271427   0.129   8.060   1.354  1.5832 -0.3790 -2.3229
22547SOL     OW71428   8.565  10.207   9.096  0.4337 -0.4545 -0.5540
22547SOL    HW171429   8.471  10.191   9.089  0.1670  1.4204 -2.0809
22547SOL    HW271430   8.605  10.141   9.039  0.0115 -0.9285 -0.3041
22548SOL     OW71431   3.562   5.156   6.486  0.1413  0.1886  0.5819
22548SOL    HW171432   3.556   5.223   6.417  1.1236  0.4688  0.7524
22548SOL    HW271433   3.630   5.189   6.545 -0.1883 -0.3999  1.3039
22549SOL     OW71434   0.380   3.704   1.361  0.1457  0.4936  0.3776
22549SOL    HW171435   0.409   3.793   1.382 -0.4104  0.3685  1.8144
22549SOL    HW271436   0.437   3.647   1.414 -1.2020  0.1396  1.4998
22550SOL     OW71437   2.646   1.522   4.367  0.4245  0.7962  0.0281
22550SOL    HW171438   2.618   1.432   4.354  1.6856  0.2847  0.7028
22550SOL    HW271439   2.569   1.574   4.346 -0.6457 -0.4827  0.6106
22551SOL     OW71440   7.093   7.187   6.925  0.2846 -0.5031 -0.0252
22551SOL    HW171441   7.104   7.117   6.862 -1.3400 -0.4906 -0.3739
22551SOL    HW271442   7.006   7.223   6.906  1.6874  2.7935 -1.0590
22552SOL     OW71443   1.676   1.512   7.010  0.4343  0.1404 -0.0005
22552SOL    HW171444   1.610   1.443   7.002  1.2895 -0.5845 -0.9977
22552SOL    HW271445   1.625   1.592   7.024 -0.6326 -0.4631 -0.3106
22553SOL     OW71446   0.593   7.434   2.949 -0.0786  0.0685  0.5442
22553SOL    HW171447   0.654   7.383   2.896  1.0961  0.9426  1.0162
22553SOL    HW271448   0.508   7.419   2.908  0.5694 -0.4978 -0.6554
22554SOL     OW71449   7.785  10.181   9.735 -0.1660  0.2492  0.7242
22554SOL    HW171450   7.726  10.126   9.786 -1.9149  0.9596 -0.4375
22554SOL    HW271451   7.804  10.256   9.791  0.4779 -0.4597  1.4839
22555SOL     OW71452   5.818   2.945   5.538  0.2234 -0.0846 -0.3679
22555SOL    HW171453   5.834   3.039   5.551  0.5724 -0.1037 -0.6389
22555SOL    HW271454   5.783   2.915   5.622 -1.1810  0.5546 -0.6973
22556SOL     OW71455   3.432   9.370   7.980 -0.0765  0.2447  0.1509
22556SOL    HW171456   3.475   9.364   8.065 -0.9012  1.2931  0.6749
22556SOL    HW271457   3.461   9.455   7.945 -1.7102  1.0062  0.5482
22557SOL     OW71458   6.205   7.137   5.532 -0.3541  0.5216  0.1952
22557SOL    HW171459   6.129   7.126   5.590 -0.3099  1.3659  0.4262
22557SOL    HW271460   6.228   7.048   5.505 -1.8097  0.2847 -0.3604
22558SOL     OW71461   0.703   4.114   8.429 -0.0282 -0.2317  0.3550
22558SOL    HW171462   0.677   4.023   8.415 -1.2959 -0.0109  1.1672
22558SOL    HW271463   0.642   4.165   8.375  0.0399  0.1843  0.6632
22559SOL     OW71464   0.524   7.140   2.467  0.1586 -0.0839  0.2855
22559SOL    HW171465   0.559   7.055   2.496  0.4109 -0.4965 -1.1693
22559SOL    HW271466   0.548   7.146   2.375 -1.5169  0.7015 -0.1407
22560SOL     OW71467   3.071   2.809   9.163  0.2599 -0.4347  0.6952
22560SOL    HW171468   2.983   2.831   9.133  0.0096 -1.7661  0.3930
22560SOL    HW271469   3.083   2.863   9.242 -1.5171 -1.4469  1.7442
22561SOL     OW71470  10.296   8.126   3.635  0.4095 -0.2056  0.4731
22561SOL    HW171471  10.374   8.077   3.662 -0.1759  0.2091  3.3328
22561SOL    HW271472  10.325   8.217   3.630 -0.1566  0.2670  3.5565
22562SOL     OW71473   0.944   5.867   8.077  0.0663 -0.0002  0.5242
22562SOL    HW171474   0.872   5.918   8.040 -0.5191 -0.0385  1.5821
22562SOL    HW271475   0.978   5.921   8.149  1.4249  0.2341 -0.2574
22563SOL     OW71476   1.177   3.449   1.403 -0.2465  0.4728  0.1881
22563SOL    HW171477   1.117   3.453   1.479 -1.1902 -0.0467 -0.5071
22563SOL    HW271478   1.122   3.474   1.329 -0.6781 -3.5871 -1.0631
22564SOL     OW71479  10.349   3.935   8.642 -0.2000 -0.4542 -0.7391
22564SOL    HW171480  10.370   4.025   8.667 -0.2997 -0.4990 -0.4984
22564SOL    HW271481  10.328   3.941   8.549  0.5618 -0.3556 -0.9170
22565SOL     OW71482   6.754   8.064   3.554  0.0132 -0.0619 -0.1167
22565SOL    HW171483   6.840   8.025   3.563  0.5553  0.7163 -1.4989
22565SOL    HW271484   6.745   8.081   3.460 -1.1724  0.9033  0.1345
22566SOL     OW71485   4.647   3.213   7.265 -0.1706 -0.5433 -0.4891
22566SOL    HW171486   4.669   3.202   7.173 -0.7674 -0.1366 -0.6771
22566SOL    HW271487   4.555   3.187   7.272 -1.1523  2.5573 -0.6271
22567SOL     OW71488   4.612   3.280   3.853 -0.6704 -0.2419 -0.1928
22567SOL    HW171489   4.548   3.343   3.820  0.4923  0.4770 -1.1094
22567SOL    HW271490   4.576   3.195   3.827 -1.9407  0.0412  0.5213
22568SOL     OW71491   6.719   5.553   1.114 -0.4422  0.2371 -0.1752
22568SOL    HW171492   6.645   5.544   1.054 -1.9461  2.0638  1.2680
22568SOL    HW271493   6.680   5.591   1.193  1.7747 -0.3397  1.2658
22569SOL     OW71494   8.777   1.852   0.432  0.5198 -0.3646 -0.1272
22569SOL    HW171495   8.776   1.932   0.485 -0.2749  0.3183 -1.1427
22569SOL    HW271496   8.793   1.883   0.343  1.7393 -1.4850 -0.3237
22570SOL     OW71497   3.314   1.763   9.331 -0.2651  1.1176 -0.2366
22570SOL    HW171498   3.398   1.725   9.356 -1.4967 -1.4016  0.4746
22570SOL    HW271499   3.336   1.838   9.276  2.4324 -0.2262 -1.1505
22571SOL     OW71500   7.427   6.283   4.596 -0.0003 -0.2396 -0.2491
22571SOL    HW171501   7.475   6.207   4.628 -0.4411 -0.6651 -0.5874
22571SOL    HW271502   7.495   6.348   4.577  0.5369 -1.1191 -1.4970
22572SOL     OW71503   7.938   5.934   4.965 -0.6244 -0.5074 -0.7103
22572SOL    HW171504   7.930   5.891   4.879  1.0113 -1.6337 -0.3474
22572SOL    HW271505   8.007   5.999   4.954 -1.2993  0.2538 -0.5613
22573SOL     OW71506   8.450   5.438   2.588  0.4888 -0.2804  0.1490
22573SOL    HW171507   8.403   5.366   2.544 -1.6376  1.0089  0.1370
22573SOL    HW271508   8.542   5.413   2.584 -0.0938 -2.5298 -0.7071
22574SOL     OW71509   3.124   0.945   0.188 -0.3911 -0.7983  0.2470
22574SOL    HW171510   3.035   0.929   0.218  0.0078 -4.8160 -0.1382
22574SOL    HW271511   3.179   0.917   0.261  0.6660  1.5137  0.4424
22575SOL     OW71512   0.390   8.975   9.301  0.0961  0.5544 -0.8117
22575SOL    HW171513   0.447   8.899   9.291 -0.6221 -0.4018  1.7494
22575SOL    HW271514   0.449   9.049   9.314  0.7747  0.3496 -2.4677
22576SOL     OW71515   1.347   6.106   2.723  0.2160 -0.1122 -0.1286
22576SOL    HW171516   1.402   6.162   2.778  0.5653 -0.4471 -0.1334
22576SOL    HW271517   1.352   6.020   2.764 -1.6265  0.1908  0.8297
22577SOL     OW71518   2.886   9.052   7.933  0.4035  0.1338  0.3472
22577SOL    HW171519   2.974   9.088   7.931  1.2151 -1.7457  0.4370
22577SOL    HW271520   2.898   8.958   7.946 -1.6305 -0.0929  1.0326
22578SOL     OW71521   6.772   7.923   0.554 -0.0360 -0.3017  0.4611
22578SOL    HW171522   6.694   7.885   0.594  0.2169 -0.4124  0.8503
22578SOL    HW271523   6.831   7.942   0.627  0.3295 -0.2841  0.1693
22579SOL     OW71524   0.679   0.989   1.187 -0.4696  0.4614 -0.4712
22579SOL    HW171525   0.668   0.928   1.260  2.4867  0.6827  0.2508
22579SOL    HW271526   0.590   1.022   1.171 -2.0872 -3.2735 -0.3246
22580SOL     OW71527   3.575   4.507   8.269 -0.4984 -0.8295 -0.3782
22580SOL    HW171528   3.638   4.513   8.197 -0.3398  2.1597 -0.1357
22580SOL    HW271529   3.495   4.548   8.235 -0.5526  0.2408  0.9321
22581SOL     OW71530   4.347   6.872   8.871  0.5477 -0.3398  0.4606
22581SOL    HW171531   4.331   6.864   8.965 -0.1587 -3.6249  0.1838
22581SOL    HW271532   4.260   6.884   8.832  0.8576  1.2439  0.1884
22582SOL     OW71533   2.899   9.398   9.791  0.1262  0.0034 -0.2316
22582SOL    HW171534   2.992   9.380   9.775  0.0547 -0.3938 -0.1972
22582SOL    HW271535   2.882   9.480   9.744  0.6703  0.4616  0.3392
22583SOL     OW71536   9.321   6.345   9.024 -0.4040  0.6480  0.2497
22583SOL    HW171537   9.254   6.379   8.964 -0.1080  0.4426 -0.2025
22583SOL    HW271538   9.273   6.321   9.103 -0.9407 -0.0198 -0.2764
22584SOL     OW71539   7.177   8.994   8.288 -0.0660 -0.2454  0.4466
22584SOL    HW171540   7.158   9.014   8.379 -1.1613 -1.6134  0.5516
22584SOL    HW271541   7.096   9.017   8.241  0.1398 -0.4791 -0.0321
22585SOL     OW71542   6.347   4.441   0.725  0.0423  0.2270  0.8758
22585SOL    HW171543   6.330   4.535   0.732 -0.1945  0.1990  0.6831
22585SOL    HW271544   6.336   4.408   0.815 -0.5002  0.2795  0.8316
22586SOL     OW71545   2.290   1.279   8.195 -0.2372 -0.2859  0.0708
22586SOL    HW171546   2.218   1.287   8.133 -0.8748 -3.1214  0.2971
22586SOL    HW271547   2.334   1.197   8.171  0.7878 -0.3828  2.0418
22587SOL     OW71548   8.024   3.681   6.726  0.1518 -0.5165 -0.2428
22587SOL    HW171549   7.953   3.745   6.719  0.0315 -0.2237  2.6048
22587SOL    HW271550   7.990   3.602   6.684 -1.0462  0.2272 -0.7128
22588SOL     OW71551  10.039   2.813   1.273  0.2249 -0.2345 -0.0089
22588SOL    HW171552  10.134   2.816   1.278  0.3559  0.8594 -1.9645
22588SOL    HW271553  10.017   2.720   1.264  1.0923 -0.4980  0.5581
22589SOL     OW71554  10.340   1.801   1.963 -0.0978 -0.0632  0.2641
22589SOL    HW171555  10.283   1.726   1.950  1.3962 -1.7566  2.6328
22589SOL    HW271556  10.331   1.822   2.056  0.8398  1.5879  0.0228
22590SOL     OW71557   7.085   8.494   3.630 -0.3025 -0.4607  0.0110
22590SOL    HW171558   7.036   8.413   3.644 -1.0944 -0.2434 -1.3365
22590SOL    HW271559   7.175   8.472   3.654 -0.6568 -1.4899  0.4519
22591SOL     OW71560   8.719   6.882   9.911  0.4377  0.2257 -0.3834
22591SOL    HW171561   8.776   6.921   9.845  1.4777 -0.1465  0.2504
22591SOL    HW271562   8.663   6.953   9.940  2.2237  1.2849  0.6823
22592SOL     OW71563   8.326   9.848   8.864  0.0090 -0.0869 -0.5440
22592SOL    HW171564   8.416   9.856   8.834 -0.0769 -0.6801 -0.9856
22592SOL    HW271565   8.322   9.762   8.906  0.3574  1.0756  2.0482
22593SOL     OW71566   6.213   5.545   5.704  0.0486  0.2132  0.5281
22593SOL    HW171567   6.165   5.580   5.629  0.5878 -0.3345 -0.0905
22593SOL    HW271568   6.146   5.510   5.762 -0.2898 -0.9944 -0.5470
22594SOL     OW71569   5.921   5.004   1.467 -0.2388  0.3854  0.4329
22594SOL    HW171570   5.830   4.974   1.459 -0.5580  1.6718 -1.3368
22594SOL    HW271571   5.915   5.099   1.466  1.2433  0.5428 -2.4305
22595SOL     OW71572   7.363   6.277   3.324 -0.0004  0.3408 -1.0228
22595SOL    HW171573   7.308   6.278   3.402  0.8524 -0.8036 -0.3846
22595SOL    HW271574   7.304   6.252   3.253 -1.0489  2.5138 -1.0065
22596SOL     OW71575   6.663   3.590   2.264 -0.2933  0.5852 -0.0798
22596SOL    HW171576   6.622   3.551   2.187 -0.4734 -0.0281  0.3146
22596SOL    HW271577   6.640   3.530   2.336  3.1011 -1.0680 -0.1722
22597SOL     OW71578   8.118   6.576   1.851 -0.4511  0.0778  0.2181
22597SOL    HW171579   8.207   6.602   1.875  0.2637  2.3689 -4.0123
22597SOL    HW271580   8.127   6.483   1.827  0.3291 -0.2107  1.5093
22598SOL     OW71581   7.479   7.967   1.370 -0.2539 -0.1293  0.0598
22598SOL    HW171582   7.396   7.994   1.333 -0.6911 -0.2442  0.9153
22598SOL    HW271583   7.470   7.872   1.384  0.1925 -0.2242 -0.2689
22599SOL     OW71584   1.935   0.240   7.650 -0.2657  0.0122  0.5150
22599SOL    HW171585   2.000   0.234   7.580  0.4679 -0.1874  1.2030
22599SOL    HW271586   1.857   0.275   7.607  0.6387  1.3509 -0.1113
22600SOL     OW71587   1.933   8.578   5.320 -0.1078  0.3938 -0.1076
22600SOL    HW171588   1.962   8.521   5.391  2.6369  0.6831 -0.8767
22600SOL    HW271589   1.843   8.602   5.343 -0.1333 -1.4118  2.0025
22601SOL     OW71590   1.743   4.000   3.022  0.1973 -0.0171  0.1514
22601SOL    HW171591   1.723   3.907   3.031  0.1541 -0.0789 -0.5043
22601SOL    HW271592   1.759   4.011   2.928 -1.2911  0.9320 -0.0093
22602SOL     OW71593   8.479   5.157   2.840  0.0675 -0.2640  0.1959
22602SOL    HW171594   8.460   5.175   2.748 -0.8248  0.6996  0.5453
22602SOL    HW271595   8.571   5.179   2.850 -0.2580  1.3507 -0.0858
22603SOL     OW71596   1.392   9.904   1.352  0.1035 -0.0607  0.4024
22603SOL    HW171597   1.432   9.991   1.348 -2.7609  1.3506  0.2686
22603SOL    HW271598   1.381   9.878   1.260 -1.1532  0.5320  0.3627
22604SOL     OW71599   7.228   3.417   4.624 -0.6561  0.1013  0.1013
22604SOL    HW171600   7.233   3.477   4.698 -0.7515 -0.0282  0.2139
22604SOL    HW271601   7.282   3.342   4.651  1.7668  1.2656 -1.1315
22605SOL     OW71602   8.041   5.035   5.153  0.0055 -0.3580  0.5581
22605SOL    HW171603   8.064   5.099   5.086 -1.4644  0.7565  1.0689
22605SOL    HW271604   8.048   4.951   5.108  1.6129  0.1442 -0.2312
22606SOL     OW71605   6.142   0.513   8.246  0.5107  0.3940  0.3728
22606SOL    HW171606   6.237   0.521   8.253  0.5585 -0.2336  0.4485
22606SOL    HW271607   6.108   0.584   8.301  0.9338  0.8685  0.0233
22607SOL     OW71608   9.877   7.710   7.540  0.6005  0.4791  0.2010
22607SOL    HW171609   9.969   7.694   7.517  0.4115  0.9215 -0.9501
22607SOL    HW271610   9.828   7.655   7.479  0.0855  1.2286 -0.0787
22608SOL     OW71611   2.403   2.680   2.363  0.2506 -0.1454 -0.3174
22608SOL    HW171612   2.430   2.706   2.451 -0.5571 -0.2671 -0.0270
22608SOL    HW271613   2.311   2.657   2.372 -0.9736  3.4551 -1.8736
22609SOL     OW71614   8.009   6.369   3.494 -0.4596  0.5928  0.2158
22609SOL    HW171615   7.943   6.382   3.562 -1.1106  0.5964 -0.4038
22609SOL    HW271616   8.093   6.379   3.540 -0.8322 -1.2099  1.3867
22610SOL     OW71617   0.579   3.603   0.857 -0.4478 -0.0660  0.0747
22610SOL    HW171618   0.596   3.591   0.951  0.7607 -0.0618 -0.1260
22610SOL    HW271619   0.646   3.550   0.814 -0.7377  0.2541 -0.7867
22611SOL     OW71620   2.596   8.852   0.984 -0.2059 -0.3120 -0.0250
22611SOL    HW171621   2.560   8.776   0.937  0.5328  1.2288 -3.3731
22611SOL    HW271622   2.629   8.909   0.915  1.2696  2.0876  2.4809
22612SOL     OW71623   5.815   1.615   4.014 -0.7007 -0.0955  0.3235
22612SOL    HW171624   5.738   1.561   4.030  0.9722 -2.7283  0.0411
22612SOL    HW271625   5.819   1.625   3.919 -0.0733 -1.0198  0.2366
22613SOL     OW71626   6.580   7.617   2.516  0.1152 -0.2617  0.4959
22613SOL    HW171627   6.496   7.599   2.559 -0.4673  1.2224  0.0696
22613SOL    HW271628   6.603   7.535   2.473 -2.2431 -0.1601 -1.1931
22614SOL     OW71629   9.295   1.475   1.217  0.0869  0.1789  0.1452
22614SOL    HW171630   9.346   1.419   1.159  0.6770 -1.0156  1.7465
22614SOL    HW271631   9.242   1.414   1.268 -0.9090  1.2378  0.4114
22615SOL     OW71632   6.583   1.812   5.704  0.3681  0.0881  0.3317
22615SOL    HW171633   6.541   1.826   5.789 -1.0040  0.1444 -0.3218
22615SOL    HW271634   6.534   1.870   5.644 -0.3007 -1.7104 -0.9406
22616SOL     OW71635   3.982   9.298   1.774  0.0005  0.2625 -0.0617
22616SOL    HW171636   4.028   9.306   1.691  0.0043 -0.1028 -0.0983
22616SOL    HW271637   4.036   9.344   1.837  0.4611 -0.2324 -0.0895
22617SOL     OW71638   0.052   6.881   4.708 -0.0091  0.0327 -0.3749
22617SOL    HW171639  -0.036   6.918   4.701 -0.2148 -0.3084  0.2471
22617SOL    HW271640   0.072   6.884   4.802  0.6981  0.2177 -0.5212
22618SOL     OW71641   1.596   3.928   7.190  0.0198 -0.1014 -0.0177
22618SOL    HW171642   1.570   3.948   7.279  0.0098  0.0837 -0.0620
22618SOL    HW271643   1.682   3.885   7.199 -1.2876 -2.8808  0.3180
22619SOL     OW71644   5.626   8.363   4.133  0.2992  0.1090 -0.3623
22619SOL    HW171645   5.591   8.337   4.218 -0.5581  0.2344 -0.6643
22619SOL    HW271646   5.671   8.285   4.100  1.0596  0.2134  0.4114
22620SOL     OW71647   9.612   2.356   0.941 -0.4508  0.4389  0.1187
22620SOL    HW171648   9.665   2.436   0.939  0.2563  0.0020  0.6036
22620SOL    HW271649   9.522   2.386   0.930 -0.1874  1.2922  0.1992
22621SOL     OW71650   1.466   4.742   2.071 -0.8159  0.7672 -0.0716
22621SOL    HW171651   1.393   4.680   2.067 -0.5021  0.3817  0.0958
22621SOL    HW271652   1.443   4.801   2.143 -1.7673  1.6967 -1.1106
22622SOL     OW71653   3.926   6.673   8.686 -0.4465  0.4337 -0.0433
22622SOL    HW171654   3.844   6.655   8.733 -0.3411  0.9783  0.3552
22622SOL    HW271655   3.983   6.599   8.708  0.0282  1.2634  1.6702
22623SOL     OW71656   5.287   1.131   3.817 -0.3010  0.1681  0.2330
22623SOL    HW171657   5.276   1.057   3.757  1.4145  0.6026 -0.6877
22623SOL    HW271658   5.301   1.090   3.903 -1.1559 -0.5017  0.0677
22624SOL     OW71659   7.089   5.889   9.355 -0.2811  0.2150 -0.2675
22624SOL    HW171660   7.011   5.934   9.387 -1.1271 -1.2530 -0.1807
22624SOL    HW271661   7.068   5.865   9.265  0.8876  1.5772 -0.9502
22625SOL     OW71662   5.516   4.192   9.782  0.6899 -0.3573 -0.0229
22625SOL    HW171663   5.459   4.261   9.747  1.8639 -0.4580 -2.3173
22625SOL    HW271664   5.459   4.115   9.787  0.4492 -0.3404 -1.8244
22626SOL     OW71665   9.917   9.217   3.602 -0.0974  0.6371  0.0994
22626SOL    HW171666   9.886   9.299   3.564 -2.4364 -0.7652 -1.2750
22626SOL    HW271667   9.839   9.161   3.607  0.9654 -0.8024  3.0373
22627SOL     OW71668   5.613   4.779   5.461 -0.4529 -0.0266 -0.2072
22627SOL    HW171669   5.693   4.809   5.419 -2.2042  2.9367 -1.7356
22627SOL    HW271670   5.611   4.825   5.545 -1.0769  0.8844 -0.7002
22628SOL     OW71671   6.540   7.613   1.900  0.3944  0.1074  0.3392
22628SOL    HW171672   6.570   7.676   1.965  0.9013 -0.8954  1.1151
22628SOL    HW271673   6.529   7.531   1.950 -1.6314 -0.0858 -0.3395
22629SOL     OW71674   3.474   6.272   2.308  0.2879  0.4399 -0.0307
22629SOL    HW171675   3.513   6.352   2.273  2.4037  0.5792  2.3130
22629SOL    HW271676   3.507   6.202   2.252  1.2644  0.9029 -0.0570
22630SOL     OW71677   8.842   6.686   0.036 -0.0123 -0.3783  0.3200
22630SOL    HW171678   8.808   6.676   0.125  0.3477  2.2727  0.8594
22630SOL    HW271679   8.907   6.756   0.043 -0.8930  0.8225 -2.2263
22631SOL     OW71680   1.711   4.089   2.554 -0.3200  0.1424  0.1409
22631SOL    HW171681   1.683   4.181   2.548 -2.3672 -0.4657 -0.6610
22631SOL    HW271682   1.740   4.068   2.465 -0.3004 -0.1013  0.2051
22632SOL     OW71683   6.551  10.264   0.962 -0.4088 -0.4257  0.0187
22632SOL    HW171684   6.570  10.234   1.051 -2.1862  2.1245  1.3927
22632SOL    HW271685   6.621  10.326   0.942 -0.5898 -0.1848  0.1172
22633SOL     OW71686   3.409   6.978   9.302 -0.1551  0.3152  0.1109
22633SOL    HW171687   3.459   6.946   9.226  2.6178 -0.8916  2.2543
22633SOL    HW271688   3.381   6.898   9.347  2.1170  0.8036  2.6327
22634SOL     OW71689   1.383   2.443   2.477  0.1331  0.5522  0.6355
22634SOL    HW171690   1.442   2.517   2.468 -0.4898  1.0004  0.1591
22634SOL    HW271691   1.355   2.446   2.569  0.3489  0.7201  0.6955
22635SOL     OW71692   1.970   1.095   7.858 -0.2918 -0.5452 -0.6012
22635SOL    HW171693   1.970   1.186   7.829  0.1971  0.0963  1.2528
22635SOL    HW271694   1.879   1.079   7.885 -0.3678 -0.6067 -0.8860
22636SOL     OW71695   3.662   1.547   6.865  0.4029 -0.1486 -0.1929
22636SOL    HW171696   3.730   1.500   6.913 -0.0680  0.5498  1.2079
22636SOL    HW271697   3.585   1.543   6.922 -0.5245 -0.2485 -1.3916
22637SOL     OW71698   7.668   2.895   4.853  1.0320  0.1780 -0.0342
22637SOL    HW171699   7.742   2.841   4.879  0.6298  0.2092  1.2290
22637SOL    HW271700   7.692   2.984   4.879  0.1643  0.0465  1.3030
22638SOL     OW71701   1.467   1.971   5.734 -0.1779 -0.0249 -0.7022
22638SOL    HW171702   1.493   1.883   5.707 -1.7320 -1.0463  0.8848
22638SOL    HW271703   1.372   1.965   5.747 -0.0650  1.3343  1.2720
22639SOL     OW71704   0.176   7.750   4.505 -0.3758  0.0958 -0.3204
22639SOL    HW171705   0.182   7.830   4.557  0.4071 -0.6413  0.7721
22639SOL    HW271706   0.267   7.721   4.495 -0.4578  0.3673 -2.3967
22640SOL     OW71707   9.877   7.414   3.490  0.8861 -0.1003  0.2809
22640SOL    HW171708   9.962   7.455   3.507  1.2252 -0.6499 -0.0695
22640SOL    HW271709   9.874   7.340   3.551  0.9455 -0.4725 -0.1662
22641SOL     OW71710   3.665   4.245   9.288 -0.2238  0.0764  0.2453
22641SOL    HW171711   3.669   4.327   9.337 -0.1060 -0.5501  1.2993
22641SOL    HW271712   3.727   4.257   9.216  0.3453  0.6363  0.8205
22642SOL     OW71713   1.692   8.913   2.701  0.5407  0.2486  0.1588
22642SOL    HW171714   1.631   8.840   2.695  0.8468  0.0146 -0.1427
22642SOL    HW271715   1.640   8.985   2.737  0.2728 -0.1561  0.5927
22643SOL     OW71716   9.490  10.297   3.412  0.0850  0.3750  0.0256
22643SOL    HW171717   9.548  10.240   3.463  0.3956  1.0580  0.4527
22643SOL    HW271718   9.402  10.267   3.433  0.2218  0.4873  0.7820
22644SOL     OW71719   1.862   0.507   1.476  0.3484 -0.5525 -0.2564
22644SOL    HW171720   1.926   0.531   1.543  0.8822 -1.0164 -0.5940
22644SOL    HW271721   1.800   0.580   1.475  0.8846 -0.0846  0.0605
22645SOL     OW71722   1.823   0.146   5.679 -0.0296 -0.3712 -0.5059
22645SOL    HW171723   1.769   0.162   5.601  1.2425 -0.7632 -1.5041
22645SOL    HW271724   1.816   0.051   5.692  1.3389 -0.6136 -1.3717
22646SOL     OW71725   9.286   3.327   0.988  0.3538  0.7146 -0.5615
22646SOL    HW171726   9.218   3.390   0.963 -0.5981 -0.3884 -0.8529
22646SOL    HW271727   9.317   3.358   1.074 -0.3800  1.3530 -0.5134
22647SOL     OW71728   9.359   6.421   6.841  0.1825  0.0830  0.2168
22647SOL    HW171729   9.421   6.353   6.815  0.3649  0.6493 -0.8720
22647SOL    HW271730   9.349   6.409   6.936  0.1875 -1.4624  0.0424
22648SOL     OW71731   8.377   6.515   6.070 -0.1071 -0.5430 -0.0891
22648SOL    HW171732   8.470   6.525   6.049 -0.4148 -2.4345 -2.8405
22648SOL    HW271733   8.363   6.421   6.078 -1.3649 -0.2254  2.9552
22649SOL     OW71734   8.170   1.917   2.907 -0.0801 -0.2051  0.0164
22649SOL    HW171735   8.085   1.956   2.930  0.5392  1.1207  0.1884
22649SOL    HW271736   8.211   1.983   2.851  0.6246 -1.0648 -0.4977
22650SOL     OW71737   3.285   6.003   6.243 -0.8128 -0.5103 -0.8036
22650SOL    HW171738   3.264   5.930   6.184 -0.9482  1.6396 -3.6803
22650SOL    HW271739   3.301   6.077   6.184  1.8945  1.2280  1.7959
22651SOL     OW71740   2.228   4.275   3.633 -0.6175  0.2831  0.3220
22651SOL    HW171741   2.211   4.306   3.544  0.7174 -1.6408 -0.6811
22651SOL    HW271742   2.298   4.332   3.665 -0.9307  0.8299  0.0469
22652SOL     OW71743   3.378   0.775   6.071 -0.2988  0.3421  0.2567
22652SOL    HW171744   3.285   0.754   6.079  0.2554 -1.7403  2.3696
22652SOL    HW271745   3.392   0.849   6.130 -0.6017  0.6168 -0.0174
22653SOL     OW71746   1.365   0.725   9.204  0.0183  0.2495 -0.4010
22653SOL    HW171747   1.290   0.721   9.263  0.6531 -1.6790  0.3636
22653SOL    HW271748   1.408   0.639   9.214  1.6392  0.8526 -1.7026
22654SOL     OW71749   4.654   4.506   8.232  0.6913 -0.6113  0.0596
22654SOL    HW171750   4.622   4.449   8.302 -3.3296  1.1268 -0.0520
22654SOL    HW271751   4.595   4.489   8.158  1.5674  1.1874 -1.1469
22655SOL     OW71752   4.091   7.524   4.253 -0.1357  0.2174 -0.4058
22655SOL    HW171753   4.101   7.543   4.160 -1.4786  1.0160 -0.4104
22655SOL    HW271754   4.150   7.451   4.269 -0.6555 -0.6344 -2.1259
22656SOL     OW71755   1.738   2.423   5.018  0.2187  0.6364 -0.2330
22656SOL    HW171756   1.736   2.502   5.073  0.0401  0.3976  0.1058
22656SOL    HW271757   1.646   2.403   5.001  0.1649 -0.5601  1.2257
22657SOL     OW71758   9.002   4.778   9.639  0.1740 -0.2675  0.4392
22657SOL    HW171759   9.027   4.720   9.712  0.8341  0.2463  0.6256
22657SOL    HW271760   8.948   4.845   9.680  0.0456 -0.3130  0.3457
22658SOL     OW71761   3.503   6.085   8.764  0.7232  0.4065 -0.3334
22658SOL    HW171762   3.476   6.046   8.847  2.4933  0.8215  0.4838
22658SOL    HW271763   3.423   6.122   8.727 -0.4854 -1.5138  0.2062
22659SOL     OW71764   7.057   3.161   5.579  0.4903  0.5687 -0.7716
22659SOL    HW171765   7.082   3.212   5.656  0.2511  1.6916 -1.4175
22659SOL    HW271766   6.981   3.110   5.607  1.0385  0.1667  0.0299
22660SOL     OW71767   8.758   4.984   8.831 -0.2935 -0.0479 -0.0994
22660SOL    HW171768   8.827   4.923   8.857 -0.5873 -1.9566 -3.2137
22660SOL    HW271769   8.782   5.012   8.743 -1.3574  2.6939  0.3621
22661SOL     OW71770   4.677   3.555   9.460  0.0919  0.4291 -0.7030
22661SOL    HW171771   4.767   3.583   9.444  0.0271  0.1066 -1.7317
22661SOL    HW271772   4.681   3.459   9.457 -0.4626  0.4190 -1.9636
22662SOL     OW71773   0.109   5.843   1.031  0.2593 -0.4766  0.3905
22662SOL    HW171774   0.168   5.865   1.102 -0.8329  1.2962  0.8223
22662SOL    HW271775   0.035   5.798   1.073 -0.5074  0.7970  0.4586
22663SOL     OW71776   9.067   9.970   4.079  0.0497  0.3321  0.0379
22663SOL    HW171777   9.135  10.037   4.089  0.6113 -0.2894  0.4935
22663SOL    HW271778   9.005   9.989   4.149  2.1723 -1.8769  2.7517
22664SOL     OW71779   4.683   9.783   0.145 -0.2509 -0.2638  0.0117
22664SOL    HW171780   4.753   9.720   0.160 -1.1437 -0.9465  1.5162
22664SOL    HW271781   4.653   9.808   0.232 -1.8036  0.0902 -0.5774
22665SOL     OW71782   8.152   4.615   8.721 -0.0786 -0.1304  1.0369
22665SOL    HW171783   8.171   4.688   8.781 -1.2624  0.8770  0.2278
22665SOL    HW271784   8.214   4.547   8.747  0.5723  0.8874  2.3027
22666SOL     OW71785   1.420   2.651   0.258 -0.4801 -0.2102  0.1437
22666SOL    HW171786   1.361   2.686   0.192  2.5995  1.0802 -2.1963
22666SOL    HW271787   1.444   2.564   0.226 -0.1653 -0.2132  0.3767
22667SOL     OW71788   5.539   4.604   4.366  0.1485 -0.2865 -0.6142
22667SOL    HW171789   5.579   4.521   4.339  1.1561 -0.4282  1.1644
22667SOL    HW271790   5.586   4.629   4.445 -0.6240  1.6403 -0.7052
22668SOL     OW71791   8.442   9.836  10.101  0.6099 -0.1888 -0.1659
22668SOL    HW171792   8.502   9.779  10.148 -0.5103 -1.7097 -0.5304
22668SOL    HW271793   8.361   9.786  10.093 -0.3173  1.3264 -0.7842
22669SOL     OW71794  10.135   0.782   1.456 -0.1368 -0.1697  0.0845
22669SOL    HW171795  10.082   0.862   1.451 -0.9005 -0.7184 -2.2366
22669SOL    HW271796  10.205   0.803   1.518  0.4021  2.7794 -1.3106
22670SOL     OW71797   0.753   6.144   7.584  0.0951 -0.7209  0.0845
22670SOL    HW171798   0.670   6.170   7.543 -0.0502  0.0922  0.8662
22670SOL    HW271799   0.733   6.060   7.627 -1.0933  0.6668  2.4573
22671SOL     OW71800   9.159   1.809   7.115  0.5072 -0.4969 -0.3624
22671SOL    HW171801   9.129   1.778   7.200  0.8204 -1.3833 -0.5679
22671SOL    HW271802   9.081   1.848   7.075  0.3101 -0.2574  0.2379
22672SOL     OW71803   5.533   3.776   0.661 -0.0674  0.9217 -0.6290
22672SOL    HW171804   5.489   3.752   0.580 -0.1146  1.3112 -0.7205
22672SOL    HW271805   5.609   3.718   0.665 -0.4825  0.3838 -0.5677
22673SOL     OW71806   2.021   0.060   1.678  0.5049  0.0853  0.1015
22673SOL    HW171807   2.038   0.110   1.758  1.2342 -1.9693  1.3312
22673SOL    HW271808   1.985   0.123   1.617  0.4180  1.8635  1.8855
22674SOL     OW71809   1.957   1.755   1.843 -0.1381 -0.3585  0.1466
22674SOL    HW171810   1.930   1.838   1.883  1.6518 -0.2622  1.2635
22674SOL    HW271811   2.035   1.777   1.791 -1.6102 -0.7411 -2.4168
22675SOL     OW71812   7.901   5.531   1.409 -0.1464  0.9612  0.2389
22675SOL    HW171813   7.956   5.488   1.343  1.7578  1.8635  1.1524
22675SOL    HW271814   7.843   5.588   1.358 -1.1702 -0.9358 -0.8371
22676SOL     OW71815   8.844   9.570  10.251 -0.3282 -0.4222  0.2894
22676SOL    HW171816   8.855   9.485  10.294 -2.5266 -0.2051  1.4182
22676SOL    HW271817   8.866   9.634  10.318 -0.2254 -0.0738 -0.0692
22677SOL     OW71818   3.570   2.082  10.017 -0.0682  0.6067 -0.3126
22677SOL    HW171819   3.652   2.032  10.017 -1.7792 -2.4035 -0.7659
22677SOL    HW271820   3.596   2.169   9.986  3.5068  0.9586  2.7812
22678SOL     OW71821   8.098   1.021   9.384  0.3376 -0.6999 -0.4471
22678SOL    HW171822   8.147   1.074   9.447  0.1656  0.8607 -1.5722
22678SOL    HW271823   8.106   0.932   9.417  0.6571 -0.0030  1.5190
22679SOL     OW71824   3.292   8.175   9.053  0.4090  0.9152  0.4724
22679SOL    HW171825   3.309   8.086   9.022  2.0508  1.0337  0.9586
22679SOL    HW271826   3.222   8.164   9.117 -0.0664  0.1162 -0.1518
22680SOL     OW71827   7.684   0.126   2.815 -0.2099 -0.5324 -0.6019
22680SOL    HW171828   7.650   0.113   2.903 -2.2137 -2.1039 -1.5118
22680SOL    HW271829   7.611   0.101   2.758  1.4288 -0.7575 -2.7207
22681SOL     OW71830   1.583   1.229   7.887 -0.2477 -0.5163  0.5708
22681SOL    HW171831   1.599   1.253   7.796  0.5135 -0.3980  0.7314
22681SOL    HW271832   1.535   1.146   7.882 -1.6882  0.3205  0.0387
22682SOL     OW71833   2.281   1.206   1.399 -0.3053 -0.2999 -0.1208
22682SOL    HW171834   2.235   1.246   1.473 -1.6651 -0.6714 -0.7216
22682SOL    HW271835   2.250   1.255   1.323  1.4806  0.4214 -0.4184
22683SOL     OW71836   5.730   4.506   9.144  0.6770  0.0558 -0.5123
22683SOL    HW171837   5.798   4.495   9.077  2.2824  0.1170  1.0537
22683SOL    HW271838   5.759   4.581   9.196 -1.4317  1.1190 -0.7329
22684SOL     OW71839   2.332   5.802   4.634  0.0185 -0.7022  0.2993
22684SOL    HW171840   2.358   5.759   4.715 -0.7588 -0.1923  0.8360
22684SOL    HW271841   2.414   5.822   4.589  0.4129 -3.1820 -0.2282
22685SOL     OW71842   1.484   2.967   4.055 -0.1185 -0.1211  0.1073
22685SOL    HW171843   1.459   2.876   4.067  2.1092 -0.7361  0.6052
22685SOL    HW271844   1.409   3.018   4.087 -1.3979 -1.7422 -0.1986
22686SOL     OW71845  10.049   2.289   1.512 -0.4087  0.1112 -0.2844
22686SOL    HW171846  10.015   2.307   1.600 -0.6362  1.1092 -0.5608
22686SOL    HW271847  10.138   2.323   1.514 -0.8970  1.5047 -0.8653
22687SOL     OW71848   0.451   8.341  10.253  0.2999  0.3590  0.3382
22687SOL    HW171849   0.529   8.362  10.304  0.3051 -0.3300  0.6280
22687SOL    HW271850   0.463   8.387  10.170  0.7824  0.6501  0.5664
22688SOL     OW71851   9.267   5.163   2.851  0.2333  0.0723  0.7388
22688SOL    HW171852   9.315   5.111   2.916  1.1290 -0.0004  0.0226
22688SOL    HW271853   9.331   5.185   2.784 -0.4918  0.8436  0.2727
22689SOL     OW71854   0.166   3.904   7.395  0.2504 -0.6095  0.3301
22689SOL    HW171855   0.224   3.979   7.407  0.4808 -0.8268  0.5865
22689SOL    HW271856   0.082   3.933   7.432  0.6965 -0.9342  1.6435
22690SOL     OW71857   7.568   8.951   4.637  0.3737 -0.0236  0.2234
22690SOL    HW171858   7.598   9.033   4.676 -0.2632 -0.7869  2.4875
22690SOL    HW271859   7.648   8.912   4.602  1.5500 -0.3577  2.9711
22691SOL     OW71860  10.108   0.856   2.747  0.0679  0.3493 -0.4521
22691SOL    HW171861  10.129   0.795   2.817  1.6921  2.2621  0.8460
22691SOL    HW271862  10.179   0.847   2.684 -1.3646 -1.3324 -1.9398
22692SOL     OW71863   9.980   8.972   3.304 -0.0604 -0.1674  0.0126
22692SOL    HW171864  10.042   8.902   3.323  0.0299 -0.2062 -0.4118
22692SOL    HW271865   9.952   8.955   3.214 -0.6462 -0.1187  0.1819
22693SOL     OW71866   0.007   0.047   3.295  0.1946  0.1297 -0.2430
22693SOL    HW171867  -0.015  -0.028   3.350 -0.5290  0.5058  0.0026
22693SOL    HW271868   0.102   0.045   3.288  0.4004  0.5814  1.7965
22694SOL     OW71869   9.367   3.971   2.895  0.6009  0.2718 -0.3264
22694SOL    HW171870   9.350   3.885   2.857 -0.6076  0.9763 -1.4415
22694SOL    HW271871   9.301   3.981   2.964  0.7419  0.3121 -0.1952
22695SOL     OW71872   2.015   0.207   1.903 -0.2032  0.0042  0.6042
22695SOL    HW171873   1.941   0.160   1.942  1.4295 -2.1837  1.2702
22695SOL    HW271874   2.079   0.214   1.974  2.0729 -2.3247 -1.0089
22696SOL     OW71875   8.683   3.887   6.234  0.3796  0.3821 -0.6372
22696SOL    HW171876   8.602   3.935   6.221 -1.2986 -1.9973  0.3018
22696SOL    HW271877   8.694   3.836   6.153  1.3562  1.1809 -1.0374
22697SOL     OW71878   3.554   9.262   9.259  0.7012  0.4564  0.3552
22697SOL    HW171879   3.506   9.237   9.180 -2.0860  2.2106  1.3457
22697SOL    HW271880   3.610   9.186   9.279  0.2059 -0.7036 -2.2851
22698SOL     OW71881   1.854   1.917   5.758 -0.0109 -0.8808 -0.1408
22698SOL    HW171882   1.946   1.890   5.755  0.0638 -0.7594  0.8567
22698SOL    HW271883   1.819   1.876   5.836 -0.8334 -0.9756 -0.5499
22699SOL     OW71884   7.063   6.807   7.780 -0.2571 -0.3407  0.2344
22699SOL    HW171885   7.021   6.827   7.696 -1.4501  2.4304  1.3472
22699SOL    HW271886   7.141   6.863   7.782  0.6347 -1.5407  0.3862
22700SOL     OW71887   8.999   2.698   3.184 -0.5063 -0.2827 -0.3511
22700SOL    HW171888   9.021   2.757   3.256  0.7017  0.8897 -1.6137
22700SOL    HW271889   8.904   2.706   3.175 -0.5595  0.2340  0.5405
22701SOL     OW71890   5.291   4.279   3.703  0.4009 -0.2989  0.0033
22701SOL    HW171891   5.270   4.350   3.643  0.9282 -1.0957 -1.1622
22701SOL    HW271892   5.254   4.200   3.661  1.5104 -0.9941  0.2957
22702SOL     OW71893   2.232   0.055   2.359 -0.6371  0.2854  0.2763
22702SOL    HW171894   2.246   0.018   2.446  1.4776 -1.0286 -0.5435
22702SOL    HW271895   2.306   0.115   2.346  0.2159 -1.0339 -1.3337
22703SOL     OW71896   5.644   1.225   8.335  0.4912 -0.2230  0.2230
22703SOL    HW171897   5.587   1.245   8.408 -1.1383 -0.7698 -0.8507
22703SOL    HW271898   5.717   1.176   8.374 -0.4327 -0.6734  1.4532
22704SOL     OW71899   1.523   9.053   7.166 -0.5748  0.1007  0.1195
22704SOL    HW171900   1.497   9.143   7.149 -2.3033 -0.0391  1.7355
22704SOL    HW271901   1.563   9.024   7.084  1.9159  2.9202  0.1524
22705SOL     OW71902   2.212   9.650   2.291 -0.0119  0.8010 -0.5334
22705SOL    HW171903   2.144   9.713   2.314  0.8939  1.9980 -1.0244
22705SOL    HW271904   2.292   9.686   2.328  0.3678 -0.6751  0.1951
22706SOL     OW71905   7.973   4.835   5.771  1.3250  0.3825 -0.3829
22706SOL    HW171906   7.879   4.854   5.771  0.7458 -1.8720  1.8079
22706SOL    HW271907   8.009   4.898   5.834  0.5722 -1.1403  1.6767
22707SOL     OW71908   4.244   2.659   3.295 -0.1238 -0.0072 -0.6249
22707SOL    HW171909   4.230   2.738   3.348  0.1511  0.1487 -0.7837
22707SOL    HW271910   4.272   2.593   3.359 -1.8967 -0.4285 -0.2446
22708SOL     OW71911   4.081   9.034   7.054 -0.1651  0.5113 -0.2588
22708SOL    HW171912   4.136   8.976   7.107  1.5304  2.5885  0.3911
22708SOL    HW271913   4.008   9.057   7.111  0.2878  0.6886  0.2560
22709SOL     OW71914   0.560   2.062   2.234  0.0223  0.0478 -0.0439
22709SOL    HW171915   0.508   2.142   2.247  0.8263  0.4785  0.5795
22709SOL    HW271916   0.646   2.094   2.207  0.9934 -0.4936  2.2745
22710SOL     OW71917   1.890   2.486   2.273 -0.1308  0.2170  0.3629
22710SOL    HW171918   1.802   2.513   2.247  0.4596 -0.1613 -2.3422
22710SOL    HW271919   1.875   2.427   2.348 -2.0848  0.7377  0.4506
22711SOL     OW71920   8.733   5.225   5.017 -0.2071 -0.5755  0.3879
22711SOL    HW171921   8.676   5.185   4.952  0.5088 -0.4498 -0.3338
22711SOL    HW271922   8.682   5.300   5.050  0.1844  0.6341 -1.5486
22712SOL     OW71923   7.478   7.701   1.359 -0.1535 -0.0990 -0.0630
22712SOL    HW171924   7.390   7.665   1.350  0.8985 -2.6668 -1.2136
22712SOL    HW271925   7.523   7.640   1.418  0.5749  1.7988  1.4185
22713SOL     OW71926   3.887   0.232   3.202 -0.4856 -0.1259 -0.0306
22713SOL    HW171927   3.835   0.261   3.127  1.8595  0.7995 -1.4161
22713SOL    HW271928   3.927   0.150   3.174  1.3245  0.8037 -0.3109
22714SOL     OW71929   1.592   9.738   4.271 -0.2746 -0.0556 -0.1216
22714SOL    HW171930   1.555   9.818   4.235  1.6463  0.4343 -1.1136
22714SOL    HW271931   1.564   9.737   4.363 -0.5861  1.5873 -0.1800
22715SOL     OW71932   5.368   2.761   7.834  0.4676  0.7085 -0.3381
22715SOL    HW171933   5.301   2.745   7.768  0.8189  0.9778 -0.7582
22715SOL    HW271934   5.424   2.828   7.797  1.6504 -0.3224 -0.4845
22716SOL     OW71935   9.945   9.181   1.306  0.4578  0.2748  0.1560
22716SOL    HW171936   9.915   9.096   1.276  1.0210  0.5799 -1.3346
22716SOL    HW271937   9.899   9.195   1.389  0.5542 -1.5754  0.5432
22717SOL     OW71938   1.971   9.723   7.868 -0.4526  0.4574  0.4628
22717SOL    HW171939   1.916   9.761   7.800 -1.4016 -1.0996  0.3275
22717SOL    HW271940   1.912   9.707   7.941  0.1452  0.2145  0.9058
22718SOL     OW71941   8.521   5.260   1.474  0.2364 -0.4405 -0.2413
22718SOL    HW171942   8.551   5.210   1.398 -0.0594 -0.9036 -0.0533
22718SOL    HW271943   8.538   5.202   1.549  0.5512  0.0224  0.0529
22719SOL     OW71944   6.384   9.932   2.905  0.0254  0.0386 -0.0064
22719SOL    HW171945   6.357   9.842   2.886 -0.3635 -0.1681  1.4162
22719SOL    HW271946   6.317   9.986   2.864 -0.3136 -0.3441  0.0381
22720SOL     OW71947   1.233   5.162   0.259  0.1288 -0.4402 -0.3491
22720SOL    HW171948   1.201   5.115   0.336  0.7332  0.9934  0.8249
22720SOL    HW271949   1.159   5.160   0.198 -0.9110 -0.3508  0.8561
22721SOL     OW71950   2.932   4.460   0.312 -0.0295  0.2018 -0.1952
22721SOL    HW171951   2.927   4.510   0.230  1.7960 -0.6513 -0.8857
22721SOL    HW271952   2.842   4.435   0.330 -0.5268  0.7360 -1.7573
22722SOL     OW71953   9.828   3.564   1.692 -0.0660 -0.1631 -0.4569
22722SOL    HW171954   9.831   3.588   1.599  0.2897 -1.5681 -0.8421
22722SOL    HW271955   9.845   3.646   1.739 -0.6886  0.6558 -1.6129
22723SOL     OW71956   9.921   4.723   1.316  0.2679  0.3273 -0.0373
22723SOL    HW171957   9.969   4.805   1.328 -2.7039  2.2197 -0.1246
22723SOL    HW271958   9.830   4.749   1.306 -0.7081 -2.9539 -1.1434
22724SOL     OW71959   1.811   9.967   8.552  0.0507  0.2165  0.1061
22724SOL    HW171960   1.804   9.937   8.462  0.6392  1.1613 -0.2678
22724SOL    HW271961   1.845   9.892   8.600 -1.8934 -0.8628 -0.1094
22725SOL     OW71962   4.561   8.956   9.934  0.2998  0.0487  0.1848
22725SOL    HW171963   4.473   8.947   9.971 -0.6033 -0.8488 -2.0173
22725SOL    HW271964   4.548   8.990   9.846  2.1549 -0.1734 -0.2319
22726SOL     OW71965   2.471   8.321   3.606 -0.7362  0.0348 -0.1958
22726SOL    HW171966   2.562   8.345   3.586 -0.8580  0.0062 -0.7964
22726SOL    HW271967   2.419   8.372   3.545 -1.1438  0.2518  0.3299
22727SOL     OW71968   0.373   1.966   5.599  0.5195  0.8236  0.0017
22727SOL    HW171969   0.420   1.917   5.531 -2.3512 -0.4470 -1.2121
22727SOL    HW271970   0.328   2.036   5.552 -0.8553  0.4288  0.6939
22728SOL     OW71971   1.295   4.299   0.115  0.3044 -0.5206  0.5661
22728SOL    HW171972   1.371   4.290   0.172 -0.3305 -0.0764  1.5035
22728SOL    HW271973   1.285   4.212   0.075  0.6284 -0.9094  1.3084
22729SOL     OW71974   9.169   5.548   7.522  0.6083  0.3330  0.6964
22729SOL    HW171975   9.201   5.528   7.434 -0.8008 -0.7413  0.3931
22729SOL    HW271976   9.124   5.469   7.550  0.0290  1.0707  1.9225
22730SOL     OW71977   7.184   1.588   1.175 -0.2824 -0.4648 -0.1960
22730SOL    HW171978   7.160   1.539   1.096  0.1023 -1.6540  0.3979
22730SOL    HW271979   7.134   1.547   1.245  0.0468  0.0079  0.3229
22731SOL     OW71980   6.778   5.824   2.452 -0.4710  0.5273 -0.2767
22731SOL    HW171981   6.759   5.912   2.421 -0.8997  0.6558  0.3384
22731SOL    HW271982   6.745   5.822   2.542  0.7024  0.1477  0.1637
22732SOL     OW71983   7.709   1.201   1.063  0.4032  0.2988 -0.2677
22732SOL    HW171984   7.752   1.266   1.118  0.3392 -0.8861  1.2278
22732SOL    HW271985   7.656   1.149   1.123 -0.4325 -0.4445 -1.5897
22733SOL     OW71986   9.390  10.269   0.235 -0.2175  0.1375 -0.4206
22733SOL    HW171987   9.423  10.239   0.150 -0.4004 -0.5787 -0.2426
22733SOL    HW271988   9.455  10.237   0.298  0.0659  0.9138 -0.3148
22734SOL     OW71989   3.065   2.589   0.185  0.0878 -0.1007 -0.2141
22734SOL    HW171990   3.156   2.560   0.188  0.0308 -0.1785  1.4310
22734SOL    HW271991   3.015   2.518   0.224 -0.5081  0.5407  0.2135
22735SOL     OW71992   7.355   9.496  10.189  0.0041  0.5149 -0.5627
22735SOL    HW171993   7.286   9.448  10.236 -1.6255  0.8624 -2.4702
22735SOL    HW271994   7.367   9.576  10.240 -1.6890  0.8643 -0.6577
22736SOL     OW71995   0.709   4.976   2.725  0.1984 -0.5599  0.5645
22736SOL    HW171996   0.702   5.063   2.685 -0.2660  0.0969  2.0128
22736SOL    HW271997   0.741   4.920   2.654 -3.3034 -0.0987 -1.6611
22737SOL     OW71998   9.393   9.017   8.897 -0.4536  0.2503  0.2894
22737SOL    HW171999   9.308   8.982   8.867 -0.3296  0.6753 -0.5836
22737SOL    HW272000   9.370   9.075   8.970 -0.8161 -0.3940  0.7008
22738SOL     OW72001   5.973   0.783   9.240 -0.1137  0.1464  0.0383
22738SOL    HW172002   5.878   0.787   9.244 -0.0472  0.9010  1.4459
22738SOL    HW272003   6.002   0.792   9.331  1.2675 -1.7423 -0.1527
22739SOL     OW72004   4.813   0.295   6.176 -0.4431 -0.6821  0.5813
22739SOL    HW172005   4.868   0.263   6.248  0.7446  0.7025  0.3452
22739SOL    HW272006   4.874   0.307   6.103 -1.6439 -2.1583 -0.7324
22740SOL     OW72007   2.022  10.187   2.885 -0.2898  0.5774 -0.0440
22740SOL    HW172008   2.063  10.194   2.798  2.1454  0.2869  0.9924
22740SOL    HW272009   1.933  10.156   2.867 -0.2565  1.6517 -2.4945
22741SOL     OW72010   3.623   8.550   8.695 -0.0372 -0.5108  0.9196
22741SOL    HW172011   3.717   8.531   8.702 -0.2051 -1.3219  0.9825
22741SOL    HW272012   3.580   8.480   8.744 -0.5949  1.0393  2.7795
22742SOL     OW72013   4.601   7.715   1.888 -0.2063  0.1033 -0.0262
22742SOL    HW172014   4.546   7.647   1.850 -1.2600  0.5368  0.6864
22742SOL    HW272015   4.677   7.668   1.923 -0.6503 -0.6363 -0.0504
22743SOL     OW72016   5.402   5.497   6.192  0.0025  0.0981  0.2486
22743SOL    HW172017   5.435   5.453   6.114 -1.0002 -0.7082  0.2596
22743SOL    HW272018   5.397   5.427   6.258 -0.6231  0.4376  0.5690
22744SOL     OW72019   9.105   3.669  10.029 -0.2733 -0.3766 -0.2145
22744SOL    HW172020   9.071   3.588   9.990  1.2362 -0.5625 -1.2142
22744SOL    HW272021   9.128   3.724   9.955 -0.1325  0.4887  0.4499
22745SOL     OW72022   8.288   4.664   7.506  0.4118  0.2659  0.4302
22745SOL    HW172023   8.231   4.606   7.557  1.6570  0.3837  2.0376
22745SOL    HW272024   8.245   4.750   7.510  0.3696  0.2185  1.1108
22746SOL     OW72025   8.967   1.324   6.708 -0.0605 -0.2392 -0.1688
22746SOL    HW172026   8.931   1.406   6.675 -0.7471 -0.4116  0.1377
22746SOL    HW272027   8.893   1.281   6.751  1.3928  1.4953  4.7180
22747SOL     OW72028   2.702   1.697   5.168 -0.3913 -0.0966  0.0139
22747SOL    HW172029   2.640   1.758   5.208 -0.2849 -0.8499  1.3848
22747SOL    HW272030   2.762   1.674   5.238  0.4550 -0.6610 -0.8670
22748SOL     OW72031   9.967   6.990   8.284  0.5012 -0.7085  0.0058
22748SOL    HW172032   9.961   7.058   8.350 -1.6217 -1.1547  0.3451
22748SOL    HW272033   9.948   7.034   8.202 -1.7799 -0.9677  0.3275
22749SOL     OW72034   4.626   4.109   7.876  0.1254  0.0897 -0.0678
22749SOL    HW172035   4.677   4.028   7.870 -3.0265 -2.0760  0.1232
22749SOL    HW272036   4.592   4.109   7.965 -1.3644  0.6385 -0.6145
22750SOL     OW72037   1.751   8.096   4.796  0.4279 -0.5082  0.3448
22750SOL    HW172038   1.815   8.066   4.731 -0.2406 -0.6595 -0.2647
22750SOL    HW272039   1.675   8.122   4.743 -0.1662 -0.7292  1.0822
22751SOL     OW72040   7.289   9.565   6.323  0.5227  0.3286  0.4772
22751SOL    HW172041   7.255   9.505   6.257  0.0906 -1.0454  1.8872
22751SOL    HW272042   7.214   9.619   6.347 -0.1256 -1.0709  1.8224
22752SOL     OW72043   3.316   4.351   5.478  0.2840 -0.3232  0.4073
22752SOL    HW172044   3.411   4.345   5.465  0.1082  0.6354 -1.7948
22752SOL    HW272045   3.281   4.370   5.391 -1.9212 -0.3668  1.2199
22753SOL     OW72046   1.663   7.406   1.221  0.3224  0.5753  0.5339
22753SOL    HW172047   1.597   7.368   1.279 -2.0759 -0.2671 -2.4837
22753SOL    HW272048   1.720   7.333   1.197 -1.5028 -0.2281 -1.6561
22754SOL     OW72049   0.272   0.897   3.962 -0.5797  0.1422 -0.5323
22754SOL    HW172050   0.184   0.861   3.971 -0.2636 -1.2953 -2.5170
22754SOL    HW272051   0.327   0.841   4.018 -0.8664  0.8747  0.4991
22755SOL     OW72052   3.099   8.577   1.872  0.3352  0.5343 -0.0270
22755SOL    HW172053   3.037   8.650   1.871  0.2735  0.4892  0.4721
22755SOL    HW272054   3.077   8.528   1.950 -0.1462 -0.4834 -0.7835
22756SOL     OW72055   1.169   9.814   6.876  0.2237  0.2372 -0.4540
22756SOL    HW172056   1.218   9.830   6.956  0.8076 -1.2787 -0.4707
22756SOL    HW272057   1.084   9.783   6.906  0.4284 -0.2921 -0.4155
22757SOL     OW72058   9.108   3.978   6.300 -0.1418  0.4038 -0.3713
22757SOL    HW172059   9.082   4.049   6.242 -0.2523  0.3836 -0.3457
22757SOL    HW272060   9.177   4.016   6.355 -0.6361  0.6839  0.0745
22758SOL     OW72061   0.440   8.921   1.558 -0.2203  0.2167 -0.4291
22758SOL    HW172062   0.481   8.966   1.483  1.9895  1.1188  1.2127
22758SOL    HW272063   0.462   8.829   1.545  0.9994  0.4861 -0.4391
22759SOL     OW72064   5.462   8.904   3.640  0.2383 -0.0079 -0.1997
22759SOL    HW172065   5.431   8.814   3.643 -0.9234  0.3891  1.1628
22759SOL    HW272066   5.400   8.950   3.584  1.7016 -0.3117 -2.1641
22760SOL     OW72067   0.966  10.306   6.032 -0.2637 -0.1528  0.3347
22760SOL    HW172068   0.927  10.329   5.948  0.3185  0.0741  0.1212
22760SOL    HW272069   0.986  10.213   6.024 -1.6424 -0.5123  0.8070
22761SOL     OW72070   0.185   6.990  10.126 -0.3274 -0.5942 -0.0711
22761SOL    HW172071   0.225   7.049  10.062 -1.0488  1.1511  1.0114
22761SOL    HW272072   0.138   7.048  10.186  1.2242 -2.0189  2.7173
22762SOL     OW72073   3.168   4.248   5.888  0.3697 -0.5319  0.1671
22762SOL    HW172074   3.183   4.251   5.983 -1.7092 -0.9406  0.5687
22762SOL    HW272075   3.073   4.242   5.880  0.4571  0.1940 -1.9860
22763SOL     OW72076   1.587   6.300   6.919  0.0631 -0.4584 -0.3454
22763SOL    HW172077   1.539   6.264   6.844  1.1215  0.7162 -1.6456
22763SOL    HW272078   1.533   6.278   6.995 -2.5428  0.7728 -1.7060
22764SOL     OW72079   5.658   7.151   4.632 -0.3843 -0.0305 -0.0481
22764SOL    HW172080   5.596   7.116   4.696 -0.6796  0.1271 -0.2470
22764SOL    HW272081   5.662   7.245   4.651 -1.0567  0.1513 -0.7437
22765SOL     OW72082   2.241   8.233   9.804 -0.2135 -0.3519 -1.2046
22765SOL    HW172083   2.294   8.237   9.883 -1.4976  0.5056 -0.3309
22765SOL    HW272084   2.246   8.321   9.768  2.0494 -1.2366 -3.3117
22766SOL     OW72085   8.282   6.206   2.560 -0.0904  0.0676  0.9454
22766SOL    HW172086   8.313   6.296   2.565  1.0259 -0.2185 -0.2341
22766SOL    HW272087   8.233   6.201   2.478 -0.7914 -0.2302  1.3685
22767SOL     OW72088   5.070   7.848   4.305 -0.5326  0.2135  0.2938
22767SOL    HW172089   5.123   7.880   4.232  1.1081  0.6957  1.6229
22767SOL    HW272090   5.066   7.754   4.293 -0.0916  0.2685 -0.3093
22768SOL     OW72091   7.104   3.232   5.331 -0.0698 -0.7792  0.3247
22768SOL    HW172092   7.197   3.242   5.351 -0.0060 -1.5388  0.4165
22768SOL    HW272093   7.065   3.201   5.413 -0.5082  0.0925  0.4598
22769SOL     OW72094   5.945   0.038   4.571  0.8548 -0.1780  0.0082
22769SOL    HW172095   5.949  -0.016   4.651  1.2290 -1.0348 -0.5707
22769SOL    HW272096   5.854   0.067   4.566  0.6129 -0.8703  0.2634
22770SOL     OW72097   8.891   4.907   4.710 -0.4127  0.6104 -0.0879
22770SOL    HW172098   8.839   4.884   4.633 -2.1775  2.0193  0.6206
22770SOL    HW272099   8.907   4.823   4.754 -0.8941  0.0009 -1.0440
22771SOL     OW72100   0.798   6.498   7.464  0.0974  0.1931 -0.4964
22771SOL    HW172101   0.841   6.478   7.381 -0.0206  1.4663 -0.8836
22771SOL    HW272102   0.861   6.553   7.511  0.9196 -1.9232  1.0469
22772SOL     OW72103   0.908   5.744   6.334 -0.7590  0.2082 -0.7539
22772SOL    HW172104   0.892   5.828   6.291  0.6799  0.1800 -1.4064
22772SOL    HW272105   0.887   5.760   6.426  0.2068  1.5251 -0.7245
22773SOL     OW72106   1.402   1.442   7.981 -0.0894 -0.5795 -0.9076
22773SOL    HW172107   1.468   1.390   7.935  0.2896  0.1704 -1.2221
22773SOL    HW272108   1.451   1.492   8.046 -0.4593 -0.6441 -0.5677
22774SOL     OW72109   2.630   5.375   8.021 -0.1803 -0.4994 -0.1037
22774SOL    HW172110   2.594   5.450   7.974  0.5328  0.6045  1.0595
22774SOL    HW272111   2.725   5.383   8.011 -0.0255 -0.4314  1.2017
22775SOL     OW72112   3.131   2.359   2.359 -0.2143  0.1336 -0.1256
22775SOL    HW172113   3.197   2.294   2.338  0.0585 -0.4690  2.3413
22775SOL    HW272114   3.053   2.309   2.383 -0.3622  0.7241  0.6936
22776SOL     OW72115   4.048   1.180   1.849 -0.2246  0.4241  0.1482
22776SOL    HW172116   4.035   1.087   1.868  1.8655 -0.0855 -0.6994
22776SOL    HW272117   4.119   1.207   1.908 -0.8670  1.5271  0.4504
22777SOL     OW72118   2.593   6.154   5.073 -0.6062 -0.1450 -0.2839
22777SOL    HW172119   2.631   6.066   5.068 -0.4981 -0.1667  0.7541
22777SOL    HW272120   2.655   6.204   5.126 -2.2795 -0.3578  2.0224
22778SOL     OW72121   9.246   3.493  10.145 -0.5043  0.0316 -0.4174
22778SOL    HW172122   9.213   3.577  10.113  0.9480  0.9316  0.3222
22778SOL    HW272123   9.200   3.480  10.228  0.2515  0.7972  0.1367
22779SOL     OW72124   9.707   5.941   8.614 -0.2442 -0.4511  0.0956
22779SOL    HW172125   9.640   6.009   8.622 -0.6235 -0.7259 -0.6351
22779SOL    HW272126   9.783   5.985   8.576 -0.7198 -0.5580 -1.0276
22780SOL     OW72127   6.933   9.297   1.526 -0.0859  0.3843  0.4260
22780SOL    HW172128   6.990   9.295   1.449  0.6231  0.8499  0.9248
22780SOL    HW272129   6.901   9.207   1.535  1.1951 -0.0771  0.5866
22781SOL     OW72130   7.770   2.308   1.103 -0.1465  0.3628  0.1124
22781SOL    HW172131   7.855   2.335   1.070 -1.2596  1.8395 -1.7387
22781SOL    HW272132   7.743   2.380   1.161 -0.5609  0.3817 -0.1013
22782SOL     OW72133   4.398   5.598   9.071  0.2603 -0.1514  0.1358
22782SOL    HW172134   4.454   5.566   9.001 -1.1832  0.7037 -1.4679
22782SOL    HW272135   4.381   5.690   9.049 -2.8445 -0.7219 -0.2195
22783SOL     OW72136   8.018   2.356   2.017  0.2589  0.2353 -0.1274
22783SOL    HW172137   7.995   2.448   2.002  2.3307  1.0041  1.0488
22783SOL    HW272138   8.092   2.359   2.077 -0.7674 -2.2999  1.4180
22784SOL     OW72139   4.876   5.001   7.534 -0.3109 -0.5997 -0.1796
22784SOL    HW172140   4.946   4.939   7.513  1.3035  0.9371  0.3311
22784SOL    HW272141   4.843   5.029   7.449  2.3153  1.3900 -0.6748
22785SOL     OW72142   1.419   8.887   9.950  0.3566  0.2225 -0.4144
22785SOL    HW172143   1.446   8.850  10.034  0.5643 -0.5484 -0.8067
22785SOL    HW272144   1.405   8.811   9.894 -0.9573  0.6630 -0.7378
22786SOL     OW72145   5.152   7.714   3.718  0.0762  0.2347 -0.2455
22786SOL    HW172146   5.170   7.621   3.723  1.1871  0.4196 -0.7118
22786SOL    HW272147   5.072   7.720   3.666 -1.9086 -0.6307  2.4414
22787SOL     OW72148   7.121   4.808   1.439 -0.0725  0.9042 -0.7930
22787SOL    HW172149   7.085   4.885   1.483  0.8252  1.3299 -0.7926
22787SOL    HW272150   7.055   4.739   1.454 -0.6160  1.5153 -0.3187
22788SOL     OW72151   6.763   5.040   0.933  0.1230 -0.3032 -0.0475
22788SOL    HW172152   6.775   5.132   0.910  1.0039 -0.0378  1.3559
22788SOL    HW272153   6.812   4.992   0.866 -0.3987  0.2365 -0.8230
22789SOL     OW72154   9.034   1.247   5.225  0.0369  0.4691  0.1243
22789SOL    HW172155   9.087   1.233   5.303  0.0645  0.9134  0.1850
22789SOL    HW272156   9.085   1.208   5.154  0.3921  0.7943  0.2005
22790SOL     OW72157   3.093   1.790   0.772  0.6460 -0.0416 -0.2841
22790SOL    HW172158   3.066   1.781   0.680 -0.2594  1.7510 -0.2421
22790SOL    HW272159   3.032   1.733   0.820 -0.9470  1.3534 -0.5405
22791SOL     OW72160   9.299   7.361   2.988 -0.7564  0.0451  0.1128
22791SOL    HW172161   9.337   7.349   2.901 -3.3285  0.3404 -1.1583
22791SOL    HW272162   9.356   7.424   3.031  0.5255 -0.0208 -1.4044
22792SOL     OW72163   6.505   0.358   6.097  0.0781  0.1873 -0.5901
22792SOL    HW172164   6.443   0.424   6.128  0.3773  0.8850 -1.4592
22792SOL    HW272165   6.509   0.371   6.003 -0.5186 -1.6652 -0.8983
22793SOL     OW72166   2.147   5.043   2.320  0.4175  0.5194 -0.4489
22793SOL    HW172167   2.236   5.021   2.345  0.5639  0.1292 -1.2954
22793SOL    HW272168   2.105   4.959   2.301  0.0775  0.7466 -0.7237
22794SOL     OW72169   1.360   0.409   7.236  0.8953  0.0681  0.3188
22794SOL    HW172170   1.387   0.451   7.318  1.0580 -0.6904  0.6601
22794SOL    HW272171   1.345   0.318   7.260 -2.0034  0.4114  0.1609
22795SOL     OW72172   6.555   5.269   9.945 -1.1817  0.8239 -0.2166
22795SOL    HW172173   6.565   5.231  10.032 -2.8094  1.4099  0.2592
22795SOL    HW272174   6.567   5.363   9.958  0.2251  0.7678 -0.9361
22796SOL     OW72175   2.748   3.345   9.741 -0.4449 -0.1951  0.0957
22796SOL    HW172176   2.678   3.323   9.803  0.7085 -0.5952  1.3155
22796SOL    HW272177   2.762   3.264   9.691 -2.2462  0.4907 -1.6565
22797SOL     OW72178   8.964   0.269   3.040 -0.6895 -0.6424  0.0981
22797SOL    HW172179   8.999   0.345   3.087 -2.6286 -0.1967  0.9100
22797SOL    HW272180   9.040   0.230   2.997  0.4277  1.4885  0.0375
22798SOL     OW72181   7.394   7.345   0.302  0.0668 -0.3642 -0.3854
22798SOL    HW172182   7.306   7.381   0.312 -0.0833 -0.8209  0.0062
22798SOL    HW272183   7.379   7.256   0.268  0.4210 -0.1142 -1.2276
22799SOL     OW72184   5.606   6.849   5.800 -0.1742 -0.8026 -0.2030
22799SOL    HW172185   5.672   6.876   5.863  0.2477 -2.4960  0.1439
22799SOL    HW272186   5.552   6.927   5.787  2.2598  0.8714 -1.0401
22800SOL     OW72187   5.979   3.883   4.669 -0.2882 -0.1939  0.0619
22800SOL    HW172188   5.967   3.887   4.574  0.7718  0.2317 -0.0699
22800SOL    HW272189   6.058   3.831   4.681 -1.8308 -2.5010  0.8668
22801SOL     OW72190   6.967   2.826   9.868 -0.1073 -0.2633  0.1203
22801SOL    HW172191   6.890   2.780   9.903 -1.3367  0.5683 -1.3860
22801SOL    HW272192   6.975   2.794   9.778  0.9503  0.1264  0.0716
22802SOL     OW72193   5.511   7.317   2.868  0.1554  0.0824  0.1867
22802SOL    HW172194   5.460   7.353   2.941 -1.2312  1.6046 -1.4481
22802SOL    HW272195   5.585   7.376   2.860 -0.8286  1.2117 -0.9462
22803SOL     OW72196   2.428   9.455  10.155  0.3628  0.4167 -0.4203
22803SOL    HW172197   2.389   9.538  10.126 -0.6528 -0.3107 -1.1771
22803SOL    HW272198   2.481   9.426  10.081  0.5434  0.2779 -0.2375
22804SOL     OW72199   9.543   2.423   8.222 -0.5268  0.1131 -0.2441
22804SOL    HW172200   9.588   2.449   8.302 -0.8886  0.7407 -0.2377
22804SOL    HW272201   9.560   2.329   8.214  1.4634  0.4624 -0.6717
22805SOL     OW72202   3.696   1.299   6.634  0.3029  0.1439 -0.2091
22805SOL    HW172203   3.635   1.307   6.561  0.8293  0.1066 -0.6600
22805SOL    HW272204   3.643   1.265   6.707  0.0223 -0.9596 -0.9067
22806SOL     OW72205   4.851   4.076   3.143  0.1210 -0.3978  0.1453
22806SOL    HW172206   4.783   4.008   3.138 -0.9110  0.5732  0.6574
22806SOL    HW272207   4.823   4.142   3.079  1.5766 -0.8126 -0.9887
22807SOL     OW72208   5.120   8.039   0.613 -0.1054 -0.4416 -0.0113
22807SOL    HW172209   5.101   7.961   0.664  0.2573  1.0738  2.6652
22807SOL    HW272210   5.129   8.109   0.679  0.3085  1.7060 -2.1953
22808SOL     OW72211   6.230   4.274   8.742  0.3402 -0.0526  0.2228
22808SOL    HW172212   6.218   4.221   8.821  1.1341 -1.6835 -0.6931
22808SOL    HW272213   6.158   4.247   8.685  0.5627  0.0996 -0.1295
22809SOL     OW72214   0.904   4.030   4.391  0.5541  0.5702 -0.1611
22809SOL    HW172215   0.960   4.075   4.455  1.8509 -1.2379  0.0353
22809SOL    HW272216   0.965   3.979   4.338 -0.7038  0.4678 -1.5613
22810SOL     OW72217   6.249  10.273   6.625  0.7078  0.2254  0.4348
22810SOL    HW172218   6.271  10.303   6.714  0.9204  1.7545 -0.1044
22810SOL    HW272219   6.302  10.329   6.568 -0.4068  0.1419 -0.7005
22811SOL     OW72220   7.850   8.378   9.245 -0.3858 -0.2751 -0.4810
22811SOL    HW172221   7.854   8.467   9.278 -1.4729  0.2451 -1.6752
22811SOL    HW272222   7.757   8.355   9.250 -0.2156 -1.0698 -0.8779
22812SOL     OW72223   1.904   1.948   7.928  0.1634  0.6494 -0.2052
22812SOL    HW172224   1.820   1.940   7.973  0.0932  1.1668 -0.2428
22812SOL    HW272225   1.931   2.039   7.942  0.4701  0.6270 -0.6263
22813SOL     OW72226   5.258   6.652   9.283  0.2501  0.1768 -0.0221
22813SOL    HW172227   5.223   6.711   9.349  0.8681 -1.1528  1.5683
22813SOL    HW272228   5.182   6.631   9.227 -0.6150  0.2973  1.0663
22814SOL     OW72229   2.631   1.914   8.478 -0.4084 -0.3059 -0.2165
22814SOL    HW172230   2.639   1.832   8.429  0.4542 -1.0353  1.0971
22814SOL    HW272231   2.721   1.944   8.490 -0.4137 -1.1446  2.5144
22815SOL     OW72232   4.313   8.129   2.465 -0.8494  0.0781 -0.1477
22815SOL    HW172233   4.385   8.080   2.507  0.6140  0.4790 -2.0479
22815SOL    HW272234   4.289   8.075   2.390 -1.3494  0.7893 -0.5035
22816SOL     OW72235   3.714   6.444   9.054 -0.5218  0.0863 -0.4867
22816SOL    HW172236   3.644   6.402   9.003  1.0788 -0.9016 -1.9561
22816SOL    HW272237   3.756   6.371   9.100  0.1343  0.5402 -0.3601
22817SOL     OW72238   9.416   3.926   2.615  0.1163 -0.2387  0.1590
22817SOL    HW172239   9.429   3.840   2.654 -2.3938 -0.2133  1.2795
22817SOL    HW272240   9.336   3.960   2.657  0.2802  2.0758 -1.1945
22818SOL     OW72241   9.988   4.304   1.900  0.0725  0.2963  0.4902
22818SOL    HW172242   9.913   4.364   1.899  0.5226  0.9456  2.1159
22818SOL    HW272243  10.063   4.361   1.918  1.3691 -0.0089 -3.2063
22819SOL     OW72244   0.312   6.337   1.845  0.2265 -0.4348 -0.5750
22819SOL    HW172245   0.372   6.402   1.881  1.3055 -1.3701 -0.6268
22819SOL    HW272246   0.230   6.385   1.831 -0.3884  0.0041  3.3112
22820SOL     OW72247   4.547   7.615   0.572 -0.1504 -0.8650  0.2870
22820SOL    HW172248   4.547   7.711   0.570 -1.0735 -0.8523  0.6459
22820SOL    HW272249   4.489   7.593   0.645 -1.1312 -1.7123 -0.7326
22821SOL     OW72250   9.067   8.280   6.993  0.3370  0.2115  0.6178
22821SOL    HW172251   8.992   8.235   6.954 -0.1489  2.8580 -1.8116
22821SOL    HW272252   9.035   8.310   7.079 -0.5197 -0.7899  0.6751
22822SOL     OW72253   9.072   3.913   1.698  0.9755 -0.2910  0.3419
22822SOL    HW172254   9.117   3.997   1.712  1.6472  0.1296 -3.1809
22822SOL    HW272255   8.987   3.923   1.740  1.6222  1.5706  1.3154
22823SOL     OW72256   8.382   4.790   8.395 -0.7360 -0.0337 -0.0552
22823SOL    HW172257   8.442   4.723   8.428 -0.0238  0.0785 -1.0803
22823SOL    HW272258   8.295   4.761   8.424 -0.3630 -1.0317  0.1010
22824SOL     OW72259   1.160   1.204  10.131 -0.6061  0.6306 -0.2398
22824SOL    HW172260   1.148   1.112  10.155  0.3870  0.8898  1.4277
22824SOL    HW272261   1.255   1.214  10.124 -0.7081  1.5402 -0.3808
22825SOL     OW72262   5.290   7.899   9.718  0.2101 -0.3529 -0.6779
22825SOL    HW172263   5.309   7.808   9.695  2.1208  0.0675 -0.9005
22825SOL    HW272264   5.314   7.905   9.811  0.2233 -0.0326 -0.7031
22826SOL     OW72265   0.921   7.098  10.132 -0.4001  0.1191  0.2234
22826SOL    HW172266   0.935   7.158  10.206 -1.1987  0.7449 -0.1188
22826SOL    HW272267   0.851   7.039  10.162 -0.4529  0.1237  0.1105
22827SOL     OW72268   1.217   5.989   9.517 -0.2092 -0.7152  0.0916
22827SOL    HW172269   1.223   6.061   9.579 -0.5053 -0.5598 -0.0538
22827SOL    HW272270   1.291   6.001   9.458  0.8809 -1.6487  1.2225
22828SOL     OW72271   1.347   6.037   5.294 -0.3668  0.3529  0.2552
22828SOL    HW172272   1.416   5.982   5.330 -0.6556 -0.0301  0.2296
22828SOL    HW272273   1.314   6.088   5.368 -0.6375 -0.0875  0.4396
22829SOL     OW72274   7.602   8.272   7.391  0.7372 -0.1163 -0.2262
22829SOL    HW172275   7.645   8.238   7.470  1.6588  0.1898 -0.5822
22829SOL    HW272276   7.661   8.341   7.360 -0.3504  0.7884 -0.3576
22830SOL     OW72277   2.102  10.306   0.297 -0.1638 -0.2934  0.8928
22830SOL    HW172278   2.158  10.236   0.329 -0.6587 -0.2240  1.9528
22830SOL    HW272279   2.015  10.286   0.331 -0.4017  0.6007  0.8483
22831SOL     OW72280   6.197   1.088   4.649  0.1183 -0.4843  0.8734
22831SOL    HW172281   6.216   1.006   4.695 -0.7286  1.5594  5.3598
22831SOL    HW272282   6.108   1.077   4.614  1.4526 -2.7489 -2.2964
22832SOL     OW72283   2.036   6.379  10.157  0.2365  0.1060 -0.2490
22832SOL    HW172284   2.058   6.303  10.104  0.6007 -0.8071  1.1654
22832SOL    HW272285   2.112   6.392  10.213 -0.1812  0.9863  0.1372
22833SOL     OW72286   7.039   0.951   6.664 -0.1568 -0.2946  0.5406
22833SOL    HW172287   7.013   1.018   6.728 -0.3287 -1.3961  1.6614
22833SOL    HW272288   7.082   0.883   6.717  0.5639 -0.7919 -0.6521
22834SOL     OW72289   5.173   2.857  10.181 -0.1525 -0.1360  0.1163
22834SOL    HW172290   5.112   2.925  10.208 -1.7105 -1.2557 -0.4106
22834SOL    HW272291   5.152   2.842  10.088 -0.6362 -2.0836  0.5019
22835SOL     OW72292   7.574   9.477   3.020 -0.3055  0.1816  0.3077
22835SOL    HW172293   7.612   9.527   3.091 -3.2573  0.6804  1.6627
22835SOL    HW272294   7.530   9.542   2.965 -0.8060 -0.5368 -0.1605
22836SOL     OW72295   7.383   7.995   1.997  0.0284 -0.4362  0.4920
22836SOL    HW172296   7.380   8.039   1.913 -0.9496 -1.9532 -0.3145
22836SOL    HW272297   7.477   7.981   2.013  0.2676  0.6173  0.0914
22837SOL     OW72298   5.003   5.562   6.611  0.0810 -0.4039  0.0818
22837SOL    HW172299   4.963   5.491   6.561 -0.0573 -0.8469  0.8074
22837SOL    HW272300   4.930   5.604   6.656  0.0201  0.8996 -1.1849
22838SOL     OW72301   5.464   2.810   9.605 -0.4268 -0.0327  0.0403
22838SOL    HW172302   5.435   2.723   9.579 -0.4191 -0.0827  0.1987
22838SOL    HW272303   5.468   2.807   9.700  2.0139 -0.6642 -0.0083
22839SOL     OW72304   6.269   5.077   9.553 -0.0371 -0.0603 -0.1067
22839SOL    HW172305   6.255   5.041   9.465 -0.6203 -1.4053  0.5116
22839SOL    HW272306   6.357   5.050   9.577  0.7015  1.5797 -0.8366
22840SOL     OW72307   5.695   0.420   1.825 -0.7992  0.0659  0.1476
22840SOL    HW172308   5.766   0.475   1.791 -1.8295  0.0959 -2.0981
22840SOL    HW272309   5.639   0.480   1.873 -0.1527  0.3279  0.5934
22841SOL     OW72310   9.137   2.833   0.184 -0.0820  0.1807  0.7315
22841SOL    HW172311   9.145   2.914   0.234  0.7493  0.3370  0.3590
22841SOL    HW272312   9.168   2.765   0.244  0.5231  0.3158  0.5760
22842SOL     OW72313   8.679   0.889  10.106  0.4811  0.5307  0.4327
22842SOL    HW172314   8.597   0.891  10.155  0.5628 -1.5385  0.7666
22842SOL    HW272315   8.696   0.980  10.084 -1.5464  1.0969  0.9427
22843SOL     OW72316   1.714   2.202   8.210  0.1929  0.0981  0.4265
22843SOL    HW172317   1.635   2.211   8.157  0.6204  0.8131 -0.1151
22843SOL    HW272318   1.690   2.142   8.280 -0.4420 -0.7157 -0.4716
22844SOL     OW72319   4.563   3.836   8.402  0.1261  0.1695  0.0987
22844SOL    HW172320   4.656   3.833   8.382 -0.1150  0.1539 -1.0611
22844SOL    HW272321   4.534   3.745   8.396  0.2424  0.0098  1.5691
22845SOL     OW72322   8.739   0.254   3.906  0.3812 -0.3655  0.9105
22845SOL    HW172323   8.665   0.205   3.869  0.4113 -0.3152  0.7856
22845SOL    HW272324   8.720   0.346   3.886  0.8813 -0.4136  0.1555
22846SOL     OW72325   2.233   6.137   9.349  0.1976 -0.3459  0.5301
22846SOL    HW172326   2.142   6.110   9.361 -0.0190 -2.0761 -3.3369
22846SOL    HW272327   2.284   6.064   9.384  0.0801  0.0848  1.6193
22847SOL     OW72328   0.409   8.839   2.645  0.5830  0.0224 -0.2566
22847SOL    HW172329   0.486   8.843   2.589  0.5198 -0.3578 -0.3717
22847SOL    HW272330   0.393   8.746   2.658  0.9603  0.0938  0.8895
22848SOL     OW72331   5.364   6.017   9.774  0.2194 -0.2329 -0.8668
22848SOL    HW172332   5.439   5.980   9.819  1.0355  0.6565 -1.4455
22848SOL    HW272333   5.288   5.981   9.819  0.8660  2.7483  3.2379
22849SOL     OW72334   2.142   6.377   1.456 -0.2576 -0.1729 -0.7708
22849SOL    HW172335   2.046   6.378   1.455 -0.3929  0.7791  2.6143
22849SOL    HW272336   2.166   6.320   1.382 -3.4420 -1.6621 -0.8211
22850SOL     OW72337   6.301   9.739   4.319  0.0076 -0.0237 -0.1094
22850SOL    HW172338   6.357   9.719   4.244 -0.7091  1.8503 -1.2131
22850SOL    HW272339   6.340   9.690   4.392 -0.3453 -3.4442 -2.0125
22851SOL     OW72340   5.362   5.122   8.628 -0.0467  0.0038 -0.2323
22851SOL    HW172341   5.428   5.116   8.698 -0.2797 -1.7831 -0.1125
22851SOL    HW272342   5.289   5.171   8.668 -0.9607 -2.5698  1.5100
22852SOL     OW72343   3.673   1.337   9.582  1.1910 -0.4137  0.0078
22852SOL    HW172344   3.706   1.303   9.666 -1.8717  0.0357  1.5211
22852SOL    HW272345   3.624   1.264   9.544 -0.3632  0.4071  0.3629
22853SOL     OW72346   5.378   4.827   1.579 -0.5438  0.5962  0.1500
22853SOL    HW172347   5.474   4.826   1.582 -0.5357  1.6305  1.8721
22853SOL    HW272348   5.352   4.760   1.643 -0.9296  1.4802  0.9401
22854SOL     OW72349  10.214   3.516   7.788  0.7630 -0.1073 -0.0206
22854SOL    HW172350  10.224   3.581   7.719  2.0659  0.4804  0.6719
22854SOL    HW272351  10.277   3.543   7.855 -1.0746 -0.1014  1.8207
22855SOL     OW72352   0.065   8.199   6.092  0.1133 -0.1631  0.3050
22855SOL    HW172353   0.099   8.110   6.100 -0.1177 -0.4605 -1.5701
22855SOL    HW272354   0.126   8.242   6.032 -1.4661 -0.0187 -1.2745
22856SOL     OW72355   0.013   0.703  10.287 -0.4299  0.6610 -0.4268
22856SOL    HW172356   0.068   0.672  10.215 -1.7807 -0.1871 -1.1345
22856SOL    HW272357  -0.072   0.718  10.247 -0.8035  1.6558  0.7031
22857SOL     OW72358   1.509   7.475   5.111  0.3292 -0.6891  0.2101
22857SOL    HW172359   1.584   7.529   5.134 -0.2185 -0.2446  1.0126
22857SOL    HW272360   1.504   7.410   5.181  0.0598 -0.8223  0.0688
22858SOL     OW72361   7.141   2.294   4.849  0.2400 -0.4522 -0.1202
22858SOL    HW172362   7.128   2.205   4.881 -0.0937 -0.1857  0.5225
22858SOL    HW272363   7.178   2.341   4.924  1.3023 -0.2741 -0.7501
22859SOL     OW72364   2.099   8.273   6.188 -0.0561  0.0462  0.0699
22859SOL    HW172365   2.050   8.344   6.147 -0.7262 -1.2703 -1.5351
22859SOL    HW272366   2.080   8.281   6.281  0.4528  2.3652  0.0389
22860SOL     OW72367   5.519   3.847   9.640  0.0316 -0.3788  0.1656
22860SOL    HW172368   5.607   3.813   9.652  0.6755  0.0813 -2.5590
22860SOL    HW272369   5.523   3.937   9.672  0.7479 -0.1841 -0.4382
22861SOL     OW72370   1.046   0.068   2.713 -0.7181 -0.1805  0.0964
22861SOL    HW172371   1.106   0.001   2.749  0.8023  1.3716  0.5812
22861SOL    HW272372   1.020   0.120   2.789  0.4945  1.5675 -0.6280
22862SOL     OW72373  10.211  10.019   8.331  0.3671 -0.4204 -0.5959
22862SOL    HW172374  10.145  10.075   8.291  1.9740  1.1130 -1.2619
22862SOL    HW272375  10.238  10.066   8.410  1.5486 -0.3312 -1.0235
22863SOL     OW72376   2.540   0.088   2.324 -0.0040 -0.4149  0.0355
22863SOL    HW172377   2.510   0.163   2.273 -2.8838 -0.6134  1.2676
22863SOL    HW272378   2.615   0.054   2.275  0.7638  2.5906 -1.1234
22864SOL     OW72379   9.523   6.132   1.370  0.9204  0.5285 -0.0158
22864SOL    HW172380   9.607   6.171   1.346  1.1245  0.2343  0.2113
22864SOL    HW272381   9.458   6.186   1.324  1.2675  0.3274 -0.7643
22865SOL     OW72382   3.734   6.947   8.986 -0.0131  0.0404 -0.1085
22865SOL    HW172383   3.744   6.860   9.024  0.5154 -0.4399 -1.3116
22865SOL    HW272384   3.706   6.931   8.896 -0.9958  1.1483 -0.0312
22866SOL     OW72385   0.891   6.505   7.217  0.2942  0.2196 -0.4903
22866SOL    HW172386   0.920   6.596   7.219  1.1710 -0.0137 -1.3388
22866SOL    HW272387   0.816   6.506   7.157  2.5901 -0.1270 -3.6761
22867SOL     OW72388   3.730   2.393   0.456 -0.1110  0.2294 -0.1752
22867SOL    HW172389   3.709   2.409   0.548  4.0591  1.6250  0.7433
22867SOL    HW272390   3.679   2.459   0.409 -1.8355 -0.0859  1.1137
22868SOL     OW72391   1.935   4.097   0.719  0.1198  0.2302  0.5943
22868SOL    HW172392   1.905   4.024   0.665 -2.2895  2.1968 -0.9813
22868SOL    HW272393   2.030   4.093   0.715  0.0318 -1.1715 -1.8308
22869SOL     OW72394  10.004   9.617   4.506 -0.6672  0.2112  0.0582
22869SOL    HW172395   9.977   9.653   4.421  0.4044  0.6597 -0.1110
22869SOL    HW272396  10.076   9.674   4.534  0.3405 -1.1508  0.3186
22870SOL     OW72397   5.027   0.284   6.748 -0.2131 -0.4822  0.5101
22870SOL    HW172398   4.945   0.236   6.756  0.1037 -0.9194  1.2992
22870SOL    HW272399   5.095   0.216   6.751  0.1923 -0.1006  0.1890
22871SOL     OW72400   6.401   3.516   2.689 -0.2907 -0.1908 -0.0432
22871SOL    HW172401   6.494   3.516   2.712 -0.5533  0.2305  1.0653
22871SOL    HW272402   6.396   3.462   2.609  0.8177 -0.6841  0.2030
22872SOL     OW72403   2.068   8.741   2.445 -0.0487  0.3466  0.2077
22872SOL    HW172404   2.004   8.775   2.383  1.5871  2.7576 -0.3051
22872SOL    HW272405   2.025   8.666   2.485 -1.9341 -0.0843 -2.3786
22873SOL     OW72406   0.243   6.205   8.272 -0.5355 -0.5451  0.0022
22873SOL    HW172407   0.194   6.286   8.264 -2.0656 -1.2186  1.8525
22873SOL    HW272408   0.192   6.151   8.333  3.4698 -0.4834  3.9464
22874SOL     OW72409   3.727   1.528   5.934  0.3376  0.2366 -0.2802
22874SOL    HW172410   3.777   1.601   5.898 -0.8159  1.6329  0.8276
22874SOL    HW272411   3.635   1.550   5.916  0.0105 -1.9677 -1.7416
22875SOL     OW72412   1.642   2.211   6.467 -0.1768 -0.0894 -0.0802
22875SOL    HW172413   1.574   2.258   6.515 -1.9645 -0.8682 -1.7320
22875SOL    HW272414   1.690   2.280   6.420 -1.6553  0.2528 -1.1253
22876SOL     OW72415   0.544   5.222   6.247  0.3236 -0.5978  0.2841
22876SOL    HW172416   0.550   5.317   6.246  2.0684 -0.6315 -2.3271
22876SOL    HW272417   0.467   5.202   6.193 -2.3273 -0.7435  3.7908
22877SOL     OW72418   5.350   5.741   1.187  0.1458  0.1008 -0.3019
22877SOL    HW172419   5.365   5.700   1.103 -1.0048 -1.2463  0.1136
22877SOL    HW272420   5.345   5.835   1.167  1.2283 -0.0650 -1.4990
22878SOL     OW72421   3.588   4.074   7.212  0.4683  0.1589  0.1023
22878SOL    HW172422   3.676   4.037   7.213  0.9904  1.3587  0.2499
22878SOL    HW272423   3.547   4.037   7.134  1.0091 -0.6099  0.1749
22879SOL     OW72424   5.986   5.835   6.373  0.5750  0.4722  0.4269
22879SOL    HW172425   6.076   5.809   6.357  0.2115 -0.1819 -0.6214
22879SOL    HW272426   5.983   5.855   6.467  1.1105 -2.3151  1.1150
22880SOL     OW72427   5.899   9.717   0.839  0.0676 -0.6053 -0.3818
22880SOL    HW172428   5.989   9.730   0.867  0.8105 -1.0068 -2.4208
22880SOL    HW272429   5.855   9.799   0.863  1.9733  1.3454 -2.9310
22881SOL     OW72430   9.044   9.929   6.669 -0.4335  0.2558 -0.2656
22881SOL    HW172431   9.136   9.910   6.650 -0.7058 -0.4879 -0.9111
22881SOL    HW272432   9.006   9.844   6.689 -1.0186  0.5390 -0.1666
22882SOL     OW72433   8.647   6.604   4.162 -0.3546 -0.0457 -0.6431
22882SOL    HW172434   8.618   6.587   4.252  1.6745 -0.8331 -0.0687
22882SOL    HW272435   8.570   6.589   4.108 -1.3183 -0.7457  0.8783
22883SOL     OW72436   9.603  10.322   3.718 -0.2817 -0.0874  0.1910
22883SOL    HW172437   9.544  10.379   3.766  1.2628  0.8764  1.0310
22883SOL    HW272438   9.595  10.237   3.761 -1.5340 -0.1613 -0.1506
22884SOL     OW72439   9.025   3.940   8.935 -0.5411  0.1907  0.1152
22884SOL    HW172440   8.976   3.863   8.905 -0.8701  0.0399  1.0241
22884SOL    HW272441   9.067   3.973   8.856  0.3174 -1.4280 -0.1599
22885SOL     OW72442   2.862   0.953   9.796  0.4007 -0.5292  0.2274
22885SOL    HW172443   2.833   0.939   9.706 -1.6293 -2.0937  1.0418
22885SOL    HW272444   2.923   1.026   9.791 -0.3500  0.0051 -2.2778
22886SOL     OW72445   8.587   8.700   5.872  0.1372  0.3975 -0.4939
22886SOL    HW172446   8.587   8.689   5.777 -2.8944 -3.4208 -0.2914
22886SOL    HW272447   8.498   8.730   5.892  0.1702 -0.5395  1.2224
22887SOL     OW72448   1.191   5.122   3.948 -0.2663  0.3757  1.1317
22887SOL    HW172449   1.171   5.083   4.033  1.4169 -0.0650  1.3540
22887SOL    HW272450   1.189   5.217   3.964 -1.5827  0.3470  1.2501
22888SOL     OW72451   7.730   3.158   0.839  0.1084  0.5283  0.2477
22888SOL    HW172452   7.759   3.192   0.924  0.6315  1.7925 -0.4102
22888SOL    HW272453   7.772   3.215   0.775 -3.0508  1.8362 -0.8031
22889SOL     OW72454   9.571   8.966   7.691 -0.6405  0.2296  1.0329
22889SOL    HW172455   9.569   9.056   7.657  0.2112 -1.0392 -2.7997
22889SOL    HW272456   9.662   8.938   7.680 -1.0430 -1.3686  1.5162
22890SOL     OW72457   4.249   2.615   1.885 -0.1024  0.4461  0.1371
22890SOL    HW172458   4.261   2.521   1.871  0.5566  0.5616 -0.1052
22890SOL    HW272459   4.234   2.651   1.798 -0.8589  0.5014  0.2856
22891SOL     OW72460   2.057   1.528   0.085  0.0495  0.3264  0.0456
22891SOL    HW172461   2.046   1.514   0.180  0.1698 -0.3723 -0.0412
22891SOL    HW272462   1.970   1.511   0.049  0.4411 -1.3802 -0.1889
22892SOL     OW72463   9.371   1.146   8.990 -0.3273  0.6527  0.3819
22892SOL    HW172464   9.371   1.053   8.967 -1.3197  0.4287  1.2585
22892SOL    HW272465   9.290   1.159   9.038 -0.6000  2.1553 -0.4204
22893SOL     OW72466  10.321   0.267   1.863 -0.4047 -0.3042 -0.6351
22893SOL    HW172467  10.403   0.314   1.878  0.4587 -1.9656  0.1572
22893SOL    HW272468  10.305   0.275   1.769  0.7733 -0.1245 -0.8321
22894SOL     OW72469   3.368   7.041   2.994  0.1410 -0.6211 -0.0920
22894SOL    HW172470   3.411   7.057   3.078  0.1609  1.3901 -0.4451
22894SOL    HW272471   3.299   6.978   3.014 -0.6616  0.7294  1.7031
22895SOL     OW72472   6.452   8.019   3.485  0.0349  0.1711 -0.0907
22895SOL    HW172473   6.506   8.053   3.414  0.0805  1.8609  0.6854
22895SOL    HW272474   6.511   8.013   3.560  0.0499 -1.8433 -0.2303
22896SOL     OW72475   8.589   4.718   7.293  0.7469 -0.4302  0.0087
22896SOL    HW172476   8.519   4.771   7.255  1.1436 -0.5554 -0.9284
22896SOL    HW272477   8.576   4.725   7.388 -1.1036 -1.2390 -0.1510
22897SOL     OW72478   2.693   0.265   1.821  0.5718 -0.3940 -0.0007
22897SOL    HW172479   2.719   0.173   1.825  0.5487 -0.4000  0.0133
22897SOL    HW272480   2.685   0.292   1.912  1.0298 -0.2485 -0.0030
22898SOL     OW72481   1.605   3.729   3.281 -0.3358 -0.0059  0.3121
22898SOL    HW172482   1.592   3.720   3.186  0.4794 -0.7985  0.2524
22898SOL    HW272483   1.692   3.767   3.290 -0.2298 -0.3411  0.7466
22899SOL     OW72484   0.422   6.432   7.502  0.1850 -0.0121  0.1763
22899SOL    HW172485   0.389   6.365   7.561  0.5638  0.7286  1.2584
22899SOL    HW272486   0.514   6.410   7.489  0.0309 -0.3437 -0.3951
22900SOL     OW72487   4.071   5.320   0.236  0.2278 -0.0642 -0.3727
22900SOL    HW172488   4.115   5.321   0.151  0.9752 -1.8601 -0.0479
22900SOL    HW272489   4.139   5.295   0.298  0.1199  2.9077  1.0785
22901SOL     OW72490   4.107  10.058   8.057  0.3470  0.0783 -0.2934
22901SOL    HW172491   4.057  10.140   8.058  1.9319  1.1175 -1.5027
22901SOL    HW272492   4.117  10.037   7.964  0.2961 -1.2891 -0.0055
22902SOL     OW72493   6.031   1.913   1.450 -0.3175 -0.0077 -0.2279
22902SOL    HW172494   6.125   1.904   1.435 -0.1320 -0.3910  1.0005
22902SOL    HW272495   6.008   1.836   1.502 -1.4145 -0.1572 -0.9042
22903SOL     OW72496  10.097   8.528   9.234  0.5482 -0.5760  0.0535
22903SOL    HW172497  10.089   8.494   9.145  0.3138 -0.0075 -0.1455
22903SOL    HW272498  10.052   8.463   9.289 -0.4220 -0.2966 -0.3927
22904SOL     OW72499   0.590   2.515   6.102 -0.4831  0.0252 -0.1914
22904SOL    HW172500   0.543   2.439   6.134 -0.4431  0.7552  1.6997
22904SOL    HW272501   0.524   2.585   6.097 -0.0939  0.4316  0.2059
22905SOL     OW72502   3.312   9.935   2.523  0.1004 -0.0412 -0.5032
22905SOL    HW172503   3.233   9.913   2.473  0.1047 -1.6848  0.1483
22905SOL    HW272504   3.322  10.029   2.512 -3.7003  0.8344  1.8056
22906SOL     OW72505   6.851   2.463   0.029  0.0783  0.0319 -0.2076
22906SOL    HW172506   6.870   2.557   0.028 -0.1367  0.0766 -0.9887
22906SOL    HW272507   6.934   2.422   0.052 -0.0554  0.4548  1.0785
22907SOL     OW72508   4.604   0.262   4.806 -0.0072 -0.4945  0.5071
22907SOL    HW172509   4.692   0.265   4.844 -0.5020 -0.7703  1.7202
22907SOL    HW272510   4.619   0.272   4.712  1.1235  2.8719  0.8770
22908SOL     OW72511   0.716   9.493   4.086  0.6087  0.0643 -0.2499
22908SOL    HW172512   0.792   9.525   4.039  0.7100 -0.7799 -0.6860
22908SOL    HW272513   0.643   9.505   4.026  0.9394 -2.2406 -1.2158
22909SOL     OW72514   6.710   1.832   4.963 -0.7382  0.2745 -0.5951
22909SOL    HW172515   6.658   1.783   4.899 -0.8553 -0.0691 -0.2406
22909SOL    HW272516   6.769   1.767   5.000  0.9004  0.9214 -1.9552
22910SOL     OW72517   6.177   5.929  10.238 -0.1019 -0.1122 -0.2356
22910SOL    HW172518   6.224   5.961  10.315  1.8947  1.5941 -2.0422
22910SOL    HW272519   6.093   5.976  10.240  0.2367  0.4875  0.4848
22911SOL     OW72520   0.912   4.676   3.934 -0.2657 -0.0072 -0.3714
22911SOL    HW172521   0.932   4.587   3.964  1.4902  0.2559 -0.6634
22911SOL    HW272522   0.992   4.705   3.891 -1.6888  0.7562 -2.6606
22912SOL     OW72523   9.176   9.899   4.821 -0.1345 -0.2132  0.1429
22912SOL    HW172524   9.144   9.812   4.796  0.4081 -0.0675 -1.1228
22912SOL    HW272525   9.101   9.957   4.810  0.0626 -0.1764 -1.0625
22913SOL     OW72526   6.751   6.714   6.930 -0.3416  0.2884  0.2260
22913SOL    HW172527   6.804   6.738   6.854  0.3143 -2.5949 -0.3405
22913SOL    HW272528   6.778   6.625   6.951 -1.6497  0.4306  2.8901
22914SOL     OW72529   8.318   0.990   5.421  0.2619  0.1468  0.4759
22914SOL    HW172530   8.282   1.076   5.442  2.5088  0.6605  2.7806
22914SOL    HW272531   8.280   0.931   5.486  0.0591 -0.2534  0.0002
22915SOL     OW72532   9.505   7.351   7.208 -0.5346 -0.4208 -0.2469
22915SOL    HW172533   9.427   7.404   7.195 -0.9511 -0.4673  1.7705
22915SOL    HW272534   9.547   7.388   7.285  1.7672 -0.0532 -1.6080
22916SOL     OW72535   8.954  10.143   2.363  0.3379  0.0847 -0.0505
22916SOL    HW172536   8.933  10.172   2.452  0.2975  0.0132 -0.0364
22916SOL    HW272537   8.968  10.049   2.371  0.2614  0.0659 -0.1322
22917SOL     OW72538   6.656   8.117   4.121  0.1555 -0.0769  0.0165
22917SOL    HW172539   6.731   8.122   4.061  1.3524 -0.7381  1.3921
22917SOL    HW272540   6.682   8.169   4.197 -0.3511 -1.1180  0.9305
22918SOL     OW72541   2.475   0.363   1.333 -0.2078 -0.0474  0.0674
22918SOL    HW172542   2.500   0.386   1.422  1.2840  1.1308 -0.6043
22918SOL    HW272543   2.382   0.344   1.338 -0.7401  2.4935  1.4201
22919SOL     OW72544   8.509   0.867   1.333  0.0812 -0.1410 -0.1902
22919SOL    HW172545   8.441   0.808   1.301  0.0079 -0.7574  1.0437
22919SOL    HW272546   8.542   0.910   1.254 -0.3461 -1.3093 -1.0458
22920SOL     OW72547   7.135   1.820   3.327 -0.4707 -0.4048 -0.0573
22920SOL    HW172548   7.214   1.847   3.373  0.0419 -0.7801 -0.7023
22920SOL    HW272549   7.124   1.884   3.256 -1.6707  0.6106  0.9902
22921SOL     OW72550   5.563   9.835   8.200 -0.1554 -0.5392 -0.6358
22921SOL    HW172551   5.647   9.807   8.162  0.5234 -0.6487  0.8581
22921SOL    HW272552   5.499   9.776   8.161  0.5645 -0.9292 -1.2702
22922SOL     OW72553   8.729   5.106   9.098  0.0515  0.9873 -0.2930
22922SOL    HW172554   8.726   5.069   9.010  1.7250 -0.7255  0.3067
22922SOL    HW272555   8.646   5.077   9.138  0.1796  0.0596 -0.6735
22923SOL     OW72556   9.101   4.679   6.969  0.4868  0.1668 -0.3690
22923SOL    HW172557   9.086   4.609   6.905  1.1865  0.1545 -0.5280
22923SOL    HW272558   9.159   4.640   7.035 -0.0850  0.2333  0.1886
22924SOL     OW72559  10.160   2.784   3.994 -0.0850 -0.0831 -0.6639
22924SOL    HW172560  10.068   2.763   3.980 -0.0125 -1.8747  1.0226
22924SOL    HW272561  10.207   2.705   3.966  0.7682  0.0376  0.3730
22925SOL     OW72562   3.252   2.626   6.980  0.7946 -0.2026 -0.0699
22925SOL    HW172563   3.330   2.662   6.937  0.8657 -1.4293 -1.0138
22925SOL    HW272564   3.272   2.533   6.993 -0.1146 -0.3160  0.6058
22926SOL     OW72565   8.945   8.981   3.761  0.4047  0.1201 -0.2206
22926SOL    HW172566   8.922   9.065   3.720  1.2498 -0.7518 -2.6769
22926SOL    HW272567   8.869   8.960   3.816 -0.6317  1.6396 -0.9938
22927SOL     OW72568   8.802   4.213   9.654 -0.6670 -0.3159  0.9226
22927SOL    HW172569   8.878   4.203   9.598 -0.2282 -0.7722  1.5825
22927SOL    HW272570   8.783   4.307   9.653 -0.0135 -0.1828  0.8628
22928SOL     OW72571   1.048   6.518   4.809  0.4601 -0.5029 -0.4274
22928SOL    HW172572   1.092   6.447   4.856 -0.2106 -1.1974 -0.8131
22928SOL    HW272573   0.959   6.486   4.797 -0.5225  1.3616  1.3683
22929SOL     OW72574   3.550   0.284   5.683  0.2225 -0.1354  0.2782
22929SOL    HW172575   3.550   0.374   5.715  1.3784 -0.7515  2.1166
22929SOL    HW272576   3.604   0.236   5.745 -1.4402 -2.3803  0.1225
22930SOL     OW72577   1.907   6.343   5.330  0.2448  0.7854  0.0545
22930SOL    HW172578   1.907   6.386   5.244 -0.0436 -0.0360 -0.3629
22930SOL    HW272579   1.815   6.320   5.345  0.1284  1.7479  1.0174
22931SOL     OW72580   2.920   0.425   7.222  0.0646 -0.2923  0.3415
22931SOL    HW172581   2.908   0.439   7.316 -1.4358 -1.1994  0.3155
22931SOL    HW272582   2.831   0.428   7.186  0.5346 -0.8503 -0.9144
22932SOL     OW72583   4.114   4.995   7.131 -0.0518 -0.1832 -0.4377
22932SOL    HW172584   4.160   5.012   7.214 -0.9194  1.3137 -0.2225
22932SOL    HW272585   4.060   4.919   7.149  1.4165 -1.2370 -0.3234
22933SOL     OW72586   5.137   0.927   0.312 -0.2601 -0.4589  0.1636
22933SOL    HW172587   5.147   0.965   0.400  0.7493  0.6328 -0.3845
22933SOL    HW272588   5.227   0.913   0.282 -0.5999 -1.2557 -0.5302
22934SOL     OW72589   6.938   4.902   0.080 -0.2533  0.3655  0.4745
22934SOL    HW172590   6.904   4.991   0.087 -0.7270  0.2092  0.1955
22934SOL    HW272591   6.987   4.902  -0.003 -0.7362  0.2118  0.1844
22935SOL     OW72592   2.001   2.780   3.771  0.2634  0.0724 -1.2029
22935SOL    HW172593   1.950   2.700   3.764  1.8554 -0.9288 -1.7074
22935SOL    HW272594   2.041   2.776   3.858  0.8140  0.0348 -1.4572
22936SOL     OW72595   9.179   7.388  10.148  1.2313  0.0914 -0.5929
22936SOL    HW172596   9.200   7.469  10.195 -1.2825  1.3831 -1.5146
22936SOL    HW272597   9.173   7.322  10.216 -1.4140  1.7294  0.9411
22937SOL     OW72598   6.214   8.229   3.418  0.2351  0.2867 -0.2685
22937SOL    HW172599   6.252   8.225   3.330  0.8284  0.3536 -0.0213
22937SOL    HW272600   6.259   8.160   3.467 -0.1603  0.1858 -0.0429
22938SOL     OW72601   5.904   7.438   9.607 -0.4476 -0.0122  0.4656
22938SOL    HW172602   5.813   7.408   9.614 -0.8582  1.0392 -0.1516
22938SOL    HW272603   5.911   7.508   9.671 -0.2021  0.2114  0.1967
22939SOL     OW72604   1.400   7.661   0.036  0.1304  0.2640  0.2366
22939SOL    HW172605   1.363   7.637   0.121  0.8258  1.5121  0.9199
22939SOL    HW272606   1.424   7.753   0.046  0.5361  0.3296 -1.2079
22940SOL     OW72607   0.264   1.454   3.125  0.6154 -0.0223  0.5507
22940SOL    HW172608   0.242   1.536   3.080  0.6291 -0.2676  0.0881
22940SOL    HW272609   0.340   1.420   3.078  0.6694 -0.2544  0.8007
22941SOL     OW72610   1.645   0.867   1.296  0.4825 -0.5431 -0.1732
22941SOL    HW172611   1.693   0.944   1.328 -0.2351  0.1069 -0.6359
22941SOL    HW272612   1.701   0.832   1.226  1.4908 -1.2905  0.9574
22942SOL     OW72613   1.570   6.996   3.841 -0.1150 -0.1889 -0.1375
22942SOL    HW172614   1.565   6.903   3.862  0.0597 -0.1244  0.1757
22942SOL    HW272615   1.535   7.040   3.918  1.7073  0.1069  0.5478
22943SOL     OW72616   0.544   8.491   4.948  0.0914 -0.4686 -0.2251
22943SOL    HW172617   0.554   8.469   5.040 -1.3490  1.9775  0.6164
22943SOL    HW272618   0.483   8.425   4.914 -0.7497 -0.3832  1.0541
22944SOL     OW72619   1.268   3.937   3.434 -0.1180  0.0989  0.2941
22944SOL    HW172620   1.358   3.962   3.414 -0.1774 -1.1754 -1.8991
22944SOL    HW272621   1.214   3.988   3.373 -0.9795  1.3632  2.0447
22945SOL     OW72622  10.021   3.656   4.289 -0.2153 -0.5125 -0.1491
22945SOL    HW172623  10.090   3.688   4.231 -2.1997 -1.3637 -3.2045
22945SOL    HW272624  10.065   3.594   4.347  1.9177  0.5387 -0.5663
22946SOL     OW72625   4.868   2.014   0.244  0.1572 -0.3023  0.1907
22946SOL    HW172626   4.872   2.019   0.339 -0.8953 -1.1332  0.2925
22946SOL    HW272627   4.960   2.006   0.217  0.4644 -0.0518  1.1271
22947SOL     OW72628   7.793   3.945   1.245 -0.2258 -0.6708  0.5109
22947SOL    HW172629   7.875   3.989   1.268  0.4892 -1.8179  0.2246
22947SOL    HW272630   7.815   3.852   1.245 -0.7085 -0.8900 -2.6485
22948SOL     OW72631   3.074   3.791   0.847  0.3958 -0.2668 -0.0388
22948SOL    HW172632   3.141   3.834   0.794  2.0678 -0.2255  1.9409
22948SOL    HW272633   3.041   3.860   0.904  0.7305 -0.8537  0.9015
22949SOL     OW72634   1.818   9.886   8.234 -0.1038 -0.3278  0.0958
22949SOL    HW172635   1.753   9.834   8.282 -0.2285 -0.4806 -0.2350
22949SOL    HW272636   1.766   9.954   8.191 -0.0436 -0.4468 -0.1650
22950SOL     OW72637   5.041   6.743   9.704 -0.1354  0.8432  0.8283
22950SOL    HW172638   5.080   6.830   9.694 -0.2849  1.0611  1.9917
22950SOL    HW272639   4.986   6.750   9.782 -0.3578 -0.2228  0.7846
22951SOL     OW72640   7.509   5.676   0.998 -0.2294  0.1473  0.1243
22951SOL    HW172641   7.429   5.680   1.052  0.0884 -0.9207  0.7031
22951SOL    HW272642   7.492   5.738   0.927 -1.3770  0.3069  0.5005
22952SOL     OW72643   1.095   1.651   3.675  0.2437 -0.0107  0.0101
22952SOL    HW172644   1.004   1.626   3.659  0.9084 -1.1696 -2.4084
22952SOL    HW272645   1.097   1.674   3.768 -2.2133 -1.2716  0.4705
22953SOL     OW72646   4.070   2.742   3.892  0.3823  0.0612 -0.3947
22953SOL    HW172647   4.044   2.697   3.812  0.2581  0.9735 -0.8826
22953SOL    HW272648   4.031   2.829   3.885  0.5968  0.2483  0.5311
22954SOL     OW72649   6.058   3.683   6.981 -0.0369 -0.1458  0.2048
22954SOL    HW172650   6.007   3.682   6.900 -0.7812  1.2362  0.6186
22954SOL    HW272651   6.148   3.696   6.953 -0.1017 -0.9917 -0.4529
22955SOL     OW72652   9.428   4.418   8.023  0.0487  0.2494  0.0426
22955SOL    HW172653   9.387   4.337   8.055  0.4618  0.6403  1.6549
22955SOL    HW272654   9.358   4.462   7.975 -0.3052 -0.8609 -0.4960
22956SOL     OW72655   3.463   5.440   3.605 -0.2142  0.2154  0.0364
22956SOL    HW172656   3.407   5.486   3.667 -0.4187  0.0671 -0.0392
22956SOL    HW272657   3.423   5.353   3.595 -2.1794  1.2846 -2.8674
22957SOL     OW72658   2.503   9.736   7.868 -0.5842  0.4447 -0.2448
22957SOL    HW172659   2.451   9.791   7.811 -0.8208  0.3103 -0.1586
22957SOL    HW272660   2.444   9.665   7.895 -0.0183 -0.3908 -1.1244
22958SOL     OW72661   6.959   1.265   3.139  0.0537  0.1387 -0.3149
22958SOL    HW172662   6.918   1.180   3.122  1.6319 -0.5013 -1.1042
22958SOL    HW272663   6.897   1.310   3.196 -0.5659 -1.7642  0.6072
22959SOL     OW72664   5.975   4.505   9.875  0.1701 -0.1453  0.3274
22959SOL    HW172665   6.009   4.491   9.963 -0.0068 -1.8256  0.1673
22959SOL    HW272666   5.885   4.471   9.878 -0.2848  0.9653 -0.1799
22960SOL     OW72667   1.600   5.932   6.023  0.0931  0.3877  0.0398
22960SOL    HW172668   1.547   5.855   6.001 -0.1603 -0.2867  2.6635
22960SOL    HW272669   1.541   6.006   6.010 -0.3404 -0.0467 -0.4949
22961SOL     OW72670   4.840   8.744   4.224  0.3972  0.5067  0.0417
22961SOL    HW172671   4.868   8.761   4.314  0.5615  0.6472 -0.0361
22961SOL    HW272672   4.915   8.700   4.184 -0.6317 -2.0793  0.7509
22962SOL     OW72673   5.025   4.602   5.532  0.1418  0.7793 -0.0403
22962SOL    HW172674   4.997   4.511   5.524  0.7915  0.4113  1.4532
22962SOL    HW272675   5.097   4.611   5.470  2.2664 -0.7175  2.0324
22963SOL     OW72676   3.011   2.478   2.659 -0.5094 -0.2314 -0.1780
22963SOL    HW172677   2.983   2.439   2.742  0.1065  1.3949  0.8375
22963SOL    HW272678   2.945   2.448   2.596 -0.7096 -1.9094  0.7583
22964SOL     OW72679   5.266   2.875   4.091  0.0694  0.3122 -0.0674
22964SOL    HW172680   5.180   2.833   4.090 -0.2038  0.8710 -0.1380
22964SOL    HW272681   5.320   2.819   4.036 -0.8572  1.2286 -2.0300
22965SOL     OW72682   7.950   9.016   7.678  0.2098  0.3304  0.7591
22965SOL    HW172683   7.993   9.026   7.592 -0.1505  1.2388  0.6651
22965SOL    HW272684   7.958   8.923   7.698  0.4955  0.1382 -0.1638
22966SOL     OW72685   8.511   3.257   0.126 -0.4136  0.2693  0.0213
22966SOL    HW172686   8.598   3.286   0.155  0.3266 -2.3102  0.7091
22966SOL    HW272687   8.455   3.267   0.203 -0.4454  0.8047 -0.0659
22967SOL     OW72688   5.266   5.864   6.479 -0.1361 -0.7359 -0.7392
22967SOL    HW172689   5.343   5.894   6.429 -1.9812  0.1833 -3.2698
22967SOL    HW272690   5.277   5.769   6.484  1.3444 -0.5918 -0.7076
22968SOL     OW72691   7.672  10.044   2.779 -0.2885 -0.3423 -0.1032
22968SOL    HW172692   7.618  10.061   2.856 -0.0101  1.8874 -0.3304
22968SOL    HW272693   7.737  10.114   2.778 -1.5993  1.0884 -3.4513
22969SOL     OW72694   3.113   4.457   4.613  0.5888 -0.8096 -0.6443
22969SOL    HW172695   3.155   4.444   4.528 -1.2672 -0.1188 -1.7315
22969SOL    HW272696   3.110   4.369   4.651  0.0437 -1.4134 -2.0076
22970SOL     OW72697   1.325   8.505   9.987  0.4282  0.1866  0.3073
22970SOL    HW172698   1.319   8.424  10.037 -0.0265  0.6541  1.0210
22970SOL    HW272699   1.262   8.564  10.028 -0.3890  0.3996 -1.1773
22971SOL     OW72700   2.491   1.057   2.511 -0.1292 -0.4659 -0.5059
22971SOL    HW172701   2.564   0.995   2.512  0.1482 -0.1449 -0.5312
22971SOL    HW272702   2.531   1.140   2.486 -0.5090 -0.2904 -0.5366
22972SOL     OW72703   5.923   1.891   5.539  0.0445 -0.1161 -0.5703
22972SOL    HW172704   5.906   1.944   5.616 -1.4555 -0.4991 -0.6123
22972SOL    HW272705   5.891   1.803   5.562 -0.5277 -0.2072 -1.6424
22973SOL     OW72706   9.487   4.527   1.919  0.1010  0.5160 -0.2597
22973SOL    HW172707   9.510   4.434   1.925 -0.9762  0.3210  3.6125
22973SOL    HW272708   9.572   4.573   1.919  0.7048 -0.4227  2.7456
22974SOL     OW72709   6.569   0.539   7.792 -0.0757 -0.3539 -0.3486
22974SOL    HW172710   6.494   0.482   7.806  0.3323 -1.0145 -0.7922
22974SOL    HW272711   6.639   0.500   7.844 -0.1609  0.5312  0.4522
22975SOL     OW72712   5.323   6.308   1.605  0.4292 -0.0614 -0.0610
22975SOL    HW172713   5.312   6.250   1.681  2.1474  0.1132  0.3700
22975SOL    HW272714   5.317   6.396   1.641  0.3169  0.0287 -0.2959
22976SOL     OW72715   7.977   0.446   6.058 -0.5204 -0.1697  0.3286
22976SOL    HW172716   7.888   0.447   6.093 -0.0098 -1.3697  1.8058
22976SOL    HW272717   8.015   0.529   6.085 -0.3715 -0.7747  2.0973
22977SOL     OW72718   6.118   1.115   3.541  0.0463 -0.0759 -0.1369
22977SOL    HW172719   6.043   1.110   3.600 -0.0741  0.2994 -0.2556
22977SOL    HW272720   6.122   1.029   3.499  0.4450 -0.5284  0.7960
22978SOL     OW72721   3.168   5.732   2.904 -0.1239 -0.1784  0.9877
22978SOL    HW172722   3.188   5.819   2.939  0.4534  1.2110 -2.3698
22978SOL    HW272723   3.251   5.684   2.909  0.3504  0.5317  0.2123
22979SOL     OW72724   1.318   3.362   2.712  0.0926 -0.2005 -0.1116
22979SOL    HW172725   1.346   3.449   2.738 -0.2532 -0.5541  1.6003
22979SOL    HW272726   1.395   3.307   2.725 -0.3220 -0.5334  1.0838
22980SOL     OW72727   7.589   7.118   4.221 -0.2791  0.5831 -0.0751
22980SOL    HW172728   7.600   7.213   4.221 -1.1326  0.6934  0.9665
22980SOL    HW272729   7.544   7.098   4.303  1.7390 -0.9354  0.7720
22981SOL     OW72730   3.013   7.815   5.036  0.1030 -0.1759 -0.1317
22981SOL    HW172731   3.078   7.885   5.037  2.1317 -1.9065 -1.5147
22981SOL    HW272732   2.997   7.795   5.128  3.5404 -1.3426  0.3460
22982SOL     OW72733   3.110   5.697   6.474 -0.2639  0.4466  0.0028
22982SOL    HW172734   3.022   5.660   6.468  0.0213 -0.3099  0.4073
22982SOL    HW272735   3.095   5.792   6.476 -0.9997  0.3763 -1.0190
22983SOL     OW72736   3.724   4.817   7.837 -0.1139 -0.9949 -0.4394
22983SOL    HW172737   3.687   4.736   7.803  0.1558 -0.2646 -2.6356
22983SOL    HW272738   3.673   4.886   7.794 -1.2185  0.0689  2.3675
22984SOL     OW72739   8.150   6.107   2.783 -0.0744 -0.1939 -0.8588
22984SOL    HW172740   8.181   6.134   2.696 -0.8323 -3.3224 -2.2150
22984SOL    HW272741   8.055   6.105   2.775 -0.2439  0.8501  0.5389
22985SOL     OW72742   1.874   3.502   5.114  0.7570  0.1158  0.3035
22985SOL    HW172743   1.959   3.496   5.158  1.3456  0.2916 -0.7743
22985SOL    HW272744   1.879   3.582   5.063 -0.1676  0.2646  0.4208
22986SOL     OW72745   9.083   3.289   3.875 -0.2589 -0.2719  0.1060
22986SOL    HW172746   9.109   3.287   3.967  0.8138  0.9567 -0.1546
22986SOL    HW272747   9.037   3.372   3.864 -2.5715 -1.4614  0.0604
22987SOL     OW72748   7.689   1.755   0.841  0.2912  0.5965 -0.0856
22987SOL    HW172749   7.601   1.738   0.808  1.4791 -1.7203 -2.3802
22987SOL    HW272750   7.705   1.847   0.819 -0.5786  0.3040 -2.1462
22988SOL     OW72751  10.042   2.384  10.347  0.6667 -0.1095 -0.0599
22988SOL    HW172752  10.124   2.381  10.297  0.2807  2.1221 -0.9375
22988SOL    HW272753  10.015   2.476  10.343 -0.7727 -0.3695  2.0540
22989SOL     OW72754   9.028   5.279   5.014 -0.3047  0.1945  0.0305
22989SOL    HW172755   9.042   5.294   4.920  1.7857  0.7387  0.3824
22989SOL    HW272756   8.943   5.235   5.018 -0.6065  0.4446 -2.0866
22990SOL     OW72757   1.324   3.691   9.878 -0.9023  0.0457 -0.7379
22990SOL    HW172758   1.399   3.633   9.864  0.1345  0.7810  1.2783
22990SOL    HW272759   1.250   3.632   9.890 -0.1817 -0.8112 -0.3958
22991SOL     OW72760   1.212   8.677   9.115 -0.0903 -0.2821 -0.7126
22991SOL    HW172761   1.245   8.759   9.151  1.5750 -1.8579  1.5923
22991SOL    HW272762   1.138   8.655   9.170  0.4671 -1.1126 -0.2867
22992SOL     OW72763   8.768   0.165   2.343 -0.8999  0.2035  0.2165
22992SOL    HW172764   8.687   0.125   2.312 -0.8874  0.2240  0.1571
22992SOL    HW272765   8.827   0.162   2.268 -1.4587  1.8634 -0.3370
22993SOL     OW72766   0.008   6.750   5.161 -0.1661 -0.4993  0.0897
22993SOL    HW172767  -0.079   6.713   5.174  0.0796 -0.6036  1.5887
22993SOL    HW272768   0.061   6.677   5.129 -0.3477 -0.7437  0.3394
22994SOL     OW72769   0.895   7.274   0.224  0.5777  0.1097  0.2189
22994SOL    HW172770   0.811   7.278   0.179  0.1210  1.5724  1.1461
22994SOL    HW272771   0.875   7.231   0.308  0.5080  1.4033  0.8923
22995SOL     OW72772   7.714   5.651   4.445  0.4081 -0.4164 -0.1459
22995SOL    HW172773   7.621   5.664   4.463  0.3992 -2.0423  1.1781
22995SOL    HW272774   7.753   5.631   4.530  2.0084  0.3446 -0.6638
22996SOL     OW72775   4.269   6.133   8.406  0.9402  0.2164 -0.2957
22996SOL    HW172776   4.227   6.047   8.402 -1.0485  1.1593 -0.8139
22996SOL    HW272777   4.355   6.120   8.366  0.8459 -1.6025  0.0281
22997SOL     OW72778   3.298   2.565   3.908  0.1560  0.7149 -0.5311
22997SOL    HW172779   3.209   2.535   3.893 -0.6915  2.9990 -0.4950
22997SOL    HW272780   3.343   2.490   3.947 -2.1263 -0.0624  0.7702
22998SOL     OW72781   1.610   2.815   3.807  0.0522  0.2322  0.5033
22998SOL    HW172782   1.575   2.726   3.810 -1.2816  0.5962 -1.8434
22998SOL    HW272783   1.688   2.812   3.863 -0.2022 -2.2687  0.8470
22999SOL     OW72784   1.718   5.540   9.217 -0.0610 -0.0715 -0.2602
22999SOL    HW172785   1.711   5.535   9.312  0.1564 -0.5168 -0.2654
22999SOL    HW272786   1.795   5.487   9.196 -0.2660 -0.1960 -0.7083
23000SOL     OW72787   5.741   8.717   9.243 -0.3324 -0.2334 -0.0841
23000SOL    HW172788   5.787   8.662   9.179  1.1676 -0.8534  1.4536
23000SOL    HW272789   5.717   8.657   9.314 -0.5085  0.7305  0.6928
23001SOL     OW72790   1.604   0.298   8.181  0.4548 -0.3469 -0.4465
23001SOL    HW172791   1.653   0.239   8.238  0.6026  0.5203  0.3435
23001SOL    HW272792   1.651   0.381   8.185 -0.6469  0.2811 -0.2794
23002SOL     OW72793   3.761   7.160   7.918 -0.8927  0.0994 -0.2795
23002SOL    HW172794   3.713   7.235   7.952 -0.4123  0.0237  0.5972
23002SOL    HW272795   3.850   7.170   7.953 -0.1817  0.3709 -2.0737
23003SOL     OW72796   0.108   8.572   5.959  0.4705  0.3853  0.4709
23003SOL    HW172797   0.025   8.534   5.931  0.8711 -2.1028  2.3450
23003SOL    HW272798   0.151   8.597   5.877 -0.5649 -1.7152 -0.8054
23004SOL     OW72799   3.207   1.026   6.990 -0.0861  0.5618  0.0382
23004SOL    HW172800   3.152   0.959   6.948 -2.0801  2.9177 -1.3631
23004SOL    HW272801   3.199   1.102   6.933  3.0931  1.6820  0.9121
23005SOL     OW72802   9.277   7.743   7.842  0.3006 -0.3402  0.0441
23005SOL    HW172803   9.301   7.725   7.932 -0.2888 -0.4455  0.1841
23005SOL    HW272804   9.329   7.819   7.818 -0.4886  0.5056  0.9037
23006SOL     OW72805   3.417   0.928   9.439 -0.4026 -0.4237 -0.4122
23006SOL    HW172806   3.465   0.846   9.451  0.1828  0.0325  0.4664
23006SOL    HW272807   3.327   0.900   9.422 -0.0726 -1.2637 -0.8324
23007SOL     OW72808   1.684   6.364   7.712 -0.5474  0.4890 -0.3148
23007SOL    HW172809   1.767   6.401   7.739 -0.5527  0.3688 -0.1305
23007SOL    HW272810   1.629   6.440   7.690 -0.0956  0.5423 -1.3223
23008SOL     OW72811   3.354   2.179   2.181  0.2007  0.4799 -0.2394
23008SOL    HW172812   3.304   2.151   2.104  0.7458  1.5954 -1.0417
23008SOL    HW272813   3.380   2.269   2.161  0.3946  0.7849  1.2501
23009SOL     OW72814   1.956   6.433   7.779 -0.6266 -0.4843 -0.5088
23009SOL    HW172815   1.997   6.405   7.861 -0.5318 -0.0349 -0.4026
23009SOL    HW272816   1.908   6.513   7.802 -1.8451 -1.1763 -0.5567
23010SOL     OW72817   0.229   6.864   8.129 -0.2924 -0.4177 -0.1571
23010SOL    HW172818   0.307   6.841   8.079  0.6310  0.9761  0.5764
23010SOL    HW272819   0.156   6.830   8.077  0.6468  0.6181 -2.2496
23011SOL     OW72820   6.670   0.820   8.695  0.2100 -0.4133  0.1277
23011SOL    HW172821   6.662   0.827   8.790  1.3663  1.7452  0.1352
23011SOL    HW272822   6.602   0.877   8.660 -0.0029 -0.9408 -0.3386
23012SOL     OW72823   2.102   1.748   6.166 -0.9513  0.1269  0.2548
23012SOL    HW172824   2.007   1.759   6.171 -1.2263 -1.6467 -0.3584
23012SOL    HW272825   2.137   1.822   6.215 -2.7240 -0.5944  2.8689
23013SOL     OW72826   9.935   0.061   2.080  0.2961  0.0060 -0.6970
23013SOL    HW172827   9.928  -0.032   2.100  0.3343 -0.3422 -2.1738
23013SOL    HW272828  10.023   0.071   2.043  0.0628  0.4996 -1.1406
23014SOL     OW72829   0.782   5.389   4.711 -0.4301 -0.3888 -0.0365
23014SOL    HW172830   0.834   5.394   4.791  2.2149  1.3149 -1.7208
23014SOL    HW272831   0.704   5.441   4.730  0.8806  1.3184  0.9587
23015SOL     OW72832   8.927   7.159   2.134 -0.1109  0.2169  0.1000
23015SOL    HW172833   8.862   7.178   2.066  0.1278  1.8388  0.2758
23015SOL    HW272834   8.945   7.065   2.125  0.3461  0.4852 -2.4767
23016SOL     OW72835   5.138   4.572   4.625  0.4420 -0.2801 -0.1222
23016SOL    HW172836   5.049   4.539   4.636 -0.2130  0.9785 -1.3044
23016SOL    HW272837   5.193   4.493   4.623 -0.6383 -1.0718  0.5885
23017SOL     OW72838   1.470   5.702   0.699 -0.0877 -0.0289 -0.0591
23017SOL    HW172839   1.462   5.655   0.616  2.6483  2.0608 -1.6691
23017SOL    HW272840   1.455   5.634   0.766 -0.9173 -2.1049 -2.1892
23018SOL     OW72841   8.730   2.832   2.493  0.1195  0.0562 -0.6471
23018SOL    HW172842   8.738   2.900   2.559  0.2057  1.4799 -2.0675
23018SOL    HW272843   8.643   2.845   2.455  0.0225 -0.8155 -0.7428
23019SOL     OW72844   5.122   1.596   0.525  0.1071 -0.3581  0.4873
23019SOL    HW172845   5.192   1.597   0.590  0.3605  0.3433  0.2185
23019SOL    HW272846   5.160   1.548   0.451 -0.0286 -0.7837  0.6931
23020SOL     OW72847   9.939   5.581   3.938 -0.0986  0.2580  0.1452
23020SOL    HW172848   9.995   5.557   4.011  0.8937  0.9644 -0.3523
23020SOL    HW272849   9.998   5.582   3.862 -0.8970  0.4826 -0.4883
23021SOL     OW72850   8.513  10.006   6.909 -0.0535  0.2617  0.2657
23021SOL    HW172851   8.544  10.095   6.921 -0.5663  0.6035 -0.8456
23021SOL    HW272852   8.573   9.968   6.845 -0.8771  0.3939 -0.6154
23022SOL     OW72853   9.336   3.261   7.639  0.3098 -0.8768 -0.5174
23022SOL    HW172854   9.339   3.187   7.578 -1.4264 -0.5959 -0.9829
23022SOL    HW272855   9.371   3.225   7.721 -1.8791 -2.7061 -0.2923
23023SOL     OW72856   0.011   7.449   6.450 -0.7004 -0.1168 -0.4804
23023SOL    HW172857  -0.063   7.434   6.391 -0.7544 -0.4141 -0.3403
23023SOL    HW272858   0.043   7.536   6.427  0.2016 -0.7966 -1.9627
23024SOL     OW72859   2.249   4.836   9.671 -0.5660  0.1240  0.5241
23024SOL    HW172860   2.299   4.787   9.605  0.4749  1.8508 -0.0399
23024SOL    HW272861   2.293   4.816   9.753  1.6524  2.2057 -0.0554
23025SOL     OW72862   5.327   8.372  10.039  0.0304 -0.4406 -0.7289
23025SOL    HW172863   5.405   8.348   9.988 -0.0642 -0.7167 -0.7439
23025SOL    HW272864   5.258   8.315  10.006 -0.7119  1.2253 -2.1840
23026SOL     OW72865   4.531   4.885   7.107 -0.6977 -0.3598 -0.5551
23026SOL    HW172866   4.578   4.964   7.083  0.2015  0.2675  2.8172
23026SOL    HW272867   4.574   4.816   7.056  0.5876  0.8706 -1.2226
23027SOL     OW72868   6.566   8.620   7.439  0.2179 -0.3661  0.0256
23027SOL    HW172869   6.602   8.635   7.526 -1.9501  0.7613  0.7848
23027SOL    HW272870   6.524   8.535   7.444 -0.8386  0.1687  0.4316
23028SOL     OW72871   6.777   9.873   7.962  0.0776  0.1299 -0.4383
23028SOL    HW172872   6.698   9.894   8.012  0.7351  1.1213  0.2105
23028SOL    HW272873   6.769   9.926   7.883  0.0351  0.1341 -0.4313
23029SOL     OW72874   8.728   5.634   8.797  0.2852  0.3970 -0.6663
23029SOL    HW172875   8.707   5.640   8.890  0.4030 -1.3218 -0.4970
23029SOL    HW272876   8.644   5.616   8.754  0.2321  1.1724 -0.9105
23030SOL     OW72877   8.715   0.414   0.014  0.0072 -1.1124  0.5151
23030SOL    HW172878   8.688   0.462   0.092  2.3989  0.9400  0.2047
23030SOL    HW272879   8.634   0.400  -0.035 -1.0026  1.5958  1.2287
23031SOL     OW72880   0.307   4.550   5.902 -0.0376 -0.0850 -0.4906
23031SOL    HW172881   0.343   4.598   5.827 -0.0428  0.8871  0.1015
23031SOL    HW272882   0.375   4.558   5.969 -0.6650  0.3759  0.1012
23032SOL     OW72883   0.943   8.862   0.945 -0.3580  0.2502  0.8698
23032SOL    HW172884   0.908   8.951   0.943  0.9738  0.7905 -0.6401
23032SOL    HW272885   1.029   8.870   0.905 -0.3267 -1.7780  0.4521
23033SOL     OW72886   4.988  10.307   8.798 -0.3839  0.4508  0.4240
23033SOL    HW172887   5.065  10.352   8.766 -1.1913  1.1654 -0.5820
23033SOL    HW272888   4.957  10.359   8.872  1.4030 -1.1256  2.4037
23034SOL     OW72889   4.005   8.015   2.463 -0.5364  0.0943  0.1327
23034SOL    HW172890   3.980   8.095   2.508 -0.8797 -0.5734  1.1619
23034SOL    HW272891   3.959   7.945   2.510  0.0881 -0.7536 -0.4717
23035SOL     OW72892   1.064   9.944   4.730 -0.1337  0.4310 -0.1240
23035SOL    HW172893   1.075   9.857   4.767  1.9543  1.4986  2.0465
23035SOL    HW272894   1.000   9.987   4.787 -1.5293  0.2440 -1.4708
23036SOL     OW72895   0.658   1.901   7.149  0.2513  0.1152 -0.6168
23036SOL    HW172896   0.581   1.906   7.205 -0.1637 -1.9998 -0.9102
23036SOL    HW272897   0.623   1.884   7.062  0.9827 -2.6659 -0.4859
23037SOL     OW72898   3.265  10.243   2.203  0.2211  0.6833  0.4119
23037SOL    HW172899   3.292  10.241   2.295  1.9582  2.9934  0.0507
23037SOL    HW272900   3.308  10.321   2.168 -2.3637  1.2452 -1.7707
23038SOL     OW72901   9.582   8.618   9.254 -0.1791  0.6967  1.0227
23038SOL    HW172902   9.506   8.560   9.249 -0.8629  1.6155 -0.1749
23038SOL    HW272903   9.566   8.683   9.185  1.9133  0.6777  0.4492
23039SOL     OW72904   0.121   7.052   2.057 -0.5576  0.0191  0.2469
23039SOL    HW172905   0.175   7.062   1.979 -2.4279 -1.4052 -1.3386
23039SOL    HW272906   0.183   7.055   2.130  1.3269  0.8413 -1.3067
23040SOL     OW72907   4.059   0.253   9.701  0.9266 -0.1482 -0.1218
23040SOL    HW172908   4.117   0.290   9.634  3.2147 -1.3348  1.0595
23040SOL    HW272909   4.097   0.284   9.784 -0.8510 -0.0471  0.6914
23041SOL     OW72910   9.043   1.884   4.157  0.0967 -0.9427 -0.4020
23041SOL    HW172911   9.096   1.903   4.234  1.0383  0.5626 -1.3511
23041SOL    HW272912   9.081   1.804   4.121  0.2077 -1.1730  0.2175
23042SOL     OW72913   1.175   9.831   7.632 -0.3104  0.1654 -0.0325
23042SOL    HW172914   1.259   9.790   7.612 -0.7217 -0.6545 -0.0831
23042SOL    HW272915   1.139   9.778   7.703 -1.1092  0.0999 -0.4862
23043SOL     OW72916   1.463   2.503   8.779  0.3932 -0.1708  0.3078
23043SOL    HW172917   1.491   2.424   8.824  2.5247  0.3843  0.1089
23043SOL    HW272918   1.379   2.526   8.819  0.7225 -1.3834  1.7926
23044SOL     OW72919   7.314   2.941   1.563 -0.0383  0.4984  0.4616
23044SOL    HW172920   7.275   2.983   1.639 -0.5898 -0.4334  0.7043
23044SOL    HW272921   7.296   2.848   1.575  0.4455  0.2718 -0.4804
23045SOL     OW72922   7.844   6.751   5.752  0.1790  1.3127 -0.4020
23045SOL    HW172923   7.821   6.715   5.667 -0.7985  0.7697  0.0789
23045SOL    HW272924   7.810   6.841   5.750 -2.5269  0.4045  0.4505
23046SOL     OW72925   2.972   4.836   7.356  0.3232 -0.1114  0.0705
23046SOL    HW172926   3.011   4.905   7.304  0.6603 -0.7562 -0.5410
23046SOL    HW272927   3.046   4.785   7.389  0.1666  0.7123  1.8118
23047SOL     OW72928   0.850   3.471   8.485 -0.3121 -0.1013 -0.0590
23047SOL    HW172929   0.835   3.559   8.451  0.9223  0.0081 -0.3797
23047SOL    HW272930   0.880   3.484   8.575 -0.2119 -0.1988 -0.0782
23048SOL     OW72931   4.273   5.898   7.124 -0.3888 -0.1211 -1.0043
23048SOL    HW172932   4.252   5.839   7.051 -2.0310  1.2498 -1.7208
23048SOL    HW272933   4.223   5.863   7.198 -0.0050 -0.5981 -0.9683
23049SOL     OW72934   1.848   0.873   3.832  0.0535  0.4049 -0.3512
23049SOL    HW172935   1.915   0.853   3.766 -0.3561 -0.5777 -0.4900
23049SOL    HW272936   1.896   0.912   3.904  0.6226  0.7659 -0.9148
23050SOL     OW72937   5.674   4.366   4.245  0.7377 -0.6225  0.0829
23050SOL    HW172938   5.726   4.359   4.166 -0.4738  0.4971 -0.8503
23050SOL    HW272939   5.589   4.328   4.221  0.5180 -0.7499  1.0116
23051SOL     OW72940   9.924   9.706   2.351 -0.3376  0.1694 -0.7039
23051SOL    HW172941   9.939   9.732   2.261 -0.2550 -1.1013 -1.0728
23051SOL    HW272942   9.978   9.628   2.363 -1.3297 -0.4234  0.0510
23052SOL     OW72943   5.667  10.275   9.155  1.0122  0.0945 -0.1774
23052SOL    HW172944   5.609  10.258   9.230  1.4222 -0.4330  0.0281
23052SOL    HW272945   5.678  10.370   9.155 -0.8154  0.3228 -0.9614
23053SOL     OW72946   8.230   6.020   7.783  0.0382  0.4198  0.0667
23053SOL    HW172947   8.173   5.944   7.786 -0.0143  0.4489 -0.2158
23053SOL    HW272948   8.225   6.051   7.693 -1.2597  1.7653  0.5544
23054SOL     OW72949   0.164  10.168   7.255 -0.4298  0.1597 -0.1660
23054SOL    HW172950   0.183  10.233   7.322 -0.2350  0.0966 -0.1597
23054SOL    HW272951   0.145  10.219   7.177  0.3567  0.2163 -0.3292
23055SOL     OW72952   8.635   0.173   2.590 -0.1283 -0.1499 -0.3375
23055SOL    HW172953   8.679   0.191   2.507  0.9198  1.6929  0.5513
23055SOL    HW272954   8.664   0.243   2.649  1.1480 -2.6912  2.3557
23056SOL     OW72955   6.508   0.862   6.946  0.1013 -0.1081 -0.5551
23056SOL    HW172956   6.427   0.828   6.908 -0.4521  0.6796 -0.1129
23056SOL    HW272957   6.527   0.941   6.896 -0.0670  0.3685  0.1316
23057SOL     OW72958   9.060   8.922   8.044 -0.2932  0.1405  0.0840
23057SOL    HW172959   9.092   8.867   7.973 -1.3134  2.1940 -2.1129
23057SOL    HW272960   8.968   8.897   8.056 -0.9059  1.5474 -1.2589
23058SOL     OW72961   1.994   9.507   6.974  0.3259  0.5674  0.1757
23058SOL    HW172962   1.974   9.490   6.882  0.8624  0.8709  0.0024
23058SOL    HW272963   2.036   9.427   7.005 -1.5203 -0.2747  0.6747
23059SOL     OW72964   7.386   8.836   2.386 -0.2356 -0.2750 -0.0323
23059SOL    HW172965   7.356   8.832   2.477 -0.0875 -0.0793  0.0278
23059SOL    HW272966   7.394   8.745   2.359 -1.9140 -0.3504 -0.4029
23060SOL     OW72967   7.551   5.613   5.447 -0.0011 -0.2477  0.5563
23060SOL    HW172968   7.523   5.651   5.364  2.2319  2.7171  1.0337
23060SOL    HW272969   7.505   5.664   5.514  1.2221  0.0380  1.1972
23061SOL     OW72970   6.771   1.956   1.466  0.9781  0.5173  0.5548
23061SOL    HW172971   6.769   2.051   1.476  2.4566  0.5272  1.0099
23061SOL    HW272972   6.810   1.943   1.380  0.4006  0.3252  0.3234
23062SOL     OW72973   3.377   6.140   3.102 -0.1569  0.1816  0.0852
23062SOL    HW172974   3.309   6.204   3.124  0.6659  1.1154 -0.0163
23062SOL    HW272975   3.399   6.099   3.186 -2.3152 -1.6834 -0.1681
23063SOL     OW72976   3.943  10.359   2.323 -0.8922  0.1165 -0.2321
23063SOL    HW172977   3.911  10.427   2.382 -0.4526 -0.7401  1.0292
23063SOL    HW272978   4.005  10.309   2.375 -1.6114 -1.6091 -0.9547
23064SOL     OW72979   6.934   9.276   8.708 -0.2210  0.1362  0.1121
23064SOL    HW172980   6.903   9.366   8.720  0.4431  0.2819  0.8259
23064SOL    HW272981   6.905   9.230   8.787  1.2307  0.2446  0.7352
23065SOL     OW72982   4.116   5.816   2.888 -0.1173  0.8397 -0.5995
23065SOL    HW172983   4.141   5.795   2.978  0.5217  2.1523 -0.4354
23065SOL    HW272984   4.024   5.789   2.881  0.5121 -1.4890 -0.3324
23066SOL     OW72985   9.707   5.832   7.918  0.2747  0.5422 -0.5670
23066SOL    HW172986   9.660   5.752   7.895  0.8995 -0.7683  2.2959
23066SOL    HW272987   9.637   5.897   7.931 -0.7170 -0.8347  1.6359
23067SOL     OW72988   1.706   4.155   4.607 -0.2204 -0.1352  0.4157
23067SOL    HW172989   1.765   4.227   4.584 -0.2436  0.2187  1.4183
23067SOL    HW272990   1.724   4.088   4.541 -2.1693  1.7897 -2.2751
23068SOL     OW72991   2.751   8.444   3.072 -0.3234 -0.1955  0.0336
23068SOL    HW172992   2.809   8.520   3.084  0.8451 -1.2300  1.3132
23068SOL    HW272993   2.681   8.457   3.136  0.6707 -0.8899  1.3036
23069SOL     OW72994   2.091   9.402   9.175 -0.6245 -0.2933 -0.1055
23069SOL    HW172995   2.168   9.393   9.119 -0.8721  0.4219 -0.5744
23069SOL    HW272996   2.066   9.494   9.167 -1.4415 -0.4828  0.1613
23070SOL     OW72997   2.457   0.378   9.033  0.9422  0.0854 -0.3947
23070SOL    HW172998   2.506   0.434   9.093  0.2804  0.9457 -0.6381
23070SOL    HW272999   2.462   0.291   9.072  2.4032  0.1981 -0.2592
23071SOL     OW73000   8.317   9.429   7.133 -0.0040  0.6882  0.1041
23071SOL    HW173001   8.274   9.464   7.055  1.2428  0.2271 -0.8301
23071SOL    HW273002   8.251   9.436   7.202 -0.8647  1.8860 -0.7858
23072SOL     OW73003   0.198   5.428   9.663 -0.3784 -0.6460 -0.0704
23072SOL    HW173004   0.237   5.465   9.743  1.2153  2.3790 -2.0675
23072SOL    HW273005   0.273   5.397   9.613 -0.9972  0.5079 -1.7732
23073SOL     OW73006   4.302   9.175   8.529  0.0908 -0.0103 -0.2146
23073SOL    HW173007   4.338   9.092   8.560 -0.2337  0.8866  2.9164
23073SOL    HW273008   4.214   9.153   8.497 -0.1683 -0.8537  1.0163
23074SOL     OW73009   0.127   6.079   2.815  0.6198 -0.3822  0.4745
23074SOL    HW173010   0.137   6.046   2.904  0.4611 -0.6328  0.4002
23074SOL    HW273011   0.034   6.066   2.795  0.5476  0.1499  0.4627
23075SOL     OW73012   5.381   3.589   5.313 -0.6616 -0.2704 -0.2607
23075SOL    HW173013   5.306   3.645   5.296 -0.8378 -0.6830 -0.8833
23075SOL    HW273014   5.357   3.504   5.276 -0.0542 -0.5231 -0.1001
23076SOL     OW73015   9.076   4.794   5.711 -0.1556  0.0565  0.0874
23076SOL    HW173016   9.019   4.788   5.787  0.6067 -0.8185  0.6034
23076SOL    HW273017   9.164   4.800   5.747  0.0931  2.0188 -0.6814
23077SOL     OW73018   7.758   2.200   7.541  0.1439  0.0724  0.2041
23077SOL    HW173019   7.800   2.285   7.526  0.8857 -0.0176  1.6475
23077SOL    HW273020   7.765   2.155   7.456  1.4627  0.7139 -0.0631
23078SOL     OW73021   0.820   1.320   9.719 -0.3233  0.0828  0.6753
23078SOL    HW173022   0.883   1.373   9.767  1.2243  1.1517 -2.3000
23078SOL    HW273023   0.846   1.229   9.737  2.0972  0.4962 -0.4586
23079SOL     OW73024   9.377   5.694   7.188  0.2331 -0.6091  0.3235
23079SOL    HW173025   9.430   5.716   7.112 -0.1643 -0.6306  0.0369
23079SOL    HW273026   9.295   5.661   7.152  0.7347 -2.4183  0.7401
23080SOL     OW73027  10.313   6.608   8.478 -0.1415 -0.4085  0.0016
23080SOL    HW173028  10.317   6.553   8.557 -2.1371 -0.1089  0.3756
23080SOL    HW273029  10.221   6.604   8.452  0.4182 -0.2241 -2.1473
23081SOL     OW73030   1.389   8.061   1.300  0.0094 -0.5131  0.9276
23081SOL    HW173031   1.301   8.049   1.336 -0.0459 -1.1882  0.5809
23081SOL    HW273032   1.422   7.973   1.285  0.5571 -0.2626  0.5886
23082SOL     OW73033   6.541   1.691   4.149 -0.6152  0.1589 -0.1324
23082SOL    HW173034   6.575   1.743   4.077 -1.2448  1.5423  0.5168
23082SOL    HW273035   6.567   1.739   4.228 -0.1717 -1.1719  0.5693
23083SOL     OW73036   6.035   6.512   6.122  0.0623  0.3828 -0.4830
23083SOL    HW173037   6.081   6.542   6.044  0.8207  1.6661  0.4372
23083SOL    HW273038   6.026   6.417   6.109  1.8394  0.2818 -1.2612
23084SOL     OW73039   7.476   5.249   1.235 -0.0610  0.7393 -0.3069
23084SOL    HW173040   7.528   5.194   1.293  1.6845  2.2676 -0.3070
23084SOL    HW273041   7.519   5.240   1.150 -3.2061 -2.3181 -1.8210
23085SOL     OW73042   6.322   1.852   6.004  0.2956  0.1164  0.2279
23085SOL    HW173043   6.289   1.902   6.079  0.3190 -1.6368  1.4861
23085SOL    HW273044   6.246   1.802   5.973  0.6882 -0.5070  0.2392
23086SOL     OW73045   2.638   0.099   3.137  0.0518  0.2895  0.8530
23086SOL    HW173046   2.625   0.157   3.061  3.4970 -1.6764 -1.5436
23086SOL    HW273047   2.683   0.154   3.201  0.7061  1.0279 -0.2068
23087SOL     OW73048   0.004   6.918   0.798  0.2891  0.2734 -0.5730
23087SOL    HW173049   0.005   6.845   0.736  3.1548 -0.8389  0.6003
23087SOL    HW273050  -0.088   6.925   0.826 -0.2266 -2.3015 -1.3781
23088SOL     OW73051   8.267   9.128   1.094  0.1409 -0.1059  0.2740
23088SOL    HW173052   8.233   9.044   1.125 -0.1237 -0.3925 -0.7349
23088SOL    HW273053   8.302   9.171   1.172  1.4661 -1.7057  0.6120
23089SOL     OW73054   7.202   0.967   2.963 -0.5729 -0.3518  0.1120
23089SOL    HW173055   7.143   0.955   3.038  0.2433 -0.6570  0.7149
23089SOL    HW273056   7.240   0.880   2.948  0.3963  0.0313  0.2957
23090SOL     OW73057   6.809   3.518   5.102 -0.4222  0.0789  0.3171
23090SOL    HW173058   6.732   3.529   5.157  0.4649  0.9544  1.4162
23090SOL    HW273059   6.820   3.603   5.060  0.6683  0.3614  1.1478
23091SOL     OW73060   8.612   0.898   4.178 -0.2759 -0.4012  0.1940
23091SOL    HW173061   8.600   0.911   4.272 -1.6120  0.4658 -0.0657
23091SOL    HW273062   8.673   0.967   4.152 -0.3030 -0.3157  0.3523
23092SOL     OW73063   9.817   6.144   5.554  0.0032 -0.7020 -0.6531
23092SOL    HW173064   9.733   6.116   5.516 -2.2364  0.4240  2.9827
23092SOL    HW273065   9.856   6.064   5.588 -0.5548 -0.9756 -0.6468
23093SOL     OW73066   0.777   8.681   7.092  0.1275  0.0891  0.0814
23093SOL    HW173067   0.715   8.609   7.107 -0.5453  0.5722 -0.3000
23093SOL    HW273068   0.835   8.650   7.023  0.1211 -0.2544  0.2306
23094SOL     OW73069   9.047   1.684   5.980  0.2504  0.1763 -0.1021
23094SOL    HW173070   9.098   1.707   6.058  0.1585  0.4593 -0.1237
23094SOL    HW273071   9.112   1.673   5.911  0.4090 -0.8533  0.1863
23095SOL     OW73072   5.799  10.123   8.467  0.1325  0.2127 -0.3308
23095SOL    HW173073   5.893  10.138   8.458  0.1690  0.2760  0.1403
23095SOL    HW273074   5.779  10.145   8.558 -0.3555  0.2923 -0.4499
23096SOL     OW73075   2.028   2.649   8.741 -0.6439  0.0981  0.0777
23096SOL    HW173076   2.014   2.696   8.659 -1.5798 -1.1722 -0.5351
23096SOL    HW273077   1.972   2.693   8.804 -1.9193 -0.4479 -0.6130
23097SOL     OW73078   5.659   1.950   0.348 -0.4312 -0.4214 -0.0122
23097SOL    HW173079   5.657   1.894   0.270 -0.1056  0.2325 -0.5043
23097SOL    HW273080   5.738   1.924   0.394  0.2948  0.3252 -0.7862
23098SOL     OW73081   5.136   2.655   4.730  0.0892 -0.0289 -0.1862
23098SOL    HW173082   5.198   2.614   4.670  0.0210  1.5562 -1.4099
23098SOL    HW273083   5.120   2.589   4.797  1.0361 -1.4510 -1.3013
23099SOL     OW73084   4.057   5.937   5.844  0.2203 -0.0655  0.5433
23099SOL    HW173085   4.086   5.999   5.910 -1.4790 -0.3448  1.6085
23099SOL    HW273086   4.115   5.953   5.769 -0.2114  2.8455  0.7188
23100SOL     OW73087   9.575   8.204   0.176 -0.2785  0.3199  0.5147
23100SOL    HW173088   9.574   8.274   0.111 -2.1024 -0.6549 -0.5956
23100SOL    HW273089   9.595   8.125   0.126 -0.9021 -0.3270  1.2557
23101SOL     OW73090   8.231   7.504   7.618 -0.5015 -0.2388  0.2912
23101SOL    HW173091   8.232   7.415   7.652  0.7688 -1.3671 -2.3808
23101SOL    HW273092   8.146   7.512   7.575 -0.6755 -0.1119  0.6609
23102SOL     OW73093   1.966   0.622   3.986 -0.3395  0.1053 -0.3194
23102SOL    HW173094   2.020   0.694   4.017 -1.5923  1.6672 -1.5643
23102SOL    HW273095   1.997   0.605   3.897 -0.3963 -0.5407 -0.2209
23103SOL     OW73096   0.881   6.052   6.368  0.0015 -0.0989 -0.2935
23103SOL    HW173097   0.810   6.008   6.322  1.2609 -1.3998 -1.0733
23103SOL    HW273098   0.843   6.136   6.396 -2.6034 -1.6907  1.4976
23104SOL     OW73099   7.479   7.267   3.363 -0.0811  0.2547  0.8092
23104SOL    HW173100   7.555   7.209   3.352 -1.2714 -1.6857  2.1521
23104SOL    HW273101   7.517   7.355   3.370  1.6952 -0.0547 -2.8638
23105SOL     OW73102   6.148  10.307   9.062  0.4652 -0.0334 -0.0320
23105SOL    HW173103   6.090  10.357   9.119 -1.0424 -0.9421 -0.6915
23105SOL    HW273104   6.211  10.267   9.121  1.5600  2.3622  0.5407
23106SOL     OW73105   2.211   8.794   4.057 -0.6554 -0.0931 -0.7252
23106SOL    HW173106   2.301   8.828   4.060 -0.6029 -0.2065 -0.9610
23106SOL    HW273107   2.219   8.712   4.008 -0.7257 -0.6234  0.1253
23107SOL     OW73108   4.509   5.747   8.855 -0.6372  0.1053  0.0776
23107SOL    HW173109   4.548   5.797   8.783 -0.2044 -1.6672 -0.9857
23107SOL    HW273110   4.415   5.749   8.839 -0.5815  0.1863 -0.2353
23108SOL     OW73111   1.625   1.659   4.080  0.1570 -0.4624  0.1352
23108SOL    HW173112   1.565   1.585   4.069  0.2894 -0.6427  0.6105
23108SOL    HW273113   1.672   1.664   3.996  0.4509 -1.1896  0.2415
23109SOL     OW73114   7.984   2.935   4.599  0.0179 -0.2577  0.5902
23109SOL    HW173115   7.985   2.876   4.524 -2.0035 -1.7042  1.5936
23109SOL    HW273116   8.027   2.886   4.669  0.6299  0.5092  0.7614
23110SOL     OW73117   8.256   7.976   0.569  0.0951  0.1552  0.3209
23110SOL    HW173118   8.346   8.004   0.555  0.0666 -0.8114 -2.3292
23110SOL    HW273119   8.211   8.054   0.602  1.2180  1.5836 -1.3578
23111SOL     OW73120   7.084   0.343   8.304 -0.0632 -0.2176  0.0952
23111SOL    HW173121   7.064   0.283   8.376  1.8417 -1.1690 -0.1039
23111SOL    HW273122   7.150   0.298   8.252  2.1579  2.3448  0.4336
23112SOL     OW73123   1.698   1.718   0.164 -0.0498  0.3419 -0.1339
23112SOL    HW173124   1.641   1.711   0.241  0.6872 -0.7530  0.3478
23112SOL    HW273125   1.786   1.725   0.200  0.0895  3.2616 -0.8470
23113SOL     OW73126   1.166   5.041   7.160  0.1450 -1.0470 -0.3077
23113SOL    HW173127   1.145   5.013   7.071  0.6892 -0.5489 -0.5988
23113SOL    HW273128   1.126   4.974   7.216 -0.8486 -0.9645 -0.8873
23114SOL     OW73129   9.363   5.152   2.577 -0.5927  0.1802 -0.3437
23114SOL    HW173130   9.420   5.084   2.613 -1.1042 -0.7082 -1.1796
23114SOL    HW273131   9.422   5.221   2.549  0.0814 -0.6998 -1.1351
23115SOL     OW73132   7.338   7.284   8.005 -0.4565  0.3306 -0.2910
23115SOL    HW173133   7.252   7.250   7.979  0.3268  0.2865 -3.1037
23115SOL    HW273134   7.401   7.231   7.956  1.3328 -0.4483  2.6065
23116SOL     OW73135   3.901   5.355   1.421  0.4472  0.0299 -0.3276
23116SOL    HW173136   3.901   5.331   1.329  0.7503  1.7067 -0.8042
23116SOL    HW273137   3.812   5.389   1.437  0.5769  0.3034 -0.1730
23117SOL     OW73138   0.683   4.653   5.123 -0.4017  0.2064  0.0759
23117SOL    HW173139   0.677   4.748   5.112  0.7629  0.2266 -0.5282
23117SOL    HW273140   0.621   4.617   5.059  0.9663  0.5139 -1.4653
23118SOL     OW73141   7.307   3.404   0.916 -0.1219 -0.1020  0.4720
23118SOL    HW173142   7.295   3.402   0.821  0.6032 -1.8087  0.3827
23118SOL    HW273143   7.402   3.411   0.929 -0.2108  0.0886  1.0728
23119SOL     OW73144   6.532   9.763   3.117  0.1961 -0.6444  0.1203
23119SOL    HW173145   6.450   9.790   3.159 -0.2156 -1.5433 -0.0974
23119SOL    HW273146   6.532   9.810   3.034 -1.2602 -2.4146 -0.9414
23120SOL     OW73147   9.968   9.598   0.940  0.1247 -0.3993 -0.3126
23120SOL    HW173148   9.979   9.517   0.990  2.7637  0.3988  0.5842
23120SOL    HW273149   9.901   9.646   0.988 -1.1436 -1.8262 -0.5887
23121SOL     OW73150   0.935   5.122   6.631  0.3772 -0.2295  0.6738
23121SOL    HW173151   0.871   5.178   6.587  0.3177 -0.8313 -0.0263
23121SOL    HW273152   1.015   5.133   6.581  0.3728 -0.7391  0.5518
23122SOL     OW73153   7.744   1.402   9.045 -0.2526 -0.5418  0.0793
23122SOL    HW173154   7.719   1.471   8.983  1.4049  0.4161  0.4279
23122SOL    HW273155   7.660   1.366   9.076 -1.2001  1.9218  0.5749
23123SOL     OW73156   9.394   6.888   2.447  0.0538 -0.7233  0.3245
23123SOL    HW173157   9.344   6.808   2.429 -0.9425 -0.2138  0.7638
23123SOL    HW273158   9.467   6.885   2.384 -1.1148 -0.9566 -1.0883
23124SOL     OW73159   9.502   0.855   3.935  0.6443  0.0908  0.7443
23124SOL    HW173160   9.452   0.917   3.881 -1.8830 -0.8381  1.8617
23124SOL    HW273161   9.563   0.911   3.984 -0.1587  1.4681  0.2466
23125SOL     OW73162   2.051   7.149   1.716  0.3798 -0.0963 -0.2987
23125SOL    HW173163   2.082   7.154   1.807  1.0951  1.9928 -0.5931
23125SOL    HW273164   2.127   7.121   1.666 -0.0931 -1.5331 -0.2538
23126SOL     OW73165   2.096   7.976   7.213  0.1064 -0.2752  0.3340
23126SOL    HW173166   2.143   7.994   7.295  1.5237 -0.4221 -0.4084
23126SOL    HW273167   2.158   7.925   7.161 -0.8677 -0.4029 -0.7356
23127SOL     OW73168   5.700  10.356   5.719 -0.2274 -0.7462 -0.1983
23127SOL    HW173169   5.794  10.346   5.710 -0.1851 -0.0126 -0.6575
23127SOL    HW273170   5.666  10.349   5.630 -0.4736  0.2244 -0.1907
23128SOL     OW73171   2.561   4.555   6.003 -0.5628 -0.1639 -0.0508
23128SOL    HW173172   2.610   4.605   5.938 -1.9993  1.9726  0.3915
23128SOL    HW273173   2.475   4.542   5.963 -0.1535 -2.5632 -0.2415
23129SOL     OW73174   4.775   3.881   7.133 -0.0603  0.4006  0.3089
23129SOL    HW173175   4.831   3.894   7.210  3.1560 -3.8573 -0.8912
23129SOL    HW273176   4.718   3.808   7.157 -0.4830  0.3984 -0.6609
23130SOL     OW73177   4.700   0.736   9.534  0.5747  0.2124 -0.8744
23130SOL    HW173178   4.642   0.812   9.541 -0.4073 -0.5399 -0.5056
23130SOL    HW273179   4.738   0.726   9.621 -0.7878 -0.8267 -0.3557
23131SOL     OW73180  10.199   3.916  10.121  0.4596 -0.0525  0.0365
23131SOL    HW173181  10.165   3.925  10.032 -1.1461 -0.0854  0.6160
23131SOL    HW273182  10.151   3.982  10.171  1.9415  0.5389  0.7421
23132SOL     OW73183   8.871   4.206   8.531  0.3602  0.0756  0.5468
23132SOL    HW173184   8.835   4.250   8.455 -0.8355  2.2155  2.2590
23132SOL    HW273185   8.798   4.197   8.592  0.6576 -3.8052  0.6322
23133SOL     OW73186   6.296   5.160   3.721 -0.0346 -0.3490 -0.1907
23133SOL    HW173187   6.270   5.129   3.635  1.8696 -1.4791 -0.4150
23133SOL    HW273188   6.291   5.083   3.778 -0.8165  0.2773  0.6210
23134SOL     OW73189   5.776   2.070   6.408 -0.3838  0.3362  0.0867
23134SOL    HW173190   5.809   2.043   6.494  2.4214  2.0751 -0.3352
23134SOL    HW273191   5.775   1.989   6.356 -0.5948 -0.4493  1.2662
23135SOL     OW73192   4.287   5.753   2.067 -0.0195  0.5164 -0.3107
23135SOL    HW173193   4.231   5.784   2.137  0.1277  0.6897 -0.2690
23135SOL    HW273194   4.246   5.785   1.986 -0.8810 -0.7258 -0.4049
23136SOL     OW73195   6.688   4.871   2.702 -0.5601 -0.6430 -0.7162
23136SOL    HW173196   6.680   4.890   2.608 -2.2881  0.2138 -0.4579
23136SOL    HW273197   6.626   4.932   2.743  2.3050  1.1767  1.2916
23137SOL     OW73198   0.084   1.196   3.104 -0.1633 -0.0002 -0.2973
23137SOL    HW173199   0.050   1.285   3.094  0.1854  0.0751 -0.8575
23137SOL    HW273200   0.147   1.202   3.175  1.5137  0.6965 -1.7782
23138SOL     OW73201   4.151   2.651   8.198  0.0694  0.6768 -0.1319
23138SOL    HW173202   4.131   2.562   8.227 -1.0423  0.0238 -2.6804
23138SOL    HW273203   4.247   2.657   8.206  0.0340 -0.1765  1.4618
23139SOL     OW73204   7.031   4.293   2.913  0.4508 -0.4710  0.3991
23139SOL    HW173205   7.120   4.324   2.897  0.0571  0.3009 -0.3276
23139SOL    HW273206   7.029   4.274   3.007  1.2386 -0.0594  0.5064
23140SOL     OW73207   5.482   1.853   7.638 -0.0628  0.5888 -0.4678
23140SOL    HW173208   5.415   1.784   7.636 -1.2300  1.6004  0.7997
23140SOL    HW273209   5.432   1.934   7.641  1.2789  1.5871 -2.7069
23141SOL     OW73210   1.663   9.538   1.033  0.0122  0.2407  0.1609
23141SOL    HW173211   1.743   9.527   1.084 -0.3430 -1.1750  0.4403
23141SOL    HW273212   1.594   9.500   1.088 -0.2837 -1.9407 -1.5762
23142SOL     OW73213   7.233   6.944   4.506  0.4227  0.1027 -0.3901
23142SOL    HW173214   7.255   6.964   4.597 -1.4681 -0.2341  0.1831
23142SOL    HW273215   7.220   7.030   4.465  2.4582  0.2994 -0.6958
23143SOL     OW73216   1.038   2.799   8.953  0.2731 -0.1992 -0.0066
23143SOL    HW173217   0.990   2.839   8.881  0.2410 -3.3595 -1.9589
23143SOL    HW273218   1.129   2.795   8.922  0.8802  1.1325  1.4845
23144SOL     OW73219   3.016   2.656   0.586 -0.2467 -0.1009  0.0074
23144SOL    HW173220   2.983   2.712   0.516 -0.5840 -0.7781 -0.3908
23144SOL    HW273221   3.051   2.579   0.541 -1.9455 -1.3145  0.6123
23145SOL     OW73222   1.510   5.501   3.046 -0.2987 -0.1266 -0.2153
23145SOL    HW173223   1.435   5.444   3.063 -2.3372  2.2353 -0.6790
23145SOL    HW273224   1.560   5.500   3.128 -2.0037 -0.1584  0.8740
23146SOL     OW73225   0.599   3.854   2.492  0.2199 -0.2104  0.1756
23146SOL    HW173226   0.619   3.806   2.573 -0.2791 -1.2905 -0.3173
23146SOL    HW273227   0.522   3.810   2.457  1.7991 -1.3897 -2.1319
23147SOL     OW73228   4.369   9.613   3.817 -0.6479  0.5380  0.2456
23147SOL    HW173229   4.326   9.632   3.734  1.5126  0.4963 -0.9342
23147SOL    HW273230   4.462   9.611   3.797 -0.1697 -2.2526  2.0935
23148SOL     OW73231   7.239   8.032   8.739 -0.2858  0.1502  0.1565
23148SOL    HW173232   7.258   7.939   8.726  0.2578  0.2210  0.4036
23148SOL    HW273233   7.322   8.075   8.720  0.1222  0.3936  2.2588
23149SOL     OW73234   8.902   8.848   7.807  0.2296  0.0722 -0.1032
23149SOL    HW173235   8.937   8.916   7.749 -0.6235  0.1391 -0.5472
23149SOL    HW273236   8.831   8.892   7.855 -1.4768 -0.9137 -1.6062
23150SOL     OW73237   2.694   8.111   8.243 -0.1293  0.2766 -0.4568
23150SOL    HW173238   2.609   8.092   8.282  0.6771 -0.0108  1.2327
23150SOL    HW273239   2.673   8.146   8.156 -2.0792  2.3805  0.7513
23151SOL     OW73240   5.566   4.190   3.211  0.2988  0.0682  0.4466
23151SOL    HW173241   5.647   4.171   3.164 -0.8328  0.0829 -1.5976
23151SOL    HW273242   5.496   4.152   3.158 -1.0486 -0.3458  2.3830
23152SOL     OW73243   8.075   2.719   6.463 -0.1487 -0.0616 -0.0089
23152SOL    HW173244   8.140   2.677   6.519 -0.9629 -0.6834  0.4909
23152SOL    HW273245   8.102   2.811   6.461  0.3500 -0.1805  0.7535
23153SOL     OW73246   4.988   5.704   7.371  0.2736 -0.4038 -0.1912
23153SOL    HW173247   5.022   5.773   7.428  1.6318 -2.2279  1.3361
23153SOL    HW273248   5.065   5.653   7.347 -0.6395 -1.1707 -1.6243
23154SOL     OW73249   9.185   6.220   2.509  0.5551 -0.6748  0.0275
23154SOL    HW173250   9.262   6.245   2.458  0.9191  1.2649  1.3901
23154SOL    HW273251   9.123   6.291   2.496 -0.1940 -1.2060  0.5803
23155SOL     OW73252   7.186   3.350   6.428  0.5040  0.0508 -0.4989
23155SOL    HW173253   7.114   3.406   6.399 -0.7745 -0.3331  1.7198
23155SOL    HW273254   7.209   3.384   6.514  1.5279 -1.2021 -0.2520
23156SOL     OW73255   9.235   8.397  10.304  0.1363 -0.0860  0.0464
23156SOL    HW173256   9.243   8.437  10.391  0.3707 -2.1520  1.0482
23156SOL    HW273257   9.143   8.411  10.280  0.4439  1.8982 -0.1489
23157SOL     OW73258   1.578   3.271   7.246 -0.0002  0.3001  0.2289
23157SOL    HW173259   1.492   3.236   7.226 -0.1210  0.9898 -0.4797
23157SOL    HW273260   1.619   3.204   7.302  0.6274 -2.0530 -2.8132
23158SOL     OW73261   3.404   6.615   5.090 -0.5206  0.3724 -0.1185
23158SOL    HW173262   3.474   6.636   5.029 -1.1890  1.0730 -0.6665
23158SOL    HW273263   3.325   6.652   5.050 -1.1790 -0.2395  0.5650
23159SOL     OW73264   2.803   1.546   4.845 -0.1600 -0.2741 -0.3782
23159SOL    HW173265   2.869   1.612   4.823 -0.5235 -0.4675 -2.2491
23159SOL    HW273266   2.793   1.495   4.764 -0.3958 -2.1804  0.8058
23160SOL     OW73267   1.930   2.193   1.023 -0.8079 -0.0820  0.6345
23160SOL    HW173268   1.899   2.151   1.104 -0.7993 -0.7865  0.2807
23160SOL    HW273269   1.855   2.189   0.964  0.0023 -2.1787 -0.3728
23161SOL     OW73270   4.486   3.898   9.679  0.2306  0.2083 -0.1179
23161SOL    HW173271   4.402   3.880   9.636  0.2207  2.1803 -1.0434
23161SOL    HW273272   4.467   3.971   9.738  0.9133 -0.5541  1.0792
23162SOL     OW73273   4.152   0.765   1.165 -0.3068  0.1655 -0.2704
23162SOL    HW173274   4.231   0.748   1.113 -1.4449 -0.5807 -1.8522
23162SOL    HW273275   4.108   0.680   1.171 -2.0405  0.9257 -1.3100
23163SOL     OW73276   7.998   7.532   8.592 -0.1772 -0.0433 -0.4645
23163SOL    HW173277   7.980   7.536   8.686 -2.7555 -1.2990 -0.7945
23163SOL    HW273278   8.034   7.618   8.570 -1.2647  0.9543  1.3765
23164SOL     OW73279   0.882   0.883   3.671 -0.5525 -0.2632  0.0598
23164SOL    HW173280   0.959   0.838   3.706 -0.5376  0.1450  0.5699
23164SOL    HW273281   0.915   0.936   3.599 -0.2931  0.1713  0.4939
23165SOL     OW73282   1.777   4.471   7.863 -0.3946 -0.1505  0.3073
23165SOL    HW173283   1.812   4.555   7.893 -3.1049  1.3554 -0.4197
23165SOL    HW273284   1.767   4.480   7.769 -0.3750 -1.4417  0.1550
23166SOL     OW73285   6.119   0.939   7.781  0.0498  0.0605  0.3167
23166SOL    HW173286   6.147   0.896   7.862 -0.9185 -1.9821 -0.3602
23166SOL    HW273287   6.186   0.916   7.717 -0.2049  0.0054  0.0703
23167SOL     OW73288   2.833   4.737   4.302 -0.1701  0.0453  0.0598
23167SOL    HW173289   2.926   4.718   4.290 -0.3112 -2.8123  2.4011
23167SOL    HW273290   2.825   4.762   4.394 -1.6750  0.5891 -0.1871
23168SOL     OW73291   3.571   0.980   0.594 -0.4464  0.1871  0.5473
23168SOL    HW173292   3.634   1.053   0.598 -0.6975  0.4203  0.3182
23168SOL    HW273293   3.500   1.014   0.539 -0.9401  0.0514  1.0990
23169SOL     OW73294   0.459   8.315   8.385 -0.3969  0.1456  0.2742
23169SOL    HW173295   0.433   8.406   8.370  0.1533  0.4679  1.2114
23169SOL    HW273296   0.528   8.299   8.320  0.1589  0.7000  0.7214
23170SOL     OW73297   0.740   7.939   0.724  0.0615  0.7039  0.3810
23170SOL    HW173298   0.784   7.994   0.659  1.2648  0.4633  0.9511
23170SOL    HW273299   0.651   7.972   0.727  0.2744  1.4247 -0.6051
23171SOL     OW73300   1.553   0.057   4.190 -0.2824  0.1736 -0.0332
23171SOL    HW173301   1.628   0.117   4.181  0.4524 -0.6588  0.3964
23171SOL    HW273302   1.579  -0.021   4.141 -0.0840 -0.8194  1.5707
23172SOL     OW73303   5.154   8.466   2.481 -0.2996 -0.4035  0.5471
23172SOL    HW173304   5.232   8.497   2.435 -0.1923 -1.0515  0.2838
23172SOL    HW273305   5.100   8.425   2.413 -0.8086 -0.0946  0.7532
23173SOL     OW73306   4.015   3.693   2.338 -0.8646 -0.1666  0.2896
23173SOL    HW173307   4.063   3.756   2.285 -1.2559 -1.6146 -1.9079
23173SOL    HW273308   4.082   3.636   2.374 -0.6645  0.2676  0.6177
23174SOL     OW73309   0.898   1.014   1.016  0.1810 -1.0926  0.0126
23174SOL    HW173310   0.869   1.095   0.976 -1.3346 -1.8478 -0.4898
23174SOL    HW273311   0.838   1.000   1.089 -0.0276 -2.1163 -0.3422
23175SOL     OW73312   1.816   8.239   7.245  0.4487  0.4430  0.0461
23175SOL    HW173313   1.733   8.202   7.274 -0.8345  3.5157  0.6879
23175SOL    HW273314   1.851   8.283   7.322  1.8140  0.6610 -0.6728
23176SOL     OW73315   8.736   0.611   4.036  0.1097 -0.0397 -0.1586
23176SOL    HW173316   8.700   0.693   4.071  0.1981  0.2097 -0.6468
23176SOL    HW273317   8.671   0.580   3.974  0.8192  0.5429 -1.2331
23177SOL     OW73318   5.978   3.831   6.456  0.0016 -0.0085  0.0275
23177SOL    HW173319   5.962   3.889   6.530  0.0828  0.4804 -0.3352
23177SOL    HW273320   6.036   3.881   6.398  1.3883 -1.0379  0.4632
23178SOL     OW73321   1.939   8.543   1.053  0.7111 -0.0949  0.4564
23178SOL    HW173322   2.015   8.508   1.099  0.6215 -0.4393  0.3527
23178SOL    HW273323   1.867   8.535   1.116  0.7475  0.1707  0.5321
23179SOL     OW73324   9.871   9.584   7.762 -0.0350  0.1856 -0.1674
23179SOL    HW173325   9.856   9.637   7.841  0.8263 -1.3330  1.0783
23179SOL    HW273326   9.966   9.586   7.750  0.0159 -1.0095 -0.1075
23180SOL     OW73327   3.425   7.279   9.969 -0.0460 -0.8947 -0.2431
23180SOL    HW173328   3.393   7.319   9.888  0.6001  1.0768  0.4194
23180SOL    HW273329   3.425   7.185   9.951  0.1711 -0.5117 -2.5514
23181SOL     OW73330   8.288   8.339   9.090  0.1722 -0.1071  0.0244
23181SOL    HW173331   8.283   8.435   9.085 -0.6629 -0.1664 -0.6589
23181SOL    HW273332   8.257   8.318   9.178 -0.2115  0.2274 -0.0237
23182SOL     OW73333   7.353   0.694   0.017 -0.1387  0.5423 -0.3023
23182SOL    HW173334   7.444   0.723   0.019 -0.0621  0.3375 -0.7850
23182SOL    HW273335   7.332   0.686  -0.076 -0.0106 -1.3690 -0.2006
23183SOL     OW73336   0.046  10.143   1.187  0.8567 -0.1679  0.3110
23183SOL    HW173337  -0.033  10.178   1.146  0.5247 -0.8103  0.3766
23183SOL    HW273338   0.114  10.152   1.121  0.4211 -0.8221 -0.2435
23184SOL     OW73339   7.237   3.415   0.658 -0.3377 -0.2641 -0.3196
23184SOL    HW173340   7.276   3.433   0.572 -1.0100 -1.9101 -1.0032
23184SOL    HW273341   7.157   3.367   0.638 -1.1461  0.3885  1.1989
23185SOL     OW73342   9.112   1.793   7.736 -0.3574  0.0451  0.3952
23185SOL    HW173343   9.063   1.875   7.731 -0.9357 -0.3063  0.2122
23185SOL    HW273344   9.055   1.729   7.693  0.4185 -0.2967 -0.1430
23186SOL     OW73345   1.032   9.891   0.941 -0.1440  0.3928  0.2921
23186SOL    HW173346   1.027   9.810   0.992  0.8343 -0.9871 -1.6779
23186SOL    HW273347   1.121   9.924   0.957 -0.1378  0.4399  0.1642
23187SOL     OW73348   7.894   4.912   1.309 -0.3891 -0.5157 -0.1518
23187SOL    HW173349   7.878   4.933   1.401 -3.2054  1.0784 -0.8982
23187SOL    HW273350   7.851   4.828   1.296  0.1175 -0.8015  0.0061
23188SOL     OW73351   2.505   9.290   2.633 -0.1547  0.0093  0.7035
23188SOL    HW173352   2.524   9.325   2.720  0.4186  1.7883 -0.1004
23188SOL    HW273353   2.589   9.255   2.602 -0.2049 -0.0295  0.6107
23189SOL     OW73354   6.380   7.999   4.276  0.2198 -0.3732  0.2107
23189SOL    HW173355   6.463   8.023   4.317 -0.1589  0.3610  0.5673
23189SOL    HW273356   6.382   8.042   4.191 -0.4905  1.0308  0.8793
23190SOL     OW73357   1.790   9.783   2.880  0.2147  0.7425  0.0187
23190SOL    HW173358   1.865   9.764   2.936 -0.5477  1.2315  1.2569
23190SOL    HW273359   1.784   9.707   2.822  0.2473 -0.4436  1.4941
23191SOL     OW73360   0.486   5.940   6.239  0.0106  0.0672 -0.0320
23191SOL    HW173361   0.564   5.966   6.191 -0.6052  1.0623 -0.5152
23191SOL    HW273362   0.465   6.016   6.294 -0.2206 -0.4539  0.6142
23192SOL     OW73363   1.060   9.304   7.955 -0.4721 -0.1992 -0.5072
23192SOL    HW173364   1.140   9.253   7.949  0.1711  0.7873 -0.5423
23192SOL    HW273365   1.031   9.293   8.045 -0.4279 -0.7399 -0.5541
23193SOL     OW73366   0.128   0.201   7.814  0.0301  0.2656  0.1126
23193SOL    HW173367   0.188   0.163   7.750 -0.8609  0.1072 -0.6356
23193SOL    HW273368   0.107   0.129   7.874 -1.4929 -0.4270 -1.1813
23194SOL     OW73369   2.840   9.955   2.533  0.5139 -0.2738  0.1679
23194SOL    HW173370   2.748   9.939   2.511  0.2525  1.0819  0.2302
23194SOL    HW273371   2.888   9.884   2.488 -0.3335  0.4361 -1.9574
23195SOL     OW73372   7.399   1.012   2.300  0.0950  0.1737  0.2159
23195SOL    HW173373   7.404   0.943   2.233  3.0466 -0.1694  0.6600
23195SOL    HW273374   7.464   1.077   2.272  1.6970 -0.1502  2.8712
23196SOL     OW73375   2.737   3.726   7.598  0.5136  0.1578  0.4633
23196SOL    HW173376   2.812   3.734   7.538  1.1752  0.1112  1.2671
23196SOL    HW273377   2.716   3.816   7.622  0.3706  0.1637  0.3216
23197SOL     OW73378   1.727   9.622   9.074  0.0772  0.4524 -0.7427
23197SOL    HW173379   1.723   9.551   9.010 -0.1827  1.6875 -2.1619
23197SOL    HW273380   1.642   9.665   9.068  0.7501  1.8275 -1.0841
23198SOL     OW73381   9.910   1.300   9.048  0.0547 -0.6999 -0.0537
23198SOL    HW173382   9.919   1.243   8.971  0.5569 -0.9972  0.2170
23198SOL    HW273383   9.866   1.245   9.112 -2.4119  0.2423 -0.8374
23199SOL     OW73384   3.732   0.185   5.493  0.7204  0.3527  0.4924
23199SOL    HW173385   3.679   0.217   5.566 -0.4279 -0.0256 -0.1400
23199SOL    HW273386   3.799   0.252   5.481  0.4174  0.8261  1.3557
23200SOL     OW73387   4.191   1.226  10.203 -0.0723 -0.2314 -0.5379
23200SOL    HW173388   4.110   1.276  10.202 -0.6904 -1.1755  0.0320
23200SOL    HW273389   4.260   1.291  10.200 -0.8322  0.7337  1.4183
23201SOL     OW73390   4.556   4.183   2.646 -0.0492  0.1960  0.4197
23201SOL    HW173391   4.542   4.276   2.660 -0.5769 -0.2240  3.2885
23201SOL    HW273392   4.616   4.179   2.571 -1.0641  2.7238 -0.6577
23202SOL     OW73393   4.673   1.944   9.179  0.2079 -0.0283 -0.4199
23202SOL    HW173394   4.668   2.030   9.138 -2.1037  0.3580  0.5362
23202SOL    HW273395   4.600   1.895   9.141 -0.4419 -0.4869  1.3251
23203SOL     OW73396   8.193   4.815   6.906 -0.7564 -0.1200  0.1079
23203SOL    HW173397   8.097   4.820   6.912 -0.7303 -1.1265  3.6269
23203SOL    HW273398   8.214   4.729   6.941  1.5036  0.4802  0.3469
23204SOL     OW73399   0.008   4.207   6.150 -0.0280  0.1819 -0.5167
23204SOL    HW173400   0.013   4.118   6.186  2.6854  0.0224 -1.0616
23204SOL    HW273401  -0.080   4.237   6.173 -1.0664 -2.6405 -0.3464
23205SOL     OW73402   9.635   1.649   9.959  0.6030  0.4987  0.2114
23205SOL    HW173403   9.558   1.653  10.017 -0.2295  0.3604 -0.8614
23205SOL    HW273404   9.672   1.737   9.962 -0.9148  1.2060 -1.0002
23206SOL     OW73405   1.654   9.477   0.578 -0.0921 -0.1667 -0.7093
23206SOL    HW173406   1.606   9.559   0.562 -0.1371  0.1413  0.8589
23206SOL    HW273407   1.586   9.412   0.593 -0.0440 -0.0051  0.2455
23207SOL     OW73408   7.318   6.464   4.977 -0.0713 -0.1693  0.3152
23207SOL    HW173409   7.312   6.376   4.939  1.1222 -0.0604 -0.1392
23207SOL    HW273410   7.249   6.465   5.044  0.0789 -1.5520  0.5230
23208SOL     OW73411   1.020   6.519   3.085  0.3116 -0.1487  0.1712
23208SOL    HW173412   0.934   6.555   3.109 -0.4807 -0.6576 -1.7171
23208SOL    HW273413   1.032   6.445   3.145  0.2790  0.9824  1.6380
23209SOL     OW73414   1.067   2.948   9.335  0.2273 -0.1205 -0.4976
23209SOL    HW173415   1.036   3.025   9.286  0.2111 -0.7667 -1.5384
23209SOL    HW273416   1.061   2.974   9.427  1.5241  1.6218 -0.8582
23210SOL     OW73417   5.492   2.463   5.241  0.4355  0.3573 -0.5291
23210SOL    HW173418   5.530   2.376   5.255  0.0333  0.3923  0.9270
23210SOL    HW273419   5.560   2.524   5.268  0.9149  0.5418 -2.0471
23211SOL     OW73420   6.552   3.836   9.999  0.7214 -0.1621  0.2112
23211SOL    HW173421   6.609   3.767   9.967 -0.9901 -1.3885 -0.3139
23211SOL    HW273422   6.565   3.909   9.939 -0.2320 -1.3911 -1.5570
23212SOL     OW73423   9.781   8.765   3.435  0.0839  0.0293 -0.2004
23212SOL    HW173424   9.812   8.850   3.403  0.5751  0.1423  0.5346
23212SOL    HW273425   9.686   8.771   3.430  0.1314  0.3778 -0.7719
23213SOL     OW73426   7.592   3.162   3.884  0.3575  0.2347 -0.3373
23213SOL    HW173427   7.640   3.165   3.967 -0.1055  1.5720 -0.0836
23213SOL    HW273428   7.616   3.244   3.840 -0.7324  0.3493 -0.7395
23214SOL     OW73429   7.335   7.973   3.983  0.2894  0.3836  0.5765
23214SOL    HW173430   7.247   7.978   4.022  0.1465 -0.2137  0.3439
23214SOL    HW273431   7.326   7.908   3.913  0.6361  1.1594 -0.2027
23215SOL     OW73432   7.326   1.249   0.169  0.1661  0.6893 -0.0410
23215SOL    HW173433   7.343   1.215   0.081 -0.5680  1.5881 -0.5352
23215SOL    HW273434   7.412   1.248   0.212  0.2933 -1.1161 -0.2590
23216SOL     OW73435   8.083   6.553   9.977  0.5807  0.8409 -0.1340
23216SOL    HW173436   8.082   6.624   9.913  1.0134  0.9837  0.0153
23216SOL    HW273437   8.148   6.491   9.943 -1.9807 -1.0992 -1.9879
23217SOL     OW73438  10.246   5.233   3.031 -0.8388 -0.2410 -0.1741
23217SOL    HW173439  10.183   5.162   3.029  0.0769 -1.1145  0.6253
23217SOL    HW273440  10.312   5.204   3.094  0.6228  0.4003 -1.3521
23218SOL     OW73441   7.040   0.135   0.458 -0.3913 -0.6266 -0.3703
23218SOL    HW173442   6.982   0.074   0.413 -1.0311  0.2265 -0.7286
23218SOL    HW273443   7.039   0.214   0.404  0.7848 -0.4426 -0.1591
23219SOL     OW73444   6.303   3.001   7.991 -0.2542 -0.2340  0.2629
23219SOL    HW173445   6.378   3.041   8.035 -0.0306  0.3891 -0.6749
23219SOL    HW273446   6.299   2.912   8.027  0.9344 -0.2795  0.3218
23220SOL     OW73447   7.297   2.120   1.972  0.6304  0.4147  0.0099
23220SOL    HW173448   7.357   2.052   1.941  1.9726  2.1333 -1.3860
23220SOL    HW273449   7.290   2.106   2.066 -0.6204 -2.7374 -0.4267
23221SOL     OW73450   0.226   9.743   0.661 -0.3429 -0.0074  0.1695
23221SOL    HW173451   0.237   9.711   0.571  1.1364  2.3561 -0.5961
23221SOL    HW273452   0.171   9.677   0.703  0.6751 -2.3089 -1.8237
23222SOL     OW73453   1.750   3.542   2.454 -0.0570  0.2741 -0.1728
23222SOL    HW173454   1.751   3.603   2.381  1.4908  1.7080  0.9626
23222SOL    HW273455   1.842   3.526   2.474 -0.4244 -0.0637  1.4536
23223SOL     OW73456   0.627   2.316   7.003 -0.8162  0.3806 -0.2647
23223SOL    HW173457   0.554   2.263   7.033 -1.2142  0.6583 -0.7378
23223SOL    HW273458   0.626   2.308   6.908 -0.0665  0.1739 -0.2617
23224SOL     OW73459   8.525   5.556   2.301  0.0774  0.3031  0.3757
23224SOL    HW173460   8.434   5.585   2.308 -1.1107 -3.0002  0.1415
23224SOL    HW273461   8.568   5.597   2.377 -1.9467  0.7649  1.3589
23225SOL     OW73462   8.150   5.139   7.684  0.5191 -0.4337  0.1118
23225SOL    HW173463   8.190   5.190   7.614 -0.8856  1.4359  0.5910
23225SOL    HW273464   8.195   5.168   7.764  1.6825 -2.0999  0.1350
23226SOL     OW73465   0.455   3.610   8.405  0.0631 -0.2922  0.4746
23226SOL    HW173466   0.395   3.603   8.331 -1.1984  0.0434  1.4382
23226SOL    HW273467   0.399   3.610   8.482  1.1917  1.5855  1.3681
23227SOL     OW73468   3.005   1.928   8.827 -0.4111  0.0796 -0.3678
23227SOL    HW173469   3.095   1.959   8.819 -0.0620 -0.5614  0.9350
23227SOL    HW273470   3.008   1.838   8.795 -0.6387  0.1092 -0.4791
23228SOL     OW73471   0.756   5.922   0.408  0.1361 -0.2897  0.0508
23228SOL    HW173472   0.761   5.826   0.401  1.8740 -0.2207 -0.0319
23228SOL    HW273473   0.846   5.950   0.421 -0.1167  1.4722 -1.5318
23229SOL     OW73474   2.253   6.557   0.320 -0.0200 -0.6367  0.3563
23229SOL    HW173475   2.168   6.515   0.322  0.4073 -1.7386 -1.6597
23229SOL    HW273476   2.249   6.616   0.245  0.0949  1.4656  1.9067
23230SOL     OW73477   5.312   0.514   3.926  0.5148  0.2931  0.6912
23230SOL    HW173478   5.250   0.449   3.895  0.2046  1.2095 -0.7018
23230SOL    HW273479   5.395   0.467   3.933 -0.3071 -1.0046  2.7955
23231SOL     OW73480   1.509   5.023   3.184 -0.0218 -0.2012 -0.6273
23231SOL    HW173481   1.530   5.098   3.239 -0.8397 -0.2043 -0.2955
23231SOL    HW273482   1.512   4.948   3.244 -0.1939 -0.2987 -0.7392
23232SOL     OW73483   9.225   2.177   5.219  0.2582  0.1361  0.0685
23232SOL    HW173484   9.130   2.184   5.217  0.2602  1.2351  1.8249
23232SOL    HW273485   9.250   2.162   5.128 -1.4652  1.7157 -0.7214
23233SOL     OW73486   7.551   7.677   7.302 -0.1054 -0.0061 -0.1217
23233SOL    HW173487   7.600   7.648   7.225  0.3368 -0.4237  0.3071
23233SOL    HW273488   7.618   7.687   7.370 -0.7090 -1.4678  0.7321
23234SOL     OW73489   7.321   0.491  10.025  0.5513 -0.4733  0.1617
23234SOL    HW173490   7.318   0.494   9.929 -2.4926  0.5726  0.1829
23234SOL    HW273491   7.350   0.402  10.045  2.4212 -0.3761 -1.6547
23235SOL     OW73492   0.937   6.725   3.436  0.2058 -0.0285  0.3688
23235SOL    HW173493   0.883   6.661   3.391  1.0311 -2.9401  3.1625
23235SOL    HW273494   1.024   6.685   3.440  1.0226  1.7198  1.3278
23236SOL     OW73495   8.469   2.358   3.854 -0.0359  0.3499 -0.2149
23236SOL    HW173496   8.412   2.358   3.778 -1.2675  0.8752  0.6729
23236SOL    HW273497   8.527   2.283   3.840 -2.1492 -1.3933 -0.3039
23237SOL     OW73498   9.284   4.618   8.583 -0.1305 -0.1189  0.4592
23237SOL    HW173499   9.307   4.708   8.606  1.2685 -0.3664  0.0919
23237SOL    HW273500   9.254   4.623   8.492  0.4513 -0.0980  0.2663
23238SOL     OW73501   5.006  10.302   9.585  0.3102 -0.5194  0.2378
23238SOL    HW173502   5.008  10.229   9.647  0.1012  0.1428  1.0317
23238SOL    HW273503   4.945  10.365   9.624 -0.5332 -0.4799 -1.0801
23239SOL     OW73504   0.857   7.860  10.297 -0.0918 -0.1136  0.5505
23239SOL    HW173505   0.899   7.774  10.302  0.3493  0.1493  1.6074
23239SOL    HW273506   0.776   7.851  10.348  0.1544  0.1992  1.0079
23240SOL     OW73507   8.179   4.380   6.026 -0.3168 -0.2737 -0.1412
23240SOL    HW173508   8.131   4.334   5.958 -1.1209 -1.0177  0.8996
23240SOL    HW273509   8.181   4.319   6.100 -0.4944  0.9387  0.9105
23241SOL     OW73510   3.831   8.705   0.486 -0.2148  0.3876  0.0393
23241SOL    HW173511   3.807   8.760   0.561 -0.4385  0.5134 -0.1226
23241SOL    HW273512   3.799   8.618   0.510 -0.6241  0.5033 -0.0673
23242SOL     OW73513   5.064   2.215   7.501  0.5554  0.1651 -0.6658
23242SOL    HW173514   4.969   2.216   7.490  0.2370  0.7101  1.5417
23242SOL    HW273515   5.098   2.260   7.424 -0.9911  0.2280 -1.3526
23243SOL     OW73516   1.508   2.352   7.665  0.5776 -0.3760 -0.1768
23243SOL    HW173517   1.576   2.326   7.727 -0.4035 -2.4220  0.1351
23243SOL    HW273518   1.460   2.271   7.648 -2.2478  1.1078  0.2044
23244SOL     OW73519   0.680   4.103   3.503 -0.0685 -0.1579  0.5999
23244SOL    HW173520   0.655   4.053   3.425 -1.1917  0.3813  0.5873
23244SOL    HW273521   0.649   4.192   3.485 -0.0616  0.0401  1.5212
23245SOL     OW73522   0.549   0.298   5.652  0.1352 -0.8375  0.6282
23245SOL    HW173523   0.532   0.225   5.712  1.3399 -0.5179  1.4144
23245SOL    HW273524   0.572   0.371   5.710  1.3616 -0.5221 -0.2103
23246SOL     OW73525   4.647   7.399  10.190  1.1251 -0.2679 -0.2631
23246SOL    HW173526   4.661   7.492  10.208  0.2510 -0.2540  0.4218
23246SOL    HW273527   4.616   7.362  10.273  0.7936 -1.0288 -0.7065
23247SOL     OW73528   4.189   2.437   7.515 -0.3177  0.6329 -0.7428
23247SOL    HW173529   4.194   2.429   7.610 -4.1039 -0.4134 -0.4684
23247SOL    HW273530   4.155   2.525   7.501 -3.7401 -0.5470 -0.7192
23248SOL     OW73531   8.596   3.470   6.725  0.1672 -0.1412 -0.1907
23248SOL    HW173532   8.673   3.498   6.775  0.1398  0.0455 -0.2535
23248SOL    HW273533   8.569   3.548   6.677 -0.1683 -0.1599 -0.0326
23249SOL     OW73534   2.810   1.756   7.431  0.5611 -0.6504 -0.0081
23249SOL    HW173535   2.736   1.699   7.455 -0.5273  0.3078 -0.9778
23249SOL    HW273536   2.839   1.724   7.346 -0.0407  0.1817 -0.5490
23250SOL     OW73537   2.225   0.683  10.125 -0.0600  0.4795  0.3965
23250SOL    HW173538   2.252   0.643  10.208 -0.9421  0.9285  0.9149
23250SOL    HW273539   2.307   0.714  10.086  0.6518 -1.8006 -0.0351
23251SOL     OW73540   8.378   8.188   7.000  0.2070 -0.1032 -0.4613
23251SOL    HW173541   8.455   8.132   7.003  1.0852  0.9849 -1.4810
23251SOL    HW273542   8.322   8.157   7.071  1.4795 -1.0669  0.1549
23252SOL     OW73543   8.777  10.112  10.348 -0.5369  0.1161  0.4863
23252SOL    HW173544   8.843  10.061  10.394  0.3499  0.3027 -0.5603
23252SOL    HW273545   8.693  10.082  10.385  0.1014 -0.2130  1.7290
23253SOL     OW73546   0.706   4.930   1.626 -0.7086  0.3233  0.0036
23253SOL    HW173547   0.655   4.866   1.676  1.7929 -1.9045 -0.1027
23253SOL    HW273548   0.750   4.983   1.693 -0.0955 -0.3769  0.1736
23254SOL     OW73549   8.596   2.295   9.124  0.0185  0.0627 -0.0549
23254SOL    HW173550   8.592   2.373   9.180 -1.8658  0.6846 -0.9827
23254SOL    HW273551   8.535   2.234   9.165  1.8254 -1.1750  0.9304
23255SOL     OW73552   6.970   5.265   2.092 -0.3369  0.3434 -0.2459
23255SOL    HW173553   6.894   5.222   2.132 -0.0335 -0.6928 -0.7277
23255SOL    HW273554   6.934   5.314   2.018 -0.5976  0.1886 -0.2259
23256SOL     OW73555   1.338   7.319   9.871 -0.3475 -0.1086  0.4934
23256SOL    HW173556   1.272   7.257   9.902  0.0651  0.4116  2.6017
23256SOL    HW273557   1.372   7.359   9.951 -1.5743  3.8884 -0.7344
23257SOL     OW73558  10.102   1.468   0.199  0.5518 -0.6566 -0.2163
23257SOL    HW173559  10.021   1.457   0.149  0.5146  1.6711 -0.7797
23257SOL    HW273560  10.159   1.517   0.141  1.9540 -1.2177  0.6400
23258SOL     OW73561   2.992   9.759   7.672 -0.0223 -0.4134  0.0156
23258SOL    HW173562   3.086   9.766   7.660  0.3236 -2.0191  1.2869
23258SOL    HW273563   2.982   9.720   7.759 -1.8280 -1.1033 -0.4431
23259SOL     OW73564   0.916   9.968   1.855  0.1514  0.0855 -0.1579
23259SOL    HW173565   0.972   9.935   1.926  0.3162 -0.7512 -0.6558
23259SOL    HW273566   0.966  10.038   1.816 -0.0251  0.6914  0.6717
23260SOL     OW73567   0.254   9.685   5.760  0.1789 -0.3872 -0.1272
23260SOL    HW173568   0.250   9.777   5.735 -1.0043 -0.6146 -0.8637
23260SOL    HW273569   0.324   9.680   5.826 -0.6193  1.2668  0.9035
23261SOL     OW73570   3.833   2.804   6.417  0.2843  0.5771 -0.2581
23261SOL    HW173571   3.881   2.736   6.370 -0.0069 -0.2886  0.6591
23261SOL    HW273572   3.793   2.758   6.491  1.7258  2.0723  1.5576
23262SOL     OW73573   0.260   9.517   4.933  0.3303 -0.0569 -0.0630
23262SOL    HW173574   0.246   9.424   4.921  0.5378 -0.0787 -0.1450
23262SOL    HW273575   0.306   9.545   4.854  0.4276  0.0794  0.0413
23263SOL     OW73576   6.213   9.270   0.922 -0.2861  0.1350 -0.1754
23263SOL    HW173577   6.196   9.281   1.016 -1.2476 -2.6633  0.0552
23263SOL    HW273578   6.231   9.359   0.891  0.0004  1.1593  2.6188
23264SOL     OW73579   4.375   7.153   2.898  0.2370 -0.2974  0.1825
23264SOL    HW173580   4.445   7.207   2.936  0.6249 -1.1983  0.8165
23264SOL    HW273581   4.333   7.113   2.974  1.4257 -2.6398 -0.2872
23265SOL     OW73582   7.367   8.675   3.679  0.1466 -0.6598 -0.0736
23265SOL    HW173583   7.331   8.589   3.701  0.5277 -0.3853  1.7963
23265SOL    HW273584   7.314   8.736   3.731  0.6716  0.1163 -0.4432
23266SOL     OW73585   4.055   2.002   0.336 -0.7146 -0.1492 -0.4794
23266SOL    HW173586   4.008   2.072   0.382  2.3241  1.4214  0.5379
23266SOL    HW273587   4.042   1.924   0.390 -0.5684  0.7219  0.8757
23267SOL     OW73588   2.505   3.769   1.651  0.2997  0.4139  0.1790
23267SOL    HW173589   2.527   3.740   1.739  1.8942 -2.7903 -1.1023
23267SOL    HW273590   2.410   3.777   1.651  0.1243 -1.1273  1.7857
23268SOL     OW73591   1.265   1.660   6.177  0.0370 -0.1232 -0.2387
23268SOL    HW173592   1.220   1.743   6.195 -0.0329 -0.5565  1.7721
23268SOL    HW273593   1.354   1.686   6.152  0.4068  0.5538  1.6265
23269SOL     OW73594   5.807   3.076   0.065 -0.2529 -0.0511  0.1681
23269SOL    HW173595   5.780   2.989   0.095  0.9645 -0.6819 -0.4997
23269SOL    HW273596   5.752   3.093  -0.011  1.3790 -1.4957 -1.4196
23270SOL     OW73597   1.219   2.995  10.179  0.1047  0.1286  0.9180
23270SOL    HW173598   1.143   3.007  10.237  1.5476  0.0586  2.9206
23270SOL    HW273599   1.279   3.066  10.203 -0.2705  1.7666 -2.3958
23271SOL     OW73600   2.432   6.808   9.753  0.0546  0.3774  0.8736
23271SOL    HW173601   2.361   6.867   9.725 -0.9843 -0.2509  2.0570
23271SOL    HW273602   2.475   6.782   9.672 -0.7692  1.1490  0.1564
23272SOL     OW73603   8.287   5.308   7.173  0.2485  0.0586 -0.1208
23272SOL    HW173604   8.321   5.219   7.186  1.7854  0.8736  1.8378
23272SOL    HW273605   8.195   5.302   7.201  0.2688 -0.9363 -0.2011
23273SOL     OW73606   1.164   4.191   5.796 -0.2762  0.3032  0.5740
23273SOL    HW173607   1.133   4.107   5.829 -0.0237 -0.6373 -1.4313
23273SOL    HW273608   1.253   4.174   5.766 -0.4939  1.0885 -0.5809
23274SOL     OW73609   4.640   1.484   0.538 -0.5246 -0.7311  0.0226
23274SOL    HW173610   4.609   1.488   0.447  0.3903  0.4211 -0.2683
23274SOL    HW273611   4.560   1.487   0.591 -0.9919  1.6546 -0.7027
23275SOL     OW73612   4.382   2.837   0.601  0.8445  0.1619  1.0944
23275SOL    HW173613   4.431   2.813   0.680 -0.1486  0.5797  1.8606
23275SOL    HW273614   4.363   2.930   0.611 -1.3772 -0.2697  1.5792
23276SOL     OW73615   3.877   3.313   3.070  0.0487 -0.7069 -0.4831
23276SOL    HW173616   3.891   3.260   3.148  2.2416  0.6660  0.1510
23276SOL    HW273617   3.952   3.373   3.069  0.0802 -0.6554 -3.6273
23277SOL     OW73618   4.053   5.247   2.022 -0.6621 -0.1300 -0.0851
23277SOL    HW173619   3.989   5.313   1.998 -0.8185 -0.0268  0.5919
23277SOL    HW273620   4.046   5.240   2.117  1.4422  1.0510  0.2188
23278SOL     OW73621   7.609   4.965  10.290  0.3966 -0.3036 -0.3182
23278SOL    HW173622   7.666   5.042  10.282 -3.2851  3.1932  2.9339
23278SOL    HW273623   7.540   4.979  10.225 -0.2056 -0.9650  0.1656
23279SOL     OW73624   6.955   5.124   7.258  0.1823 -0.5042 -0.8103
23279SOL    HW173625   6.966   5.109   7.351  1.3143  1.0397 -0.6677
23279SOL    HW273626   6.871   5.170   7.251  0.6683  0.4823 -0.3961
23280SOL     OW73627   7.654   0.748   5.321  0.0173 -0.1839 -0.3683
23280SOL    HW173628   7.646   0.652   5.323  0.5618 -0.2799 -1.6243
23280SOL    HW273629   7.696   0.770   5.404  1.9217 -1.2699 -0.9740
23281SOL     OW73630   9.929   8.410   8.456 -0.1142 -0.0587  0.3407
23281SOL    HW173631   9.938   8.366   8.372  0.4144 -1.2554  0.9966
23281SOL    HW273632   9.846   8.378   8.492  1.4013 -2.6173  1.9274
23282SOL     OW73633   2.109   8.560   4.579 -0.3428 -0.3242  0.6530
23282SOL    HW173634   2.024   8.537   4.540 -1.0378  1.4392  1.0201
23282SOL    HW273635   2.158   8.601   4.508 -0.5334  0.3614  0.9121
23283SOL     OW73636   2.613   7.168   2.902  0.1299  0.6840 -0.1159
23283SOL    HW173637   2.523   7.185   2.930 -0.6954 -0.4191 -1.9523
23283SOL    HW273638   2.610   7.081   2.863  1.9871  0.6705 -0.3175
23284SOL     OW73639   4.228   3.583   2.488  0.3344  0.5339 -0.3404
23284SOL    HW173640   4.233   3.652   2.554  1.4859  0.7023 -0.5850
23284SOL    HW273641   4.220   3.502   2.539 -0.2664  0.7720 -0.0392
23285SOL     OW73642   7.969   3.627  10.339 -0.0586 -0.1377 -0.5421
23285SOL    HW173643   7.907   3.601  10.407  0.7286  0.1360  0.2968
23285SOL    HW273644   7.968   3.723  10.340 -1.3825 -0.0855 -2.1820
23286SOL     OW73645   5.588   3.533   8.609  0.3520  0.4660  0.4573
23286SOL    HW173646   5.660   3.567   8.556 -1.0522  0.3286 -1.6773
23286SOL    HW273647   5.623   3.455   8.650  1.1616 -0.1876 -1.3620
23287SOL     OW73648   7.272   3.737   9.680  0.1365  0.0247 -0.3390
23287SOL    HW173649   7.257   3.793   9.604  0.7690  0.3625 -0.2264
23287SOL    HW273650   7.214   3.772   9.747  1.6146  1.5782  0.2251
23288SOL     OW73651   5.825   2.077   2.513  0.0949 -0.4787  0.3068
23288SOL    HW173652   5.849   2.006   2.573 -1.0974 -2.0568 -1.0037
23288SOL    HW273653   5.743   2.111   2.548  1.1029  0.8945  1.4264
23289SOL     OW73654   1.586   8.575   2.909 -1.1395  0.5197  0.0423
23289SOL    HW173655   1.647   8.502   2.923 -1.4198  0.0413 -1.1097
23289SOL    HW273656   1.551   8.595   2.996 -0.5649 -0.2801  0.4663
23290SOL     OW73657   2.450   5.359   6.199  0.6420 -0.6291 -0.0938
23290SOL    HW173658   2.456   5.453   6.216  0.1704 -0.4210 -1.0427
23290SOL    HW273659   2.538   5.326   6.219  0.6733 -0.0757  0.7217
23291SOL     OW73660   6.084   4.929   6.985 -0.4835 -0.0919  0.1078
23291SOL    HW173661   6.148   4.887   7.041  0.5627  1.1791 -0.0683
23291SOL    HW273662   6.020   4.861   6.965  1.1667 -1.6073 -0.2475
23292SOL     OW73663   8.495   0.198  10.278 -0.2382 -0.1590  0.0094
23292SOL    HW173664   8.473   0.178  10.369 -0.7312 -0.0785 -0.0878
23292SOL    HW273665   8.413   0.231  10.240  0.0992  0.2942 -0.3272
23293SOL     OW73666   7.790   6.426   4.199  0.0860  0.3627 -0.7192
23293SOL    HW173667   7.695   6.425   4.204  0.1166 -0.8137  0.2777
23293SOL    HW273668   7.818   6.467   4.281  0.4428  0.2215 -0.7663
23294SOL     OW73669   6.187  10.022   9.041  0.3670  0.1192 -0.1222
23294SOL    HW173670   6.129  10.097   9.059 -1.0649 -1.4411  2.3265
23294SOL    HW273671   6.127   9.951   9.019  1.3575 -1.3423  1.7140
23295SOL     OW73672   3.810   1.868   9.410  0.2168  0.1055 -0.0447
23295SOL    HW173673   3.899   1.835   9.415  0.1219 -0.0913  0.3858
23295SOL    HW273674   3.763   1.803   9.359 -0.0084 -0.5243  0.9403
23296SOL     OW73675   6.448   6.802   1.565 -0.3471  0.3820  0.4025
23296SOL    HW173676   6.510   6.735   1.538  0.1343  1.8729 -2.6000
23296SOL    HW273677   6.367   6.754   1.584  0.6856 -1.2367  0.8990
23297SOL     OW73678   8.400   4.239   9.753 -0.2066  0.1372  0.6952
23297SOL    HW173679   8.377   4.146   9.764  0.5199  0.0937  1.9528
23297SOL    HW273680   8.494   4.243   9.771 -0.4194  1.2702  1.6580
23298SOL     OW73681   8.910  10.348   7.385  0.0519 -0.3914  0.2047
23298SOL    HW173682   8.871  10.265   7.359 -1.7292  0.0088  1.4302
23298SOL    HW273683   8.884  10.360   7.477  0.2629  1.5175  0.0672
23299SOL     OW73684   6.873  10.331   6.950  1.1059  0.2040  0.0241
23299SOL    HW173685   6.831  10.384   6.883  1.4524 -1.7925 -1.8827
23299SOL    HW273686   6.906  10.394   7.014 -1.2961  2.0526 -0.4157
23300SOL     OW73687   1.303   0.134   3.505 -0.2257  0.4451 -0.2893
23300SOL    HW173688   1.289   0.229   3.511 -2.3610  0.8756 -5.7661
23300SOL    HW273689   1.388   0.125   3.461  0.3912 -0.3178  0.9991
23301SOL     OW73690   5.445   5.130   2.843 -0.0532  0.7321  0.1076
23301SOL    HW173691   5.413   5.041   2.864  1.5022 -0.3112 -1.6568
23301SOL    HW273692   5.373   5.187   2.870 -1.3738 -1.1007  0.7637
23302SOL     OW73693   8.907   4.807   0.966  0.1208  0.0973  0.6113
23302SOL    HW173694   8.978   4.868   0.983 -0.9342  1.3482  0.6996
23302SOL    HW273695   8.950   4.724   0.945  1.5933  0.9391  0.2222
23303SOL     OW73696   5.088   9.364   0.167 -0.4838 -0.1141 -0.0396
23303SOL    HW173697   5.103   9.339   0.076  0.2414 -0.9173  0.2856
23303SOL    HW273698   5.157   9.320   0.216 -1.1285 -0.0562  0.9562
23304SOL     OW73699   6.662   6.326   4.620  0.3706  0.2040  0.0385
23304SOL    HW173700   6.569   6.339   4.599  0.6798  1.5812 -0.5948
23304SOL    HW273701   6.708   6.342   4.537  0.9822 -4.5535 -0.7913
23305SOL     OW73702   4.688   3.496   4.980 -0.0302  0.3958  0.0391
23305SOL    HW173703   4.706   3.475   5.072 -1.2592 -2.2270 -0.2221
23305SOL    HW273704   4.772   3.524   4.945  0.9305 -0.4788  1.5060
23306SOL     OW73705   2.170   6.991   8.022 -0.0241  0.6265  0.0445
23306SOL    HW173706   2.205   6.993   8.111  0.4269  1.6628 -0.1381
23306SOL    HW273707   2.164   6.898   8.001 -2.3523  0.2297  1.9937
23307SOL     OW73708   1.238   3.799   4.907  0.4810 -0.5590  0.1256
23307SOL    HW173709   1.245   3.796   5.002 -0.1035  0.6644  0.2274
23307SOL    HW273710   1.217   3.709   4.881 -1.0412 -0.5849  1.3078
23308SOL     OW73711   0.893   2.299   9.770  0.2720  0.4918  0.1549
23308SOL    HW173712   0.898   2.364   9.700  0.3291 -1.2237 -1.5289
23308SOL    HW273713   0.810   2.318   9.814  1.1013  2.7564  0.8741
23309SOL     OW73714   6.716   5.136   8.346  0.5675 -0.0878  0.0979
23309SOL    HW173715   6.632   5.089   8.335 -0.6611  2.1158 -0.4801
23309SOL    HW273716   6.753   5.100   8.426 -0.7952 -1.2964  0.2378
23310SOL     OW73717   0.478   8.270   6.339 -0.4813 -0.2953  0.3668
23310SOL    HW173718   0.392   8.312   6.328 -0.5459 -0.5079  0.0346
23310SOL    HW273719   0.476   8.234   6.428 -0.8456 -0.5325  0.2665
23311SOL     OW73720   2.160   2.394   0.474  0.4483 -0.3070  0.4992
23311SOL    HW173721   2.129   2.478   0.508  0.4772 -0.5863  1.2252
23311SOL    HW273722   2.227   2.418   0.409 -0.2740  0.2582 -0.0643
23312SOL     OW73723   3.851   2.686   0.622 -0.1525 -0.4977  0.4538
23312SOL    HW173724   3.868   2.633   0.700  0.2874 -1.9409 -0.5782
23312SOL    HW273725   3.927   2.671   0.565 -0.9541 -0.3281 -0.7030
23313SOL     OW73726   7.590   8.242   1.660  0.1313  0.2419 -0.0195
23313SOL    HW173727   7.651   8.315   1.670  1.3057 -0.4833 -1.4713
23313SOL    HW273728   7.629   8.170   1.710  0.3055 -0.1115 -0.6407
23314SOL     OW73729   6.135   1.780   8.480  1.0301 -0.0635 -0.2031
23314SOL    HW173730   6.121   1.773   8.574 -1.4221  0.7129 -0.4415
23314SOL    HW273731   6.078   1.713   8.442 -1.1679  2.2187 -1.2323
23315SOL     OW73732   6.148   5.704   4.181  0.4058  0.2704  1.1595
23315SOL    HW173733   6.223   5.741   4.228  1.7173 -0.4760 -0.2335
23315SOL    HW273734   6.188   5.650   4.113 -1.4361 -1.4681  1.3896
23316SOL     OW73735   8.012   5.278   8.027  0.6148  0.0481 -0.3160
23316SOL    HW173736   7.948   5.343   8.057  0.5699  0.4854 -1.3280
23316SOL    HW273737   8.058   5.252   8.107 -0.1206  0.4954  0.2713
23317SOL     OW73738   3.102   4.318   6.579 -0.0822  0.6783 -0.1916
23317SOL    HW173739   3.094   4.411   6.555  1.9525  0.6306 -1.3352
23317SOL    HW273740   3.145   4.278   6.503 -1.3190 -1.3211  0.0994
23318SOL     OW73741   0.716  10.343   6.734 -0.4097 -0.2813 -0.1008
23318SOL    HW173742   0.738  10.255   6.762  0.3530  0.6084  2.4310
23318SOL    HW273743   0.722  10.341   6.639  1.7225 -2.3965 -0.0014
23319SOL     OW73744   8.059   1.277   5.961  0.2894 -0.5444 -0.0757
23319SOL    HW173745   8.121   1.205   5.971 -0.3544 -1.1665 -0.5015
23319SOL    HW273746   7.992   1.243   5.902 -0.0282  0.4024 -0.2738
23320SOL     OW73747   3.929  10.089   9.782  0.6395  0.2907 -0.4188
23320SOL    HW173748   3.941  10.178   9.750 -1.8462  1.3539  1.2721
23320SOL    HW273749   3.901  10.100   9.873 -1.1701 -2.1339 -0.5920
23321SOL     OW73750   8.776   8.389   9.521  0.0512 -0.3917 -0.2302
23321SOL    HW173751   8.748   8.346   9.602  0.3571  0.7672  0.5189
23321SOL    HW273752   8.838   8.456   9.550 -0.5156  0.6429 -1.3327
23322SOL     OW73753   3.120  10.077   8.247 -0.0052 -0.1561 -0.2125
23322SOL    HW173754   3.215  10.085   8.253 -0.0563  0.1296  0.2752
23322SOL    HW273755   3.086  10.159   8.283 -0.4111  0.4730 -1.9096
23323SOL     OW73756   6.736   5.193   4.598  0.0249  0.3984  0.1072
23323SOL    HW173757   6.642   5.206   4.585 -0.4414 -2.0366  0.6210
23323SOL    HW273758   6.756   5.240   4.680 -1.6568 -2.2982  2.2239
23324SOL     OW73759   5.481   5.770   4.157  0.8722  0.0447  0.4536
23324SOL    HW173760   5.396   5.740   4.126  0.4684 -0.0518  1.5996
23324SOL    HW273761   5.544   5.730   4.097  0.1342 -0.0995 -0.2464
23325SOL     OW73762   5.824   1.292   6.410 -0.3565  0.5668 -0.2132
23325SOL    HW173763   5.889   1.292   6.340 -1.4710  0.7938 -1.2874
23325SOL    HW273764   5.864   1.241   6.480  1.4950  1.7553 -0.3222
23326SOL     OW73765   7.675   2.968   7.751 -0.0072  0.1562  0.1108
23326SOL    HW173766   7.623   3.004   7.823  0.2515  2.5248 -0.7978
23326SOL    HW273767   7.658   2.874   7.754 -1.6207  0.4424  1.9709
23327SOL     OW73768   1.095   1.525   8.172 -0.0910  0.4540  0.6356
23327SOL    HW173769   1.175   1.575   8.159  0.4101 -0.4847 -0.0122
23327SOL    HW273770   1.026   1.591   8.176  0.7395  1.2997  1.5117
23328SOL     OW73771   1.454   9.845   7.452 -0.4215  0.0913 -0.2821
23328SOL    HW173772   1.547   9.836   7.474 -0.3292  0.0219 -0.6891
23328SOL    HW273773   1.420   9.756   7.457 -0.3027  0.0136 -0.8438
23329SOL     OW73774   7.781   7.672   1.301 -0.2556 -0.4105  0.2607
23329SOL    HW173775   7.742   7.593   1.336 -1.2184 -0.0726 -0.0200
23329SOL    HW273776   7.723   7.743   1.328  1.2343  0.3840  1.5580
23330SOL     OW73777   1.070   9.424   3.118 -0.1700  0.2488  0.0158
23330SOL    HW173778   1.109   9.403   3.033 -0.7481  1.6917 -0.6191
23330SOL    HW273779   1.024   9.507   3.105 -0.5310  0.3485  1.6583
23331SOL     OW73780   7.663   7.364  10.345 -0.5563  0.2061 -0.0325
23331SOL    HW173781   7.630   7.299  10.283  1.3976 -1.0889  0.2071
23331SOL    HW273782   7.714   7.313  10.408 -1.3511  1.6433  1.8859
23332SOL     OW73783   2.623   9.301   1.527  0.6912  0.6783 -0.3330
23332SOL    HW173784   2.572   9.280   1.605  0.8043 -1.4581 -0.7626
23332SOL    HW273785   2.559   9.337   1.465 -0.4384 -1.9934 -0.8823
23333SOL     OW73786  10.040   2.386   3.516  0.0045  0.2278  0.3212
23333SOL    HW173787  10.053   2.454   3.450  0.3213 -1.4291 -1.4115
23333SOL    HW273788  10.056   2.303   3.469 -2.2995 -1.1717  1.7816
23334SOL     OW73789   2.264   8.689   5.496  0.1844  0.4494  0.9150
23334SOL    HW173790   2.351   8.728   5.503  0.9309 -1.1782  1.0249
23334SOL    HW273791   2.263   8.648   5.410 -0.1631 -0.2338  1.2357
23335SOL     OW73792   1.361   4.798   2.539  0.4487  0.0357  0.2250
23335SOL    HW173793   1.288   4.759   2.587  0.5718 -0.0942  0.3067
23335SOL    HW273794   1.426   4.728   2.533  0.6685  0.2262  0.3687
23336SOL     OW73795   7.781   6.825   9.054 -0.6567 -0.1671 -0.6199
23336SOL    HW173796   7.812   6.911   9.023 -1.8328  0.7225  0.5434
23336SOL    HW273797   7.766   6.775   8.974  1.6125  0.0866 -1.2964
23337SOL     OW73798   0.944   6.153   3.471 -0.4708 -0.0600  0.1961
23337SOL    HW173799   0.971   6.149   3.563 -0.4362  1.6871  0.2823
23337SOL    HW273800   0.877   6.222   3.468  0.8884  1.2713 -1.3928
23338SOL     OW73801   0.100  10.011   7.499  0.0073  0.6239 -0.0294
23338SOL    HW173802   0.182  10.007   7.547  0.6117 -2.0302 -1.1172
23338SOL    HW273803   0.126  10.023   7.408 -0.9159  1.4224 -0.2101
23339SOL     OW73804   1.244   3.072   7.853 -0.8330  0.3832  0.2887
23339SOL    HW173805   1.286   3.034   7.930 -2.2562 -1.4336  0.2487
23339SOL    HW273806   1.266   3.165   7.857  1.3130 -0.1212  1.4058
23340SOL     OW73807   9.721   1.768   4.357 -0.5378  0.0674 -0.2821
23340SOL    HW173808   9.795   1.825   4.376 -0.8813  0.3012  0.3732
23340SOL    HW273809   9.759   1.680   4.353 -0.5562 -0.1265  2.3727
23341SOL     OW73810   1.507   6.782   8.633  0.3690  0.9693  0.6194
23341SOL    HW173811   1.441   6.846   8.605  1.7639  1.9389 -0.6218
23341SOL    HW273812   1.488   6.704   8.580 -0.7110  0.6790  1.3990
23342SOL     OW73813   7.163   5.469   7.138  0.3353  0.7449  0.6248
23342SOL    HW173814   7.085   5.517   7.166 -0.0908 -0.4810  1.6504
23342SOL    HW273815   7.137   5.427   7.056 -0.3973 -0.3180  1.3683
23343SOL     OW73816   9.590   4.647   5.783 -0.4372  0.1146  0.0321
23343SOL    HW173817   9.670   4.675   5.740 -0.0705 -0.2422  0.4822
23343SOL    HW273818   9.610   4.560   5.818 -1.2757 -0.3393 -0.5770
23344SOL     OW73819   0.612   7.854   8.893  0.0984 -0.0581 -0.1153
23344SOL    HW173820   0.567   7.931   8.857  1.6914  1.5610  1.1440
23344SOL    HW273821   0.684   7.891   8.945  1.7918 -2.4524 -0.5993
23345SOL     OW73822   5.789   8.296   8.957 -0.0772  0.7736  0.2468
23345SOL    HW173823   5.708   8.271   8.913  0.1014 -0.3403  0.5245
23345SOL    HW273824   5.843   8.218   8.954  0.6947  1.2716  0.7502
23346SOL     OW73825   4.418   5.554   3.823 -0.3731  0.2110  0.2159
23346SOL    HW173826   4.402   5.470   3.780 -2.8374  1.6619 -2.0126
23346SOL    HW273827   4.338   5.571   3.873  0.2525  1.0621  0.9434
23347SOL     OW73828   1.863   4.999   0.010 -0.0289 -0.2546 -0.0151
23347SOL    HW173829   1.840   4.973   0.099 -0.4168  0.3015  0.0518
23347SOL    HW273830   1.959   4.990   0.006 -0.1810 -2.1331 -0.1513
23348SOL     OW73831   0.350   2.778   1.374  0.1833 -0.7086 -0.2963
23348SOL    HW173832   0.338   2.698   1.425 -0.0512  0.1336  1.0202
23348SOL    HW273833   0.266   2.792   1.330 -0.9721  0.5620  2.1195
23349SOL     OW73834   1.271   3.445   7.606 -0.1572  0.0582  0.2975
23349SOL    HW173835   1.294   3.352   7.598  0.8314  0.4115 -1.3225
23349SOL    HW273836   1.350   3.486   7.641 -0.0919  0.5139 -0.3846
23350SOL     OW73837   7.298   9.857   1.163  0.7225  0.4279  0.1175
23350SOL    HW173838   7.335   9.935   1.122  0.5658 -0.4694 -1.8297
23350SOL    HW273839   7.229   9.890   1.221  0.5171  1.7145 -0.8396
23351SOL     OW73840   8.256   1.832   0.623 -0.2730 -0.3255 -0.2197
23351SOL    HW173841   8.203   1.808   0.547  0.2272  0.5519 -0.8698
23351SOL    HW273842   8.346   1.822   0.594 -0.0505  1.4620 -0.2733
23352SOL     OW73843   7.377   5.156   5.807 -0.0166 -0.1846  0.1989
23352SOL    HW173844   7.427   5.220   5.757 -0.6445  0.0006 -0.2016
23352SOL    HW273845   7.425   5.146   5.889  0.2691  0.5349  0.1204
23353SOL     OW73846   7.551   8.984   5.309 -0.5737  0.9186  0.3829
23353SOL    HW173847   7.588   9.026   5.231  0.3817 -0.0412  0.3000
23353SOL    HW273848   7.627   8.960   5.362 -1.1644  0.5379  1.0707
23354SOL     OW73849   7.501   9.934   5.350 -0.3979 -0.0033  0.3375
23354SOL    HW173850   7.559   9.883   5.406  0.7437 -0.7361 -1.4100
23354SOL    HW273851   7.413   9.919   5.385  0.1493 -1.4489  1.1419
23355SOL     OW73852   4.671   8.823   9.542  0.7358  1.1089 -0.3486
23355SOL    HW173853   4.743   8.768   9.573 -1.1569 -0.1914  2.1800
23355SOL    HW273854   4.711   8.881   9.477  4.0884  0.6652  1.0964
23356SOL     OW73855   8.773   8.525   5.797 -0.4518 -0.0013  0.0838
23356SOL    HW173856   8.707   8.456   5.805 -1.4330  0.9212  0.2695
23356SOL    HW273857   8.726   8.605   5.821  0.2932  0.9151 -1.3833
23357SOL     OW73858   0.653   9.842   8.080  0.1182 -0.5770 -0.1852
23357SOL    HW173859   0.607   9.921   8.052  0.2444 -0.4842 -0.1322
23357SOL    HW273860   0.668   9.855   8.174  0.9010 -0.2759 -0.3457
23358SOL     OW73861   7.979   3.201   4.924  0.3042  0.0103 -0.7757
23358SOL    HW173862   7.972   3.274   4.986  0.3970 -0.0850 -0.6529
23358SOL    HW273863   8.070   3.202   4.896  0.2035  0.2122 -1.1084
23359SOL     OW73864   3.391   3.459   7.198  0.2781  0.0400  0.0459
23359SOL    HW173865   3.301   3.427   7.193  0.3474 -0.0297 -1.0000
23359SOL    HW273866   3.445   3.380   7.192  0.4111 -0.0494  2.0089
23360SOL     OW73867   3.142   2.280   6.885  0.5930 -0.1544 -0.8881
23360SOL    HW173868   3.067   2.299   6.941 -0.5669 -1.7891 -1.7703
23360SOL    HW273869   3.218   2.309   6.934 -0.5591  0.6817  0.4520
23361SOL     OW73870   1.055   9.822   8.515 -0.1634 -0.1434  0.6287
23361SOL    HW173871   1.085   9.848   8.602 -1.9106  1.9146  0.6920
23361SOL    HW273872   0.999   9.746   8.531  1.4581 -1.3485  0.9517
23362SOL     OW73873   9.077   5.428   0.571  0.3563  0.5605  0.1578
23362SOL    HW173874   9.018   5.486   0.618 -0.6572  1.0460 -1.6518
23362SOL    HW273875   9.032   5.344   0.569  1.5684 -0.2440  2.2634
23363SOL     OW73876   1.638   9.278   4.701  0.3319  0.4086  0.1793
23363SOL    HW173877   1.695   9.350   4.730  0.9575  0.1853 -0.4769
23363SOL    HW273878   1.628   9.223   4.779 -0.4783  1.3902  0.8082
23364SOL     OW73879  10.279   4.346   3.333  0.2429  0.3970 -0.6963
23364SOL    HW173880  10.365   4.341   3.375  0.2154  2.7587 -0.2352
23364SOL    HW273881  10.217   4.320   3.402  0.5183 -0.5394 -0.7934
23365SOL     OW73882   8.660   7.391   9.342  0.3348 -0.2432  0.3141
23365SOL    HW173883   8.578   7.406   9.295 -0.0337  1.0753  1.3222
23365SOL    HW273884   8.728   7.418   9.281  0.1545 -2.6110 -1.0527
23366SOL     OW73885   7.762   9.420   7.964 -0.3314  0.5639 -0.2527
23366SOL    HW173886   7.811   9.490   7.920 -1.5508  0.3435 -2.0677
23366SOL    HW273887   7.676   9.420   7.922 -0.2081 -2.3584 -0.7274
23367SOL     OW73888   8.657   6.626   5.787 -0.1441  0.1604 -0.2690
23367SOL    HW173889   8.652   6.597   5.878 -1.6806 -1.9942 -0.9739
23367SOL    HW273890   8.738   6.586   5.754  0.4058  0.9293  0.1095
23368SOL     OW73891   3.643   6.349   5.256 -0.4743  0.4230 -0.8029
23368SOL    HW173892   3.680   6.260   5.259 -0.8821  0.2835  0.9210
23368SOL    HW273893   3.667   6.381   5.169  0.7326 -0.9253 -1.0186
23369SOL     OW73894   2.398   6.873   6.475  0.4373  1.0634 -0.6845
23369SOL    HW173895   2.323   6.813   6.475  1.4983 -0.3920  1.0389
23369SOL    HW273896   2.394   6.917   6.390 -1.8975  0.4723 -0.9571
23370SOL     OW73897   4.471   0.384   7.927  0.1095  0.0335 -0.1263
23370SOL    HW173898   4.458   0.461   7.981 -1.2393 -1.1140  1.2949
23370SOL    HW273899   4.477   0.311   7.989 -1.6249 -1.3533 -1.4625
23371SOL     OW73900   4.702   7.900   9.752  0.2628 -0.4539 -0.4745
23371SOL    HW173901   4.764   7.852   9.698  1.1166 -0.2933  0.3272
23371SOL    HW273902   4.748   7.982   9.774 -0.7154  0.2180 -0.8780
23372SOL     OW73903   0.682   8.497   7.770 -0.0799  0.4072 -0.2951
23372SOL    HW173904   0.718   8.451   7.694 -0.0347 -0.2133  0.0964
23372SOL    HW273905   0.671   8.429   7.836  2.9383  1.3872  1.4329
23373SOL     OW73906   5.572   6.614   3.273 -0.1394  0.2625 -0.0284
23373SOL    HW173907   5.500   6.572   3.319 -0.1675  1.4632  1.0431
23373SOL    HW273908   5.592   6.553   3.201 -2.6465  0.2166 -0.7967
23374SOL     OW73909   5.987   8.313   4.757  0.3954  0.2853  0.4173
23374SOL    HW173910   5.985   8.221   4.783 -2.3667  0.1370  0.0421
23374SOL    HW273911   6.057   8.318   4.692 -0.7098 -2.0756 -1.1302
23375SOL     OW73912   3.831   7.577   3.697  0.2356  0.0407 -0.3888
23375SOL    HW173913   3.792   7.490   3.683  0.7229 -0.1667 -0.4623
23375SOL    HW273914   3.902   7.582   3.633 -0.0464  0.6557 -0.6598
23376SOL     OW73915   3.484   5.914   6.442  0.0664 -0.3608  0.0763
23376SOL    HW173916   3.570   5.909   6.401  0.7740 -1.3267  1.5843
23376SOL    HW273917   3.433   5.971   6.385  1.6780  0.1606 -0.8969
23377SOL     OW73918   5.357   1.606   0.690  0.1470 -0.3152  0.2994
23377SOL    HW173919   5.438   1.639   0.652 -0.4918  0.0124 -0.7987
23377SOL    HW273920   5.385   1.564   0.771  1.2489  1.0392  0.6723
23378SOL     OW73921   2.679   9.113   0.832  0.6158 -0.0355 -0.0976
23378SOL    HW173922   2.595   9.131   0.874  1.6139 -0.7951  2.4946
23378SOL    HW273923   2.657   9.065   0.753 -1.4261  1.0129 -0.2205
23379SOL     OW73924   0.094   7.659   9.361 -0.5892 -0.0926  0.3787
23379SOL    HW173925   0.169   7.703   9.322 -1.7784  0.4364 -1.4192
23379SOL    HW273926   0.066   7.717   9.432 -0.4990  0.6988 -0.2196
23380SOL     OW73927   9.632   7.092   5.443 -0.5554 -0.3523  0.0833
23380SOL    HW173928   9.712   7.110   5.493  0.3593 -1.2482 -1.0015
23380SOL    HW273929   9.587   7.025   5.495  1.8207 -3.5204 -1.5116
23381SOL     OW73930   2.301   1.201   4.461 -0.3255 -0.1378 -0.0622
23381SOL    HW173931   2.264   1.218   4.547  1.1463  0.4361  0.5000
23381SOL    HW273932   2.275   1.111   4.441 -1.9641  0.2336  0.2723
23382SOL     OW73933   8.600   9.268   5.537 -0.7769 -0.5080  0.4936
23382SOL    HW173934   8.686   9.231   5.517 -0.3726 -0.4570  2.0369
23382SOL    HW273935   8.608   9.361   5.517 -0.0455 -0.2599  1.8289
23383SOL     OW73936   9.616   2.396   6.310  0.4168  0.3729  0.0646
23383SOL    HW173937   9.669   2.418   6.233  1.3785  0.2440  0.6816
23383SOL    HW273938   9.639   2.461   6.376  0.1797  0.0130  0.5107
23384SOL     OW73939   8.352   7.606   2.516 -0.6516  0.3547 -0.1055
23384SOL    HW173940   8.352   7.639   2.606  1.2479  0.8761 -0.2676
23384SOL    HW273941   8.309   7.676   2.465  1.4855  1.7445 -0.1205
23385SOL     OW73942  10.045   2.621   1.730 -0.1271 -0.1070  0.5401
23385SOL    HW173943  10.022   2.713   1.721 -0.7133 -0.3578 -0.8534
23385SOL    HW273944  10.116   2.607   1.666  0.9173 -0.3298  1.7090
23386SOL     OW73945   7.875   1.470   5.986  0.1027 -0.5050  0.1939
23386SOL    HW173946   7.823   1.448   5.908 -0.6187  0.9981  0.2040
23386SOL    HW273947   7.953   1.416   5.979 -0.4412 -1.1754 -1.0174
23387SOL     OW73948   4.588   1.013   2.876  0.0984 -0.4845 -0.5775
23387SOL    HW173949   4.620   0.926   2.901 -0.9219 -0.8755 -0.6080
23387SOL    HW273950   4.597   1.016   2.781  0.9811 -0.2014 -0.4966
23388SOL     OW73951  10.005   8.986   7.590 -0.2453  0.2952  0.0254
23388SOL    HW173952   9.973   9.012   7.504  0.3255  2.0961  0.3100
23388SOL    HW273953   9.941   8.922   7.621 -1.1198  0.5231 -1.2293
23389SOL     OW73954   9.048   3.166   4.578  0.5007  0.3670 -0.4249
23389SOL    HW173955   9.092   3.126   4.653  0.2820  0.4083 -0.2748
23389SOL    HW273956   8.956   3.172   4.604  0.9376  4.1829  1.0340
23390SOL     OW73957   2.303   7.708   1.398 -0.0895  0.0400  0.1213
23390SOL    HW173958   2.272   7.768   1.466  0.8671  1.6039 -0.7860
23390SOL    HW273959   2.247   7.630   1.409 -1.6779  1.2374  1.0313
23391SOL     OW73960   8.864   0.713   5.186 -0.3383  0.2396 -0.3433
23391SOL    HW173961   8.898   0.707   5.096  1.4171  2.8948  0.0251
23391SOL    HW273962   8.834   0.803   5.194  2.5917  1.1481  2.6379
23392SOL     OW73963   6.562   4.590   1.468 -0.0252  0.3559  0.0850
23392SOL    HW173964   6.509   4.513   1.449 -0.9760  1.0610 -0.1825
23392SOL    HW273965   6.614   4.565   1.544  2.0593 -1.6627 -1.8767
23393SOL     OW73966   4.408   7.367   9.669 -0.3500 -0.0017 -0.5319
23393SOL    HW173967   4.339   7.417   9.712  0.5967 -0.1751  1.2678
23393SOL    HW273968   4.370   7.280   9.657 -0.9532  0.3092 -0.9409
23394SOL     OW73969   8.694   5.239   4.645  0.7529 -0.4428  0.0199
23394SOL    HW173970   8.671   5.177   4.714 -1.6626 -0.4513 -0.7064
23394SOL    HW273971   8.690   5.188   4.564  3.3504 -0.3859 -0.2324
23395SOL     OW73972   6.984   5.102   3.143 -1.1401  0.2316  0.2691
23395SOL    HW173973   7.018   5.118   3.231 -2.0549  1.1983  0.4624
23395SOL    HW273974   6.940   5.017   3.149  2.4476 -1.8984 -0.3768
23396SOL     OW73975   3.888   7.711   0.426 -0.2792 -0.1177 -0.1043
23396SOL    HW173976   3.842   7.775   0.372  0.4185  0.3592 -0.1363
23396SOL    HW273977   3.849   7.721   0.513  0.0710  0.5995 -0.0267
23397SOL     OW73978  10.165   4.561   1.364 -0.0087  0.0158 -0.4470
23397SOL    HW173979  10.107   4.635   1.347 -0.3730 -0.2016 -0.1524
23397SOL    HW273980  10.135   4.525   1.447 -1.0338 -1.6029 -1.4561
23398SOL     OW73981   6.198  10.064   4.217 -0.2218  0.3102 -0.1032
23398SOL    HW173982   6.120  10.082   4.270 -1.0757  0.4633 -1.3792
23398SOL    HW273983   6.224   9.975   4.241 -0.2894  0.5457  0.9156
23399SOL     OW73984   3.034   0.808   4.411 -0.4050 -0.3504  0.0035
23399SOL    HW173985   2.969   0.742   4.437 -0.4394  0.1780  1.3047
23399SOL    HW273986   3.022   0.879   4.474 -0.5235  1.0141 -1.5032
23400SOL     OW73987   6.415   6.599   6.364  0.3721  0.2099  0.3722
23400SOL    HW173988   6.464   6.664   6.414  0.5409 -0.0377  0.5279
23400SOL    HW273989   6.482   6.551   6.315  0.2666  0.0129  0.4205
23401SOL     OW73990   9.318   0.504   4.408  0.2154  0.3639  0.2660
23401SOL    HW173991   9.367   0.535   4.332 -0.3110 -0.2998 -0.3555
23401SOL    HW273992   9.373   0.435   4.446 -0.6830 -1.1474 -1.0681
23402SOL     OW73993   1.704   9.598   2.687  0.2569  0.3184 -0.3980
23402SOL    HW173994   1.644   9.621   2.617  0.2967 -2.2463 -1.3880
23402SOL    HW273995   1.748   9.518   2.656  1.6285  0.1417  1.7682
23403SOL     OW73996   5.771   6.630   2.691 -0.3304  0.1359 -0.3445
23403SOL    HW173997   5.681   6.619   2.660 -0.0517 -0.9404 -0.8244
23403SOL    HW273998   5.775   6.576   2.771 -0.9979  2.7537  1.5839
23404SOL     OW73999   2.461   9.459   7.070 -0.3035 -0.1280 -0.0789
23404SOL    HW174000   2.452   9.527   7.003 -2.5397  0.3172  0.5841
23404SOL    HW274001   2.461   9.377   7.021  0.4125  0.2627 -0.7576
23405SOL     OW74002   3.676   0.972   9.616  0.0805 -0.2512  0.3888
23405SOL    HW174003   3.605   1.022   9.655 -1.5808 -1.7214 -0.5516
23405SOL    HW274004   3.754   0.998   9.665 -1.0845  1.4246  1.4784
23406SOL     OW74005   1.864  10.116  10.226  0.2614  0.4616  0.1991
23406SOL    HW174006   1.840  10.130  10.135 -2.6737 -0.3952  0.7186
23406SOL    HW274007   1.921  10.039  10.225  0.2197  0.4379 -0.8797
23407SOL     OW74008   3.147   2.195   5.116  0.4418  0.0113 -0.0984
23407SOL    HW174009   3.211   2.132   5.082 -0.2808  0.6784 -2.9748
23407SOL    HW274010   3.197   2.275   5.129  0.5329  0.0638 -0.7315
23408SOL     OW74011   7.452   7.011   1.007 -0.5261 -0.4305 -0.2305
23408SOL    HW174012   7.480   7.098   0.979 -0.3475  0.0283  1.2894
23408SOL    HW274013   7.366   6.999   0.966 -0.2586  0.1753 -0.9883
23409SOL     OW74014   9.583   0.505   8.607  0.1320 -0.0494 -0.0339
23409SOL    HW174015   9.523   0.569   8.571 -0.5331  0.4144  1.7799
23409SOL    HW274016   9.559   0.422   8.565 -0.1742  0.5609 -1.0842
23410SOL     OW74017   7.605   2.058  10.079 -0.1600 -0.4814 -0.0460
23410SOL    HW174018   7.535   2.110  10.116  0.1659 -0.0062 -0.0933
23410SOL    HW274019   7.605   2.081   9.986  1.2840  0.9739  0.2667
23411SOL     OW74020   2.324   3.293   3.897 -0.8537 -0.1406 -0.1932
23411SOL    HW174021   2.389   3.263   3.961 -2.9918 -0.4392  2.0121
23411SOL    HW274022   2.374   3.345   3.834  1.4231  0.1177  1.6841
23412SOL     OW74023   3.298   7.416   2.319  0.2698 -0.1530  0.0334
23412SOL    HW174024   3.245   7.412   2.240  0.0847 -1.4816  0.1925
23412SOL    HW274025   3.240   7.454   2.385  0.8220  2.1513 -0.7313
23413SOL     OW74026   0.573   2.306   8.914  0.3161  0.5576  0.2235
23413SOL    HW174027   0.534   2.324   8.828  0.0577  0.8327  0.3961
23413SOL    HW274028   0.565   2.211   8.924  2.5126  0.1423 -1.0974
23414SOL     OW74029   1.887   9.748   9.633  0.6383 -0.1092  0.1033
23414SOL    HW174030   1.859   9.705   9.552  2.9346 -0.8823 -0.3634
23414SOL    HW274031   1.879   9.841   9.616 -3.2326 -0.1738  0.6808
23415SOL     OW74032   3.532   4.399   1.686  1.0757  0.3768 -0.3195
23415SOL    HW174033   3.605   4.401   1.748  1.2255  0.6448 -0.4993
23415SOL    HW274034   3.567   4.352   1.610  0.9202  0.1254 -0.2398
23416SOL     OW74035   1.830   3.752   8.828  0.3008 -0.2506 -0.5638
23416SOL    HW174036   1.909   3.708   8.796  0.0832 -1.0699  0.0084
23416SOL    HW274037   1.840   3.842   8.798  1.2695 -0.4315 -0.8316
23417SOL     OW74038   2.724   6.646   2.754 -0.2343  0.1511 -0.3182
23417SOL    HW174039   2.664   6.589   2.706 -1.1783  1.7512 -1.1115
23417SOL    HW274040   2.807   6.637   2.709 -0.0414 -1.4621  0.2903
23418SOL     OW74041   6.585   1.571   5.441  0.2521  0.2729  0.2716
23418SOL    HW174042   6.516   1.635   5.454  0.9842  0.9347  0.9820
23418SOL    HW274043   6.541   1.486   5.446 -1.1038  0.6733 -2.7756
23419SOL     OW74044   1.437   5.614   3.444 -0.1825  0.0669  0.6091
23419SOL    HW174045   1.497   5.578   3.378 -2.4580 -0.3846 -1.3401
23419SOL    HW274046   1.416   5.702   3.411 -0.7928  0.1173  1.1177
23420SOL     OW74047   4.407   1.228   8.865  0.3149 -0.2935 -0.2083
23420SOL    HW174048   4.502   1.234   8.866  0.3513 -0.6107 -0.7727
23420SOL    HW274049   4.384   1.227   8.772 -0.2598  0.0497 -0.0771
23421SOL     OW74050   4.078   8.990   2.075 -0.0804 -0.2762  0.6649
23421SOL    HW174051   4.160   8.942   2.069  1.0553  1.4225  1.6438
23421SOL    HW274052   4.091   9.052   2.147 -1.2347  1.8585 -0.8463
23422SOL     OW74053   8.207   3.556   8.165 -0.3934  0.2820  0.5267
23422SOL    HW174054   8.206   3.468   8.128  1.0127  0.4836 -0.0403
23422SOL    HW274055   8.209   3.614   8.089  3.5061  0.6923  0.7770
23423SOL     OW74056   0.903   9.240   6.188  0.0965  0.2285 -0.4229
23423SOL    HW174057   0.819   9.196   6.194 -0.9879  2.0048 -1.8216
23423SOL    HW274058   0.939   9.235   6.277 -2.0009  0.4110  0.4825
23424SOL     OW74059   3.136   7.611   9.966  0.5481  0.3291  0.0347
23424SOL    HW174060   3.211   7.633  10.021  1.0871  2.0651 -1.2818
23424SOL    HW274061   3.126   7.516   9.975  1.7722  0.3114  1.6168
23425SOL     OW74062   3.923   3.364   4.915 -0.0943  0.2362  0.0454
23425SOL    HW174063   3.939   3.367   4.821 -1.9640  0.5718 -0.2898
23425SOL    HW274064   3.981   3.294   4.947  0.0623 -0.3402 -1.4500
23426SOL     OW74065   5.984   8.454   1.193  0.1910 -0.0044 -0.4100
23426SOL    HW174066   6.070   8.420   1.217  0.0019  1.6047  3.2358
23426SOL    HW274067   5.930   8.376   1.180  1.6649 -1.0230 -0.7119
23427SOL     OW74068   7.267   4.473   1.671 -0.1175  0.3004  0.3078
23427SOL    HW174069   7.337   4.418   1.707  0.3072  1.5141  1.4045
23427SOL    HW274070   7.311   4.531   1.610 -0.6098 -0.7207 -1.0626
23428SOL     OW74071   9.531   3.501   6.747 -0.4877 -0.3609  0.7790
23428SOL    HW174072   9.627   3.503   6.751 -0.5074  0.5161  0.9933
23428SOL    HW274073   9.507   3.422   6.795  0.1154 -0.3322  1.1418
23429SOL     OW74074   1.513   2.364   0.306  0.1928 -0.0086 -0.3171
23429SOL    HW174075   1.524   2.298   0.375 -1.0052 -0.6481 -0.7025
23429SOL    HW274076   1.428   2.344   0.267  0.0815  1.3977 -0.8611
23430SOL     OW74077   8.067   1.390   8.631 -0.3647 -0.0823 -0.1369
23430SOL    HW174078   8.004   1.391   8.559 -0.0204  0.5498 -0.4375
23430SOL    HW274079   8.122   1.314   8.615  0.1576  0.4546 -0.9421
23431SOL     OW74080   6.564   7.423   1.357 -0.1976  0.0462 -0.0501
23431SOL    HW174081   6.525   7.447   1.441  1.6574 -0.6857  1.0729
23431SOL    HW274082   6.605   7.504   1.326  3.0774 -0.6092  2.0709
23432SOL     OW74083   1.123   6.510   8.910 -0.3886 -0.1257  0.0224
23432SOL    HW174084   1.088   6.423   8.924 -0.2184 -0.2869 -0.5110
23432SOL    HW274085   1.145   6.512   8.816  1.9491 -0.3905  0.5054
23433SOL     OW74086   3.050   8.058   8.550 -0.4683  0.6280 -0.0134
23433SOL    HW174087   3.102   8.123   8.598 -1.5802  0.3056  1.7112
23433SOL    HW274088   3.001   8.109   8.486 -0.7748  1.4291  0.8289
23434SOL     OW74089   5.360   8.576   9.643 -0.0175 -0.2678  0.0298
23434SOL    HW174090   5.281   8.538   9.683  0.6647 -0.0737  1.6746
23434SOL    HW274091   5.392   8.508   9.585 -0.3548 -1.1314  0.8167
23435SOL     OW74092   8.129   6.665   3.663  0.4018 -0.3072 -0.7126
23435SOL    HW174093   8.060   6.632   3.721  1.5260 -2.7200 -0.6223
23435SOL    HW274094   8.208   6.663   3.716  0.9188  0.3757 -1.4429
23436SOL     OW74095   0.374   8.634   3.547 -0.3292 -0.3917  0.0265
23436SOL    HW174096   0.294   8.592   3.514 -0.4564 -0.5035  0.4702
23436SOL    HW274097   0.345   8.683   3.624 -0.1754  0.4744 -0.4433
23437SOL     OW74098   4.238   0.527   8.094  0.5984 -0.0630 -0.0495
23437SOL    HW174099   4.200   0.583   8.025  3.0679  1.4396 -0.3056
23437SOL    HW274100   4.289   0.587   8.148  1.6400 -1.7834  0.9555
23438SOL     OW74101   8.932   6.597   9.644 -0.1415 -0.0435  0.0886
23438SOL    HW174102   8.858   6.615   9.586 -0.4906 -0.8031  0.2698
23438SOL    HW274103   9.004   6.574   9.586  0.0934  1.1623 -0.1062
23439SOL     OW74104   2.337   3.917   6.769  0.1557  0.0797 -0.4024
23439SOL    HW174105   2.377   3.879   6.691 -0.3933  2.5818 -2.0356
23439SOL    HW274106   2.263   3.860   6.789 -0.5619  0.1447 -2.6272
23440SOL     OW74107   6.786   5.082   8.597  0.2092 -0.4226  0.1696
23440SOL    HW174108   6.862   5.034   8.629 -0.0967 -0.5247  0.7549
23440SOL    HW274109   6.732   5.096   8.675 -0.5432 -0.6699 -0.2941
23441SOL     OW74110   7.697   6.525   1.906 -0.1723  0.0829 -0.7843
23441SOL    HW174111   7.730   6.601   1.857 -0.7194  2.3131  2.0087
23441SOL    HW274112   7.754   6.521   1.983 -1.3650 -1.1353  0.0670
23442SOL     OW74113   4.329   2.317   8.955  0.2168  0.3809  0.3458
23442SOL    HW174114   4.390   2.247   8.978  1.8911  0.8015 -2.2632
23442SOL    HW274115   4.386   2.391   8.930 -1.4349  1.7635  0.4888
23443SOL     OW74116   6.604   7.961   3.756 -0.3974 -0.2873  0.1394
23443SOL    HW174117   6.595   8.046   3.798  1.8969  0.5358 -0.8593
23443SOL    HW274118   6.674   7.973   3.691 -3.3434 -1.5591 -3.6570
23444SOL     OW74119   9.514   3.542   7.650  0.0910 -0.0530 -0.4032
23444SOL    HW174120   9.568   3.562   7.574 -0.1288  0.9338 -0.3206
23444SOL    HW274121   9.490   3.450   7.640  2.5084 -0.8097  0.0207
23445SOL     OW74122   6.498   7.684   3.770  0.0312  0.1679  0.2236
23445SOL    HW174123   6.413   7.725   3.786  0.8534  2.9576 -1.8574
23445SOL    HW274124   6.560   7.756   3.766  1.9578 -1.4329 -1.5965
23446SOL     OW74125   8.113  10.314   9.816 -0.0139  0.0852 -0.4499
23446SOL    HW174126   8.027  10.354   9.807  0.6074  1.5510 -0.0995
23446SOL    HW274127   8.163  10.347   9.742  0.4567 -0.1922 -0.2578
23447SOL     OW74128   1.817   8.316   5.226 -0.2868 -0.1122  0.6488
23447SOL    HW174129   1.747   8.376   5.203 -0.5089 -0.7010 -0.2915
23447SOL    HW274130   1.879   8.368   5.276 -0.7111  0.7715  0.2678
23448SOL     OW74131   6.902   4.424   5.655  0.3889 -0.5548 -0.0935
23448SOL    HW174132   6.831   4.365   5.633 -0.8543  0.6522  0.5413
23448SOL    HW274133   6.870   4.511   5.630  0.3083  0.4422  3.0392
23449SOL     OW74134   7.713   4.120   3.306 -0.2744  0.4935  0.4011
23449SOL    HW174135   7.715   4.162   3.392  1.8044 -0.6415  0.9840
23449SOL    HW274136   7.643   4.165   3.259 -1.4973  1.1427  2.6677
23450SOL     OW74137   2.709   0.182   0.555 -0.3426  0.2658 -0.5579
23450SOL    HW174138   2.746   0.224   0.633 -0.0086 -1.6803  0.3935
23450SOL    HW274139   2.786   0.163   0.500 -0.3734  0.0605 -0.5333
23451SOL     OW74140   2.605   1.371   7.835 -0.8820 -0.2123 -0.7785
23451SOL    HW174141   2.600   1.352   7.928 -0.5174  1.0043 -0.4895
23451SOL    HW274142   2.699   1.371   7.816 -0.9975 -2.6763 -1.6608
23452SOL     OW74143   7.675   7.092   8.940 -0.3248  0.0456  0.0895
23452SOL    HW174144   7.656   7.170   8.991  0.3282 -0.7084  1.5380
23452SOL    HW274145   7.770   7.089   8.934 -0.1613 -1.9094  2.2197
23453SOL     OW74146   2.691   3.239   1.949 -0.3539  0.1902  0.7558
23453SOL    HW174147   2.785   3.251   1.937  0.1756 -0.3924  3.5786
23453SOL    HW274148   2.651   3.296   1.884  1.9664  1.6416  0.4814
23454SOL     OW74149   2.220   9.833   2.978  0.3301 -0.9061  0.6489
23454SOL    HW174150   2.240   9.845   2.885 -0.2960 -0.9630  0.5055
23454SOL    HW274151   2.291   9.777   3.010 -0.1735 -2.0363 -0.1075
23455SOL     OW74152   7.500   5.229   6.045  0.6473 -0.0394 -0.3818
23455SOL    HW174153   7.448   5.196   6.119  2.7274 -2.0699  0.2995
23455SOL    HW274154   7.529   5.316   6.074  0.1801 -0.1711  0.5313
23456SOL     OW74155   2.344   0.496   1.102 -0.5163  0.2666  0.3127
23456SOL    HW174156   2.327   0.405   1.079 -2.4732  0.7196 -0.2535
23456SOL    HW274157   2.417   0.493   1.163 -0.9728 -1.7319  0.8210
23457SOL     OW74158   7.945   6.623   6.262  0.0543  0.0361 -0.1132
23457SOL    HW174159   7.908   6.681   6.195 -0.9548  0.1006  0.4775
23457SOL    HW274160   8.039   6.638   6.257 -0.0741  0.6791 -0.9287
23458SOL     OW74161   0.219   6.900   2.948  0.2829  0.0106  0.4048
23458SOL    HW174162   0.254   6.887   2.860  1.2530 -0.9003  0.9042
23458SOL    HW274163   0.289   6.945   2.995 -0.3147  0.6857  0.6512
23459SOL     OW74164   7.483   1.103   3.409  0.6671 -0.0298 -0.0763
23459SOL    HW174165   7.400   1.060   3.388  0.5527  0.0771  0.1504
23459SOL    HW274166   7.477   1.188   3.366  0.6910 -0.0540 -0.1265
23460SOL     OW74167   5.882   3.879   3.251 -0.4713 -0.6810  0.5137
23460SOL    HW174168   5.960   3.883   3.307 -0.7135 -0.6013  0.8424
23460SOL    HW274169   5.917   3.862   3.163 -0.1798 -2.7235  0.9665
23461SOL     OW74170   6.745   0.784   8.997 -0.5263 -0.3436 -0.2601
23461SOL    HW174171   6.661   0.788   9.043 -0.3187 -0.6785  0.1568
23461SOL    HW274172   6.785   0.702   9.027  1.5500  1.4784  2.3386
23462SOL     OW74173   1.375   7.305   0.038  0.0832 -0.4010  0.1021
23462SOL    HW174174   1.355   7.359   0.115 -1.1824  0.3336 -0.7057
23462SOL    HW274175   1.335   7.220   0.058 -1.1356  0.0899 -0.1365
23463SOL     OW74176   9.530   3.199   8.329 -0.2619  0.1354  0.1490
23463SOL    HW174177   9.446   3.239   8.352  0.6906  2.0987  0.4135
23463SOL    HW274178   9.589   3.273   8.317  2.1063 -1.2245  2.4966
23464SOL     OW74179   9.406   1.106   4.276  0.2223 -0.4857 -0.6306
23464SOL    HW174180   9.471   1.038   4.294  1.4371  0.6310 -0.6100
23464SOL    HW274181   9.354   1.071   4.204  1.5252 -0.9857 -1.3585
23465SOL     OW74182  10.068   8.629   7.370 -0.2174  0.2055  0.4066
23465SOL    HW174183  10.113   8.670   7.297 -1.2880  1.6262  0.5047
23465SOL    HW274184  10.076   8.535   7.354  4.0115  0.2433  1.1932
23466SOL     OW74185   2.206   6.700   0.090 -0.1995 -0.2895  0.2241
23466SOL    HW174186   2.242   6.760   0.026  0.2785  0.2475  0.9755
23466SOL    HW274187   2.118   6.680   0.059 -0.5113  1.1005  0.1545
23467SOL     OW74188   9.952   1.141   5.248 -0.2665 -0.1530 -0.1011
23467SOL    HW174189  10.011   1.069   5.229  1.4349  1.5049 -1.4946
23467SOL    HW274190  10.009   1.213   5.273 -1.9617  0.4805  2.2946
23468SOL     OW74191   1.793   7.054   2.966  0.0787  0.3544  0.2516
23468SOL    HW174192   1.737   7.089   3.036 -0.4897  1.1633 -0.5780
23468SOL    HW274193   1.859   7.002   3.011 -0.6767  0.3129  1.3405
23469SOL     OW74194   1.456   8.638   1.309  0.1253  0.7694 -0.0852
23469SOL    HW174195   1.382   8.632   1.248  0.0366 -1.9885  0.1889
23469SOL    HW274196   1.533   8.645   1.253 -0.1221  0.6987 -0.4338
23470SOL     OW74197   8.999   2.182   5.599  0.3929  0.2043  0.4706
23470SOL    HW174198   9.045   2.098   5.587  1.4344  0.6524  1.1842
23470SOL    HW274199   8.907   2.158   5.599  0.5666 -0.6927 -1.3677
23471SOL     OW74200   8.128   9.572  10.203  0.6912 -0.2955  0.0424
23471SOL    HW174201   8.196   9.557  10.268  0.7565  2.0970  0.6368
23471SOL    HW274202   8.062   9.506  10.222  1.1610 -0.2855  1.9473
23472SOL     OW74203   7.673   9.483   2.489  0.1036 -0.3521  0.1634
23472SOL    HW174204   7.693   9.560   2.435 -0.6579  0.2856  0.7664
23472SOL    HW274205   7.577   9.477   2.487 -0.0336  0.3819  2.3669
23473SOL     OW74206   8.775   1.954   7.796  0.3649 -0.0637 -0.6443
23473SOL    HW174207   8.765   1.929   7.888  1.8410  1.4182 -0.0380
23473SOL    HW274208   8.764   2.049   7.796 -1.9216 -0.2570 -2.3837
23474SOL     OW74209   2.858   1.765   1.905  0.6399  0.3317  0.5890
23474SOL    HW174210   2.953   1.773   1.898  0.5301  0.9877 -0.4518
23474SOL    HW274211   2.835   1.697   1.842  0.2852  1.2681 -0.3153
23475SOL     OW74212   9.440   3.347   5.537 -0.4755 -0.5430 -0.5860
23475SOL    HW174213   9.399   3.342   5.623  0.5793 -2.0095 -0.1341
23475SOL    HW274214   9.374   3.387   5.481 -2.9811 -3.8061 -0.1918
23476SOL     OW74215   0.278   4.148   7.456 -0.5147  0.2461  0.2313
23476SOL    HW174216   0.333   4.156   7.534  0.0601 -0.4842 -0.0794
23476SOL    HW274217   0.340   4.151   7.383 -0.3222 -4.0143 -0.0657
23477SOL     OW74218   1.156   8.190   4.827 -0.2525  0.3240  0.5250
23477SOL    HW174219   1.082   8.133   4.844  0.5358 -1.0393 -0.4238
23477SOL    HW274220   1.230   8.146   4.868  0.4841  0.3249 -0.7477
23478SOL     OW74221   4.736   9.386   7.529  0.1258 -0.2627 -0.2522
23478SOL    HW174222   4.649   9.356   7.501  0.6156 -1.1191 -0.9115
23478SOL    HW274223   4.730   9.394   7.624 -0.4871 -0.9615 -0.2252
23479SOL     OW74224   9.325   5.727   9.556 -0.0304 -0.1589 -0.7819
23479SOL    HW174225   9.266   5.655   9.536  1.2493 -1.6373  0.4581
23479SOL    HW274226   9.411   5.697   9.527  0.7310  0.3345  0.8433
23480SOL     OW74227   6.196   1.349   8.554 -0.2514 -0.4844  0.5069
23480SOL    HW174228   6.229   1.286   8.618  1.4260  1.4994  1.7239
23480SOL    HW274229   6.114   1.381   8.591 -1.0731 -1.7753 -0.0793
23481SOL     OW74230   2.435   5.367   0.564  0.0424 -0.2016  0.8782
23481SOL    HW174231   2.407   5.332   0.648  1.1088  1.5713  2.0568
23481SOL    HW274232   2.364   5.425   0.537 -0.2881 -0.7505  0.5611
23482SOL     OW74233   0.521   6.998   0.215 -0.0676 -0.0339  0.2788
23482SOL    HW174234   0.453   6.962   0.158 -1.1233  1.3042  0.6559
23482SOL    HW274235   0.496   6.968   0.303  0.5477 -0.5815  0.2757
23483SOL     OW74236   9.594   2.743   2.044  0.2329  0.4303  0.2252
23483SOL    HW174237   9.643   2.796   1.981 -0.6001  1.3474  0.3157
23483SOL    HW274238   9.641   2.754   2.126  1.2001 -0.5941 -0.1614
23484SOL     OW74239   6.003   8.739   2.825 -0.1843  0.6596  0.3874
23484SOL    HW174240   6.089   8.737   2.866 -0.3391 -1.3532  0.7198
23484SOL    HW274241   6.018   8.704   2.737 -1.0337 -2.6786  1.4194
23485SOL     OW74242   6.687   3.948   1.232 -0.4183  0.0478 -0.2079
23485SOL    HW174243   6.659   4.014   1.170 -1.2595  1.1325  1.2669
23485SOL    HW274244   6.783   3.948   1.226 -0.3461  1.9720  0.2781
23486SOL     OW74245   5.784   4.773   6.721 -0.2181 -0.2350  0.3371
23486SOL    HW174246   5.807   4.853   6.673 -0.2991 -0.5621 -0.2603
23486SOL    HW274247   5.850   4.709   6.695 -1.2454 -0.9270 -0.7232
23487SOL     OW74248   6.083   8.679   2.576  0.0359 -0.2867  0.9159
23487SOL    HW174249   6.020   8.618   2.538  0.3300 -1.0559  1.6122
23487SOL    HW274250   6.163   8.668   2.524  0.1167 -0.5837  1.0955
23488SOL     OW74251   5.852   5.728   1.825  0.3154  0.3158  0.0517
23488SOL    HW174252   5.819   5.653   1.874 -0.8681  1.1680  0.6158
23488SOL    HW274253   5.912   5.771   1.885  2.8808 -1.3977 -1.0751
23489SOL     OW74254   7.234   1.898   5.222  0.5522 -0.2017  0.0122
23489SOL    HW174255   7.157   1.856   5.258  0.5523  0.6079  0.9978
23489SOL    HW274256   7.286   1.827   5.185 -0.0891 -0.8829  0.4124
23490SOL     OW74257   3.873   8.685   4.773 -0.1705 -0.0709 -0.1862
23490SOL    HW174258   3.910   8.721   4.853  0.5588 -0.1456 -0.4806
23490SOL    HW274259   3.873   8.590   4.786 -1.2552 -0.0257  0.2315
23491SOL     OW74260   8.866   1.615   5.399  0.3149  0.0311 -0.0965
23491SOL    HW174261   8.800   1.588   5.462  0.7756 -0.8099  0.0518
23491SOL    HW274262   8.843   1.704   5.375 -1.1319 -0.4107 -0.3975
23492SOL     OW74263   4.628   3.009   0.048 -0.2714  0.2028 -0.1180
23492SOL    HW174264   4.636   3.103   0.033  0.4410  0.3446  1.0266
23492SOL    HW274265   4.595   2.974  -0.035  3.4023  0.8997 -2.0549
23493SOL     OW74266   0.463   7.442   3.654 -0.7056 -0.2369 -0.1711
23493SOL    HW174267   0.394   7.389   3.615 -1.5818  1.2682 -0.7913
23493SOL    HW274268   0.540   7.426   3.601 -0.7545 -1.4107  0.0985
23494SOL     OW74269   2.903   4.119   1.504  0.1039 -0.5715 -0.0397
23494SOL    HW174270   2.903   4.024   1.503 -2.2751 -0.6886  1.6737
23494SOL    HW274271   2.963   4.142   1.575  0.4834 -0.7784 -0.2877
23495SOL     OW74272   0.653   2.494   1.923  0.0818  0.5312 -0.3727
23495SOL    HW174273   0.644   2.401   1.941 -0.6116  0.6291 -0.2155
23495SOL    HW274274   0.695   2.497   1.837  0.6298  0.0774 -0.1308
23496SOL     OW74275   6.353   2.088   0.758 -0.0024 -0.7528 -0.5159
23496SOL    HW174276   6.300   2.027   0.707 -0.4709 -0.7758 -0.0016
23496SOL    HW274277   6.382   2.038   0.834 -0.1354 -0.4226 -0.2481
23497SOL     OW74278   0.481   7.432   1.292 -0.1451  0.4265  0.6451
23497SOL    HW174279   0.415   7.375   1.253  0.1246  0.6363 -0.1405
23497SOL    HW274280   0.518   7.480   1.218  1.2732 -0.0760  0.9994
23498SOL     OW74281   9.955   2.324   3.764 -0.7842 -0.3545  0.8376
23498SOL    HW174282   9.987   2.328   3.674 -0.1968 -0.7560  1.0207
23498SOL    HW274283   9.885   2.260   3.763  0.1868 -1.4513  0.9349
23499SOL     OW74284   8.260   5.236   7.881  0.4325 -0.2917 -0.0601
23499SOL    HW174285   8.187   5.283   7.922 -0.1742 -1.4777  0.2665
23499SOL    HW274286   8.335   5.293   7.893 -0.3654  0.7971 -0.0758
23500SOL     OW74287   2.446   3.899   3.164  0.1692  0.4140 -0.3030
23500SOL    HW174288   2.453   3.818   3.214  0.7081  1.0242  0.6439
23500SOL    HW274289   2.393   3.876   3.088 -1.7407 -0.2542  1.1504
23501SOL     OW74290   0.466   7.684   5.595  0.2070 -0.2720 -0.3643
23501SOL    HW174291   0.373   7.691   5.574 -0.3387 -1.6779  1.3363
23501SOL    HW274292   0.493   7.600   5.558  1.5102  1.1580 -2.9905
23502SOL     OW74293   8.925   8.637   3.779 -0.4537  0.2053 -0.4747
23502SOL    HW174294   8.917   8.684   3.696 -1.0471  1.1625  0.1038
23502SOL    HW274295   8.883   8.694   3.843  2.5926  0.9221  1.0673
23503SOL     OW74296   3.965   1.775   5.226  0.4955 -0.0562  0.3078
23503SOL    HW174297   4.001   1.687   5.215 -0.2204 -0.4783  1.1834
23503SOL    HW274298   3.885   1.775   5.173  0.4087  0.0065  0.4367
23504SOL     OW74299   8.087   8.078   6.725  0.2880 -0.0979 -0.2932
23504SOL    HW174300   8.057   8.082   6.816  2.3753  2.6235  0.4194
23504SOL    HW274301   8.165   8.021   6.728  1.0119  0.8693 -0.0930
23505SOL     OW74302   4.272   0.815   8.569 -0.8257  0.0957 -0.1377
23505SOL    HW174303   4.257   0.816   8.475 -2.4628 -1.1845  0.0623
23505SOL    HW274304   4.332   0.741   8.582 -0.0463  0.6959 -0.2114
23506SOL     OW74305   6.120   3.366   0.859 -0.6207 -0.3593  0.2523
23506SOL    HW174306   6.125   3.322   0.774 -0.3466 -0.5751  0.3755
23506SOL    HW274307   6.096   3.296   0.920  2.0862 -0.9025  0.8365
23507SOL     OW74308   9.893   1.886   1.105  0.0460 -0.2282  0.0404
23507SOL    HW174309   9.897   1.972   1.147 -1.3391 -0.3221  0.4066
23507SOL    HW274310   9.878   1.905   1.013  0.1908 -0.0684  0.0490
23508SOL     OW74311   8.811   0.984   5.226  0.4380  0.2728  0.1795
23508SOL    HW174312   8.717   0.988   5.243  0.2276 -0.4412 -0.7761
23508SOL    HW274313   8.848   1.054   5.281 -0.6569  0.6507  0.4581
23509SOL     OW74314   6.380   3.334   9.456  0.2231  0.1259 -0.0908
23509SOL    HW174315   6.306   3.323   9.515  0.2683  0.5066  0.0432
23509SOL    HW274316   6.361   3.277   9.381 -0.4060  0.5464 -0.2524
23510SOL     OW74317   4.153   5.806   2.487 -0.4533 -0.1974 -0.6759
23510SOL    HW174318   4.200   5.822   2.569 -0.2601  0.4958 -0.9084
23510SOL    HW274319   4.206   5.741   2.441 -0.3230 -0.2585 -0.4409
23511SOL     OW74320   8.128   4.023   2.059 -0.0208  0.0012 -0.4425
23511SOL    HW174321   8.153   4.057   2.145 -2.4689  2.1625 -0.4506
23511SOL    HW274322   8.053   3.966   2.077 -0.8783  0.8843 -1.1831
23512SOL     OW74323   6.349   3.872   4.483 -0.4670  0.3299  0.1701
23512SOL    HW174324   6.320   3.784   4.506  0.4080  0.1582  0.6376
23512SOL    HW274325   6.342   3.921   4.565 -0.7798  0.6545 -0.0479
23513SOL     OW74326   4.523   5.612   0.282  1.2746  0.1709  0.1709
23513SOL    HW174327   4.558   5.695   0.315  1.6106 -0.9704  2.9841
23513SOL    HW274328   4.586   5.546   0.310 -0.0034 -1.2689 -0.1704
23514SOL     OW74329   8.456   5.419   4.720 -0.5091 -0.6534 -0.2390
23514SOL    HW174330   8.542   5.390   4.689  0.4976  0.9824  0.8372
23514SOL    HW274331   8.443   5.370   4.801  0.5720  0.8316  0.8768
23515SOL     OW74332   4.056   1.519   8.961 -0.1030  0.1276  0.4148
23515SOL    HW174333   3.963   1.507   8.938 -0.0074  2.0429 -1.2342
23515SOL    HW274334   4.057   1.594   9.021  0.4315  0.6393 -0.2197
23516SOL     OW74335   7.727   8.489   2.149 -0.2517 -0.5935  0.2538
23516SOL    HW174336   7.782   8.565   2.167  0.0907 -0.3570 -1.6226
23516SOL    HW274337   7.642   8.527   2.128 -0.5362 -0.8457  0.9089
23517SOL     OW74338   2.567   2.073   6.167  0.4930 -0.0891  0.1872
23517SOL    HW174339   2.560   2.060   6.072  0.2214  0.8246  0.0732
23517SOL    HW274340   2.543   1.989   6.204  1.9467 -0.8943 -0.5889
23518SOL     OW74341  10.189   1.827   7.588  0.1282  0.0590  0.3365
23518SOL    HW174342  10.219   1.838   7.678  0.2060  0.6515  0.2406
23518SOL    HW274343  10.154   1.913   7.563  0.8350  0.1249 -0.4655
23519SOL     OW74344   8.709   4.701   2.739  0.3600  0.3292  0.6178
23519SOL    HW174345   8.706   4.606   2.746 -0.8795  0.3275  0.2362
23519SOL    HW274346   8.701   4.732   2.829 -0.0167  0.0788  0.6732
23520SOL     OW74347  10.136   7.509   2.816 -0.1059 -0.0426 -0.2003
23520SOL    HW174348  10.113   7.422   2.846  0.5484 -0.9151 -2.0743
23520SOL    HW274349  10.217   7.530   2.864 -0.3499 -0.3826  0.3731
23521SOL     OW74350   6.375   7.383   5.574  0.2037 -0.4204 -0.0917
23521SOL    HW174351   6.377   7.415   5.664 -3.7837  1.2859 -0.4005
23521SOL    HW274352   6.317   7.307   5.577 -1.6184  0.8158 -1.3589
23522SOL     OW74353   2.621   6.470   9.188  0.1850  0.0166  0.3806
23522SOL    HW174354   2.535   6.427   9.183  0.5568 -0.7083  0.1242
23522SOL    HW274355   2.665   6.427   9.262 -0.2204  1.4230  1.4907
23523SOL     OW74356   2.057   4.614   5.344 -0.0228 -0.3156 -0.5447
23523SOL    HW174357   2.098   4.685   5.296 -0.0342 -0.5393 -0.8856
23523SOL    HW274358   1.966   4.614   5.314  0.3124 -1.4080 -1.6491
23524SOL     OW74359   2.323   4.186   9.633 -0.5748  0.1881 -0.1489
23524SOL    HW174360   2.251   4.239   9.599 -0.2641 -0.4254 -1.9032
23524SOL    HW274361   2.395   4.248   9.642 -0.6221  0.3525 -0.8065
23525SOL     OW74362   1.818   5.552   6.061  0.4772  0.1040  0.3523
23525SOL    HW174363   1.889   5.568   6.124 -0.5638 -1.5716  2.0871
23525SOL    HW274364   1.831   5.461   6.034  1.2296  0.9342 -2.4443
23526SOL     OW74365   8.580   7.743   2.752  0.2108  0.0393  0.1065
23526SOL    HW174366   8.595   7.783   2.666  1.0878  1.3665  0.8485
23526SOL    HW274367   8.611   7.808   2.815  0.1859 -1.1715  1.4263
23527SOL     OW74368   9.189   2.108   6.894 -0.1787 -0.1235 -0.2025
23527SOL    HW174369   9.247   2.170   6.939  0.9784 -1.4735  0.2608
23527SOL    HW274370   9.160   2.155   6.816  0.6187  1.0225  0.1566
23528SOL     OW74371   2.540   0.606   6.221 -0.1276 -0.1741 -0.1533
23528SOL    HW174372   2.619   0.584   6.172 -1.4361 -1.1316 -1.9554
23528SOL    HW274373   2.511   0.522   6.259  0.4606  0.4226  1.7239
23529SOL     OW74374   4.545   6.497   2.654  0.4743  0.2533  0.3323
23529SOL    HW174375   4.474   6.504   2.718 -0.2741  0.6055 -0.5137
23529SOL    HW274376   4.598   6.575   2.668  0.0529  0.5640  0.2286
23530SOL     OW74377   3.547   0.911   4.468  0.5567  0.4729 -0.7131
23530SOL    HW174378   3.542   0.878   4.558  0.5790 -0.1574 -0.9424
23530SOL    HW274379   3.512   0.841   4.414  1.5824  0.3908 -1.3044
23531SOL     OW74380   5.848   5.874   0.594  0.6813 -0.7604 -0.8743
23531SOL    HW174381   5.838   5.929   0.516  2.5113  1.9743  0.6678
23531SOL    HW274382   5.769   5.891   0.645  1.3194  0.6418 -0.3234
23532SOL     OW74383   4.452   9.667   0.014 -0.6530  0.1826  0.4066
23532SOL    HW174384   4.369   9.711   0.031 -0.7979  0.7475 -1.5523
23532SOL    HW274385   4.519   9.727   0.048 -0.9615  0.8289 -0.1046
23533SOL     OW74386   3.354   1.519   1.724  0.5799 -0.2164  0.9279
23533SOL    HW174387   3.278   1.575   1.708 -0.2433 -1.5832 -0.2536
23533SOL    HW274388   3.375   1.532   1.816 -0.1223  1.3498  0.8972
23534SOL     OW74389   6.936  10.171   2.385  0.0925  0.0488 -0.6517
23534SOL    HW174390   6.887  10.094   2.412  0.3089  0.4900  1.0901
23534SOL    HW274391   6.900  10.193   2.299  0.3635 -2.2477 -1.4170
23535SOL     OW74392   6.592   0.421   8.397 -0.2556 -0.3282 -0.0688
23535SOL    HW174393   6.589   0.326   8.409  0.5436 -0.4056 -0.3948
23535SOL    HW274394   6.673   0.448   8.441 -1.8341  0.6058  2.5393
23536SOL     OW74395   3.974   1.234   4.344 -0.2850  0.3757 -0.7950
23536SOL    HW174396   3.951   1.327   4.349 -0.2762  0.3248  2.5084
23536SOL    HW274397   4.063   1.230   4.380 -1.1976 -1.1079  1.4684
23537SOL     OW74398   7.567   8.196   2.531 -0.0983  0.0668  0.5630
23537SOL    HW174399   7.585   8.246   2.611  0.6062  1.7354 -0.5691
23537SOL    HW274400   7.511   8.124   2.559  0.4177  0.3932  2.6078
23538SOL     OW74401   6.938   1.777  10.361  0.3735 -0.3930  0.4806
23538SOL    HW174402   6.987   1.727  10.426  1.2982 -0.1910 -0.0394
23538SOL    HW274403   6.862   1.722  10.340  0.7386 -1.0233  0.8015
23539SOL     OW74404   8.394   8.322   9.624 -0.6256 -0.1150  0.0024
23539SOL    HW174405   8.425   8.401   9.578  0.5278 -2.1358 -3.0341
23539SOL    HW274406   8.303   8.313   9.597 -0.2422 -0.7398 -1.1522
23540SOL     OW74407   0.665   5.630   4.629  0.5672 -0.0407  0.0976
23540SOL    HW174408   0.724   5.585   4.569  0.1354  0.5623 -0.8135
23540SOL    HW274409   0.719   5.698   4.669  1.0514 -0.9259  0.9873
23541SOL     OW74410   6.118   4.112   4.435 -0.2586 -0.7987 -0.8898
23541SOL    HW174411   6.203   4.136   4.471 -0.8257 -0.8911  0.5965
23541SOL    HW274412   6.132   4.027   4.394  0.6574 -0.1970 -1.8818
23542SOL     OW74413   0.566   9.417   1.422  0.0199  0.0344  0.2681
23542SOL    HW174414   0.472   9.430   1.413  0.0155 -0.6063 -0.8446
23542SOL    HW274415   0.590   9.468   1.499 -1.3736 -0.4921  1.0919
23543SOL     OW74416   4.441   9.186   3.347 -0.2766  0.6674  0.0777
23543SOL    HW174417   4.481   9.238   3.417  0.9485  1.3568 -1.0795
23543SOL    HW274418   4.455   9.238   3.267 -1.6428 -0.0865 -0.6946
23544SOL     OW74419   1.961   3.386   0.083  0.2127 -0.2105 -0.7604
23544SOL    HW174420   2.035   3.333   0.112 -0.4286 -0.8584 -0.2664
23544SOL    HW274421   1.995   3.476   0.081  0.7171 -0.3501  0.4924
23545SOL     OW74422   3.889   9.380  10.280 -0.4412  0.1070  0.2233
23545SOL    HW174423   3.970   9.418  10.313  0.5014 -2.1210  0.6560
23545SOL    HW274424   3.914   9.340  10.196 -0.9733 -0.9417  0.5507
23546SOL     OW74425   3.544   4.107  10.295 -0.2530 -0.0431 -0.4935
23546SOL    HW174426   3.500   4.023  10.278 -1.5133  0.4133  0.3736
23546SOL    HW274427   3.569   4.102  10.387 -0.4498  0.5741 -0.4041
23547SOL     OW74428   0.063   7.181   9.918  0.3314  0.3071 -0.3262
23547SOL    HW174429  -0.028   7.167   9.946  0.2869 -0.0755 -0.6381
23547SOL    HW274430   0.100   7.241   9.982  0.0458 -0.0463  0.1718
23548SOL     OW74431   9.608   9.593   8.163 -0.5338  0.3805 -0.2269
23548SOL    HW174432   9.541   9.647   8.206 -0.8055 -1.0654  1.2724
23548SOL    HW274433   9.557   9.534   8.107 -0.3160  0.8914 -0.9770
23549SOL     OW74434   0.932   4.401   4.069  0.2201 -0.3356 -0.0419
23549SOL    HW174435   1.013   4.396   4.119  0.3365 -4.1325 -0.2849
23549SOL    HW274436   0.863   4.406   4.135  0.5342  1.2313  0.2088
23550SOL     OW74437   1.553   2.608   3.582 -0.6413  0.2815  0.4420
23550SOL    HW174438   1.518   2.623   3.670 -0.5348  1.3920  0.3011
23550SOL    HW274439   1.521   2.521   3.559 -1.5227  0.3970  1.1735
23551SOL     OW74440   6.026   3.308   1.767 -0.2294  0.0641 -0.1067
23551SOL    HW174441   6.062   3.274   1.849 -0.8326 -0.2962  0.0160
23551SOL    HW274442   5.932   3.317   1.784 -0.0873  1.8233 -0.1418
23552SOL     OW74443  10.169   6.529   8.974  0.7228 -0.0724  0.2252
23552SOL    HW174444  10.132   6.603   9.023  0.4731 -1.1752  1.7703
23552SOL    HW274445  10.115   6.454   9.000 -0.0799 -0.5864 -2.5385
23553SOL     OW74446   9.861   6.138   4.196  0.0232 -0.1235 -0.0804
23553SOL    HW174447   9.935   6.092   4.156 -0.3808 -0.3052 -0.6242
23553SOL    HW274448   9.838   6.207   4.134 -0.9075 -0.7013 -0.3994
23554SOL     OW74449   1.271   2.315   5.885 -0.1996  0.3007 -0.1474
23554SOL    HW174450   1.314   2.394   5.851  0.4364 -0.2422 -0.6357
23554SOL    HW274451   1.232   2.274   5.808  0.2639 -0.3383 -0.0500
23555SOL     OW74452   4.239   3.082   0.391 -0.4944 -0.3917  0.6622
23555SOL    HW174453   4.298   3.050   0.322  0.2505  3.5540 -0.8009
23555SOL    HW274454   4.292   3.080   0.471  0.9209  0.8864 -0.1880
23556SOL     OW74455   3.766   0.917   3.916 -0.3423 -0.0989 -0.6982
23556SOL    HW174456   3.731   1.002   3.946 -0.5704 -0.3142 -0.3391
23556SOL    HW274457   3.795   0.933   3.827  3.1014  1.3627  0.5298
23557SOL     OW74458   7.038   1.294   8.422  0.1182  0.0587 -0.0092
23557SOL    HW174459   7.090   1.345   8.485 -1.5497  1.1164  0.5758
23557SOL    HW274460   7.068   1.324   8.337  1.0987 -0.0339  0.2834
23558SOL     OW74461   3.481   7.140   5.958  0.0818  0.0833  0.2405
23558SOL    HW174462   3.473   7.128   6.052 -1.3339 -0.4997  0.0588
23558SOL    HW274463   3.464   7.054   5.920  1.1879  0.1748 -0.5468
23559SOL     OW74464   4.529   5.301   5.837 -0.5310 -0.3713 -1.1477
23559SOL    HW174465   4.454   5.244   5.856 -0.2558 -0.6616 -0.9339
23559SOL    HW274466   4.539   5.354   5.916  1.7179 -2.7826  0.3262
23560SOL     OW74467   5.557   4.297   8.437 -0.3796  0.2275 -0.1977
23560SOL    HW174468   5.549   4.260   8.525 -0.4301  0.4278 -0.1167
23560SOL    HW274469   5.638   4.348   8.440 -1.1741  1.5233  0.2184
23561SOL     OW74470   5.678   7.486   9.808 -0.2188 -0.3954  0.0659
23561SOL    HW174471   5.656   7.459   9.897  0.5658  0.6419  0.5853
23561SOL    HW274472   5.623   7.430   9.752  0.0490 -1.8059  1.1453
23562SOL     OW74473   2.857  10.290   9.227  0.0552 -0.2446  0.4651
23562SOL    HW174474   2.772  10.250   9.244 -0.2878  0.8358  1.4610
23562SOL    HW274475   2.837  10.364   9.169 -0.0092  1.1889  2.2378
23563SOL     OW74476   1.340   1.434   6.976 -0.0173 -0.0055  0.1959
23563SOL    HW174477   1.261   1.385   7.000 -0.8473  0.8067 -0.7472
23563SOL    HW274478   1.364   1.481   7.056 -3.2804  3.4165 -0.5315
23564SOL     OW74479   2.378   9.188   9.924  1.2765  0.2018 -0.2317
23564SOL    HW174480   2.332   9.186   9.840 -0.2316 -3.9398  0.4580
23564SOL    HW274481   2.324   9.242   9.980  0.1658 -0.1598 -0.9224
23565SOL     OW74482   4.915   7.989   1.549 -0.0032 -0.2393 -0.4723
23565SOL    HW174483   4.892   8.072   1.591  0.5951  0.3518 -1.2920
23565SOL    HW274484   4.866   7.989   1.467 -1.1636 -1.3886  0.1660
23566SOL     OW74485   5.484   4.501   1.382  0.1519 -0.0782  0.2164
23566SOL    HW174486   5.419   4.454   1.331  0.2450 -0.9546  0.8858
23566SOL    HW274487   5.470   4.471   1.472 -1.2861  2.8081  1.1012
23567SOL     OW74488   5.255   4.837   6.592 -0.4170  0.3779  0.0095
23567SOL    HW174489   5.344   4.820   6.623 -0.6559 -2.0170 -0.4378
23567SOL    HW274490   5.266   4.874   6.505  0.1945 -2.1382 -1.0619
23568SOL     OW74491   2.701   2.466   3.592  0.5165 -0.7057 -0.1079
23568SOL    HW174492   2.692   2.374   3.567  2.8725 -2.5395  4.4173
23568SOL    HW274493   2.628   2.482   3.652  1.2448 -0.3939  0.7268
23569SOL     OW74494   1.512   1.055   8.251 -0.2390  0.3347  0.0013
23569SOL    HW174495   1.449   1.054   8.323  0.8364  1.5236  1.0198
23569SOL    HW274496   1.533   1.148   8.239  2.0066 -0.0818  0.3346
23570SOL     OW74497   3.663   3.123   5.907 -0.6474  0.0998 -0.0914
23570SOL    HW174498   3.710   3.040   5.906  0.8647  0.9173 -0.0247
23570SOL    HW274499   3.641   3.140   5.816 -0.0806  0.1023 -0.2278
23571SOL     OW74500   7.095   0.973   2.109  0.6316  0.1174  0.0156
23571SOL    HW174501   7.145   0.908   2.160 -0.7787 -1.2926 -0.3484
23571SOL    HW274502   7.009   0.934   2.098 -0.7280  2.6579  0.9462
23572SOL     OW74503   3.209   2.298   0.507  0.0655 -0.0744  0.1168
23572SOL    HW174504   3.227   2.391   0.494 -0.7592  0.2874  1.4289
23572SOL    HW274505   3.261   2.273   0.583  0.4654 -0.7625 -0.3627
23573SOL     OW74506   7.726   1.512   4.362  0.1109 -0.0408  0.7528
23573SOL    HW174507   7.769   1.589   4.326 -0.0625  0.1058  0.8596
23573SOL    HW274508   7.704   1.459   4.286 -0.2473  0.2655  0.6450
23574SOL     OW74509   3.199   3.643   9.070 -0.5458 -0.1611 -0.0149
23574SOL    HW174510   3.282   3.600   9.093 -0.6241 -0.5344 -0.4116
23574SOL    HW274511   3.155   3.656   9.154 -0.1622 -0.1112  0.1843
23575SOL     OW74512   8.680   2.955   5.231  0.1420  0.3133 -0.2186
23575SOL    HW174513   8.711   2.999   5.152 -0.6596 -0.3372 -0.9120
23575SOL    HW274514   8.606   3.008   5.261  1.2090  1.2766  0.8479
23576SOL     OW74515   7.227   3.059   0.875  0.4982  0.5421 -0.6909
23576SOL    HW174516   7.152   3.049   0.816  1.2728 -0.5104 -1.5308
23576SOL    HW274517   7.296   3.005   0.836  0.7478 -1.0027  1.6559
23577SOL     OW74518   8.926   5.861   1.984  0.6933 -0.0783  0.1453
23577SOL    HW174519   9.001   5.859   2.043 -0.0687 -1.3364  1.1323
23577SOL    HW274520   8.910   5.770   1.962  0.3513  0.2957 -1.2575
23578SOL     OW74521   7.061   0.909   8.320 -0.1780 -0.2930  0.9018
23578SOL    HW174522   7.086   0.957   8.241 -0.9724 -0.3628  0.6068
23578SOL    HW274523   6.994   0.964   8.361 -0.2513 -0.5845  1.1730
23579SOL     OW74524   1.051   7.457   9.330  0.3248  0.1551  0.0578
23579SOL    HW174525   1.045   7.553   9.331  1.9919  0.3185  2.1995
23579SOL    HW274526   1.085   7.437   9.243  2.8487  1.8353  0.5278
23580SOL     OW74527   3.783   4.851   8.161 -0.1115  0.0728  0.6474
23580SOL    HW174528   3.817   4.762   8.147 -1.2564 -0.2241 -0.4806
23580SOL    HW274529   3.705   4.855   8.106 -0.4441  1.5764  1.1924
23581SOL     OW74530   4.797   0.081   9.704 -0.0881 -0.0659 -0.2691
23581SOL    HW174531   4.779   0.162   9.752 -0.2350  0.0325 -0.4908
23581SOL    HW274532   4.805   0.014   9.773 -0.9306 -0.0471 -0.1425
23582SOL     OW74533   0.005   4.180   2.108 -0.2909 -0.4120  0.5826
23582SOL    HW174534   0.075   4.239   2.136  0.6475 -0.3300 -1.6714
23582SOL    HW274535  -0.066   4.197   2.169  0.1122  2.7267  0.3672
23583SOL     OW74536   7.101   0.425   5.771 -0.1191 -0.0302 -0.0026
23583SOL    HW174537   7.030   0.487   5.786 -0.2003 -0.1505  0.1069
23583SOL    HW274538   7.140   0.453   5.688  0.3253  0.6364  0.4212
23584SOL     OW74539   2.770   5.552   4.719 -0.2445  0.1794 -0.6355
23584SOL    HW174540   2.752   5.636   4.761  0.1806 -0.4685  0.9026
23584SOL    HW274541   2.727   5.487   4.775  1.3640 -0.8098 -0.4809
23585SOL     OW74542   6.809   7.007   5.847  0.2327  0.1409 -0.3496
23585SOL    HW174543   6.829   7.063   5.772  1.6003 -1.1400 -0.9984
23585SOL    HW274544   6.892   6.997   5.893 -0.6521  1.2886  1.6971
23586SOL     OW74545   6.017   7.037   0.213  0.2399  0.8202  0.2120
23586SOL    HW174546   6.102   7.070   0.240  0.7743 -1.0921  1.0616
23586SOL    HW274547   5.967   7.030   0.295 -0.8154  2.0543 -0.2917
23587SOL     OW74548   6.339   3.869   9.721 -0.0844 -0.1583  0.5316
23587SOL    HW174549   6.377   3.851   9.635 -0.3409  0.8145  0.2115
23587SOL    HW274550   6.245   3.855   9.709 -0.0961 -0.2272  0.7078
23588SOL     OW74551  10.352   7.824   3.284  0.0158 -0.2586 -0.3000
23588SOL    HW174552  10.273   7.837   3.337  0.2019 -0.3670  0.0064
23588SOL    HW274553  10.423   7.823   3.348  0.5110  1.9392 -0.7316
23589SOL     OW74554   9.145   5.484  10.288  0.0724  0.2943 -0.0093
23589SOL    HW174555   9.147   5.460  10.381 -0.8226  0.0756 -0.0397
23589SOL    HW274556   9.232   5.519  10.271  1.0120 -1.7177  0.3529
23590SOL     OW74557   0.305   7.443   0.400  0.5855 -0.4994 -0.3241
23590SOL    HW174558   0.389   7.400   0.419  0.8789  0.0893 -0.2595
23590SOL    HW274559   0.240   7.389   0.443  0.9255 -1.0111 -0.4417
23591SOL     OW74560   9.353   4.906   3.305 -0.5421  0.3931 -0.2132
23591SOL    HW174561   9.388   4.827   3.263 -0.2345  0.2930  0.2310
23591SOL    HW274562   9.371   4.976   3.242  0.5210  0.3557  0.0322
23592SOL     OW74563   3.947   5.204   8.254 -0.6512 -0.6281  0.1205
23592SOL    HW174564   3.910   5.178   8.169  1.7590 -0.5463 -1.0501
23592SOL    HW274565   4.016   5.140   8.271  0.0319  0.3350  1.1796
23593SOL     OW74566   1.363   1.497   3.683  0.8318 -0.3093 -0.3148
23593SOL    HW174567   1.288   1.555   3.695  2.3426  2.2347 -2.1836
23593SOL    HW274568   1.350   1.428   3.748 -3.2833 -0.2751 -0.8066
23594SOL     OW74569  10.144   8.765   0.029  0.3083 -0.0884  0.2624
23594SOL    HW174570  10.208   8.695   0.017  0.3199 -0.0845  0.2995
23594SOL    HW274571  10.115   8.756   0.120  1.7640  1.1934  0.9016
23595SOL     OW74572   4.528   2.817   0.853  0.3916 -0.2898 -0.0969
23595SOL    HW174573   4.619   2.844   0.863  0.4926  0.2430 -2.0348
23595SOL    HW274574   4.533   2.728   0.819  0.1819 -0.4264  0.2325
23596SOL     OW74575   7.986   4.926   0.404 -0.2687 -0.0539 -0.0761
23596SOL    HW174576   8.064   4.884   0.439 -0.3396 -0.7435 -0.7250
23596SOL    HW274577   7.960   4.871   0.330 -0.2600  1.2126 -1.0626
23597SOL     OW74578   4.532   2.193   9.097  0.5092 -0.3597  0.0203
23597SOL    HW174579   4.486   2.165   9.176 -0.6796 -1.3025 -0.9573
23597SOL    HW274580   4.557   2.284   9.114  0.6599 -0.6754  1.6266
23598SOL     OW74581   5.633   0.148   1.812  0.0423 -0.3268  0.5205
23598SOL    HW174582   5.641   0.243   1.822 -1.7268 -0.1441  0.6324
23598SOL    HW274583   5.645   0.115   1.901  1.3499 -0.2836  0.3705
23599SOL     OW74584   8.832  10.106   4.273 -0.6779  0.3240  0.3931
23599SOL    HW174585   8.859  10.194   4.246  1.0951 -0.6922 -1.3209
23599SOL    HW274586   8.804  10.117   4.364 -0.4059  2.6288  0.2566
23600SOL     OW74587  10.204   5.163   4.321  0.1505  0.0635 -0.4902
23600SOL    HW174588  10.160   5.229   4.268 -1.9472 -2.9524 -2.8316
23600SOL    HW274589  10.135   5.127   4.378  0.5625 -1.7390 -1.0559
23601SOL     OW74590   3.008   0.829   8.524 -0.8214  0.6438 -0.1033
23601SOL    HW174591   3.060   0.766   8.574 -0.2862  2.3645  1.6355
23601SOL    HW274592   3.060   0.845   8.445  0.0673  0.4440  0.4189
23602SOL     OW74593   9.241   9.143   4.356 -0.6092 -0.2995  0.4461
23602SOL    HW174594   9.201   9.092   4.286 -0.4458 -0.5036  0.4998
23602SOL    HW274595   9.171   9.202   4.385 -0.8412 -0.5798  0.4695
23603SOL     OW74596   8.735   6.217   8.904 -0.1200  0.4485  0.0241
23603SOL    HW174597   8.817   6.173   8.881 -0.4992 -0.8278  1.0106
23603SOL    HW274598   8.758   6.274   8.977  0.5472  2.5941 -1.7667
23604SOL     OW74599   3.112   3.708   4.678  0.1275  0.2613 -0.0128
23604SOL    HW174600   3.121   3.769   4.752 -1.2549  1.0253 -0.4414
23604SOL    HW274601   3.055   3.639   4.712  0.8814 -0.2863  0.1563
23605SOL     OW74602   0.126   5.366   6.644  0.0490 -0.0605  0.1388
23605SOL    HW174603   0.044   5.317   6.636 -0.0865  0.1030  0.5277
23605SOL    HW274604   0.171   5.327   6.718 -0.8337  1.4927  1.5559
23606SOL     OW74605   9.295   6.334   1.593  0.1114  0.4644  0.3439
23606SOL    HW174606   9.312   6.364   1.683 -0.3815  0.3901  0.4638
23606SOL    HW274607   9.225   6.269   1.603  0.2651  0.2390 -0.0617
23607SOL     OW74608   9.792   4.922   2.533  0.6462  0.1236  0.1078
23607SOL    HW174609   9.715   4.866   2.527  1.3829 -0.7858 -2.5144
23607SOL    HW274610   9.772   4.997   2.477  0.6163  1.3097  1.6617
23608SOL     OW74611   7.772   8.330   7.969  0.1845 -0.1867 -0.1002
23608SOL    HW174612   7.816   8.372   7.895  0.2968 -1.3255 -0.7019
23608SOL    HW274613   7.714   8.397   8.004 -0.6115  0.0788 -1.8359
23609SOL     OW74614   8.991   5.508   2.235 -0.4305 -0.4663  0.3643
23609SOL    HW174615   8.949   5.591   2.259  2.0683  1.5420 -1.6493
23609SOL    HW274616   8.988   5.506   2.140  0.0291 -2.4653  0.3548
23610SOL     OW74617   0.251   9.401   1.415  0.0005 -0.0001 -0.0034
23610SOL    HW174618   0.249   9.491   1.448  1.2028 -0.0644  0.2919
23610SOL    HW274619   0.216   9.349   1.488  1.3796  0.0076  0.6982
23611SOL     OW74620   5.818   0.316   8.560  0.0637  0.5635  0.2965
23611SOL    HW174621   5.727   0.288   8.558  0.6375 -1.4232 -0.7181
23611SOL    HW274622   5.864   0.246   8.607  1.0752  1.5896  0.9115
23612SOL     OW74623   7.007   6.282   6.963  0.1715 -0.3551  0.1169
23612SOL    HW174624   7.073   6.257   7.028 -1.0565 -0.2977  1.4046
23612SOL    HW274625   7.026   6.374   6.943 -0.1705 -0.0308  1.2676
23613SOL     OW74626  10.008   8.166   7.111  0.5765 -0.4210  0.1656
23613SOL    HW174627   9.958   8.085   7.112 -1.3119  0.6477 -0.8656
23613SOL    HW274628  10.000   8.198   7.021  1.8593  0.5639  0.3683
23614SOL     OW74629   4.161  10.104   7.139  0.5196  0.1163 -0.6346
23614SOL    HW174630   4.207  10.105   7.055 -0.0430 -0.4144 -0.9589
23614SOL    HW274631   4.189  10.024   7.181  1.7107  0.9525  0.2181
23615SOL     OW74632   0.058   9.448   3.368  0.1959  0.1321 -0.2935
23615SOL    HW174633   0.105   9.530   3.385  1.5884 -0.8268  0.6749
23615SOL    HW274634   0.127   9.384   3.351 -0.9112 -0.5487 -2.5694
23616SOL     OW74635   7.020   5.387   7.482  0.5820 -0.2831  0.5888
23616SOL    HW174636   6.980   5.376   7.569 -1.4123 -0.1895 -0.2582
23616SOL    HW274637   7.067   5.305   7.466 -2.2802 -1.9880  0.2034
23617SOL     OW74638   9.272  10.200   6.341  0.3885  0.1062  0.4671
23617SOL    HW174639   9.346  10.261   6.340  0.1645  0.3597 -0.7071
23617SOL    HW274640   9.313  10.114   6.330  0.4416  0.3319 -1.2475
23618SOL     OW74641   3.976   3.982   6.234 -0.0657  0.6981  0.1401
23618SOL    HW174642   3.919   3.915   6.195  2.1444 -0.0528 -2.0318
23618SOL    HW274643   3.937   4.065   6.205 -2.2794  0.4567  2.0733
23619SOL     OW74644   8.612   2.294   8.589 -0.1249 -0.1442 -0.9045
23619SOL    HW174645   8.669   2.328   8.520  1.4724 -1.6702 -0.4061
23619SOL    HW274646   8.669   2.285   8.665 -1.3281 -0.5953 -0.0349
23620SOL     OW74647   9.397   7.103   7.245 -0.5602  0.0066  0.1825
23620SOL    HW174648   9.468   7.041   7.262 -0.9925 -0.2962  0.9401
23620SOL    HW274649   9.442   7.184   7.219  0.0085 -0.6063 -0.8084
23621SOL     OW74650   2.813   7.664   1.339 -0.3554  0.6575 -0.2043
23621SOL    HW174651   2.748   7.697   1.277  0.4828  1.0647 -0.9052
23621SOL    HW274652   2.814   7.570   1.325 -1.3203  0.5535  0.3532
23622SOL     OW74653   9.034   6.692   1.520  0.2746  0.6588 -0.1744
23622SOL    HW174654   9.070   6.649   1.442  0.7374 -0.8469  0.8236
23622SOL    HW274655   8.969   6.753   1.486 -0.0143 -0.4401 -1.6990
23623SOL     OW74656  10.285   0.938   0.681 -0.2541 -0.2017  0.2495
23623SOL    HW174657  10.234   0.864   0.648 -0.8803 -0.0386  0.8394
23623SOL    HW274658  10.230   0.977   0.748  0.9151 -0.4142  1.3773
23624SOL     OW74659   4.687   7.400   0.188 -0.0376 -0.0660  0.7414
23624SOL    HW174660   4.762   7.346   0.162 -0.2080 -0.5700  1.2666
23624SOL    HW274661   4.612   7.359   0.145  0.0406  0.7216 -0.1740
23625SOL     OW74662   7.360   7.870   5.426 -0.2565 -0.0864  0.0924
23625SOL    HW174663   7.442   7.855   5.474 -0.0600  1.1175  0.1774
23625SOL    HW274664   7.373   7.955   5.384 -0.7999 -0.6872 -1.3425
23626SOL     OW74665   1.596   8.297   0.343  0.1344  0.0718  0.5245
23626SOL    HW174666   1.615   8.210   0.378  1.0101  0.1551  0.2772
23626SOL    HW274667   1.636   8.358   0.406 -1.1910  0.3416  1.1423
23627SOL     OW74668   7.523   6.112   8.436 -0.1113 -0.1067 -0.0638
23627SOL    HW174669   7.569   6.168   8.374  1.5910  1.6662  2.6082
23627SOL    HW274670   7.457   6.169   8.476 -0.0845 -0.7207  0.8893
23628SOL     OW74671   9.545   1.201   6.404 -0.8091  0.4169 -0.0656
23628SOL    HW174672   9.463   1.153   6.417 -0.7290  0.5504  1.0188
23628SOL    HW274673   9.517   1.291   6.386 -0.9537  0.0307 -1.9619
23629SOL     OW74674   7.558   0.853   0.843  0.2231  0.0821 -0.4697
23629SOL    HW174675   7.582   0.849   0.935  0.2730 -1.7554 -0.5212
23629SOL    HW274676   7.633   0.814   0.797 -0.0546  0.4147 -1.2234
23630SOL     OW74677   1.317   4.136   9.054  0.5228 -0.2079  0.1272
23630SOL    HW174678   1.372   4.095   9.121  0.7700  1.4359  0.9791
23630SOL    HW274679   1.229   4.132   9.090  0.5849  0.2297  0.3329
23631SOL     OW74680   7.918   9.948   0.376 -0.5879  0.1308  0.7881
23631SOL    HW174681   7.834   9.934   0.333 -0.5609 -0.1960  0.8400
23631SOL    HW274682   7.911  10.036   0.414 -1.4508 -0.4420  2.0310
23632SOL     OW74683   1.278   3.834   1.264  0.2240 -0.4471 -0.5850
23632SOL    HW174684   1.363   3.809   1.230 -0.5945 -0.1293 -3.0773
23632SOL    HW274685   1.216   3.813   1.194 -1.4600  1.3555  0.2450
23633SOL     OW74686   4.561   3.919   0.324 -0.3530 -0.0109  0.0331
23633SOL    HW174687   4.589   4.008   0.347 -0.3281  0.2584 -1.0161
23633SOL    HW274688   4.498   3.931   0.253 -1.4453 -0.7526  0.8266
23634SOL     OW74689   6.413   9.588   0.530  0.1358  0.1403 -0.4821
23634SOL    HW174690   6.355   9.533   0.478 -0.3538  0.1764  0.0156
23634SOL    HW274691   6.363   9.668   0.547 -0.6152 -0.7532  1.9265
23635SOL     OW74692   0.633   2.632   8.045 -0.1167  0.2180  0.5676
23635SOL    HW174693   0.684   2.663   8.120  0.3161  1.2858 -0.1439
23635SOL    HW274694   0.562   2.695   8.037  1.3899  1.7761 -1.5722
23636SOL     OW74695   3.863   7.421   3.270  0.0888  0.4000  0.5076
23636SOL    HW174696   3.918   7.411   3.348 -0.7854 -0.7760  1.0107
23636SOL    HW274697   3.861   7.334   3.231 -1.3492  0.4233  0.4811
23637SOL     OW74698   2.347   2.481   9.807  0.4504 -0.1500  0.0931
23637SOL    HW174699   2.271   2.467   9.751  0.4112 -0.8258  0.3041
23637SOL    HW274700   2.313   2.472   9.896  0.9843 -1.7046  0.1739
23638SOL     OW74701   2.430   5.283   8.858  0.2733 -0.2856  0.2654
23638SOL    HW174702   2.365   5.342   8.896  0.7612 -0.1256  0.8647
23638SOL    HW274703   2.439   5.313   8.767 -0.3884 -0.2292  0.2120
23639SOL     OW74704   2.409   0.247   5.617  0.4306 -0.2335 -0.3624
23639SOL    HW174705   2.350   0.197   5.560 -1.6599 -0.0942  1.5267
23639SOL    HW274706   2.478   0.185   5.641  0.2575 -0.8749 -1.4500
23640SOL     OW74707   0.232   4.127   8.884 -0.8424 -0.1964  0.1584
23640SOL    HW174708   0.315   4.175   8.895 -0.5666 -0.8377  0.9049
23640SOL    HW274709   0.216   4.130   8.790  0.2532 -0.4291 -0.0483
23641SOL     OW74710   0.867   8.374   4.885  0.0890 -0.4532  0.2911
23641SOL    HW174711   0.887   8.412   4.971 -1.5897 -1.0686  0.9744
23641SOL    HW274712   0.903   8.438   4.823  2.7674 -0.7458  1.3778
23642SOL     OW74713   7.553   6.816   3.741  0.8305  0.4371  0.5775
23642SOL    HW174714   7.612   6.851   3.675  0.5613 -0.5374 -0.2068
23642SOL    HW274715   7.607   6.805   3.819  1.0831  1.8651  0.6282
23643SOL     OW74716   0.303   3.379   7.088  0.4497  0.1701 -0.3372
23643SOL    HW174717   0.220   3.357   7.130  0.7770 -0.3634  0.0434
23643SOL    HW274718   0.367   3.320   7.128  1.5987  2.5419  1.6040
23644SOL     OW74719   8.550   1.197   4.528  0.8147 -0.0004 -0.0170
23644SOL    HW174720   8.513   1.142   4.460  2.0870 -0.6497 -0.2253
23644SOL    HW274721   8.587   1.272   4.481 -0.7277  0.9522  0.2450
23645SOL     OW74722   6.896   7.818   7.034 -0.1906  0.0357 -0.2309
23645SOL    HW174723   6.970   7.853   7.084 -0.1854 -0.0364 -0.1872
23645SOL    HW274724   6.849   7.895   7.003  0.0320  0.0836 -0.4526
23646SOL     OW74725   6.075   7.855  10.009  0.2963  0.2098 -0.7700
23646SOL    HW174726   6.047   7.765   9.990 -0.5424  0.4096 -0.4883
23646SOL    HW274727   6.025   7.909   9.948 -0.8058  0.6665  0.5089
23647SOL     OW74728   9.859   5.120   5.560 -0.5710 -0.0218 -0.2006
23647SOL    HW174729   9.931   5.166   5.518 -1.1588  1.1755  0.0528
23647SOL    HW274730   9.889   5.029   5.568 -0.0809 -0.0942 -2.3277
23648SOL     OW74731   2.611   4.978   7.930 -0.0314  0.1785 -0.0273
23648SOL    HW174732   2.671   4.977   8.004  0.3727  0.2476 -0.3553
23648SOL    HW274733   2.543   5.041   7.955 -0.0539 -0.0182  0.4085
23649SOL     OW74734   9.787   8.412   2.974  0.2782  0.2168 -0.5261
23649SOL    HW174735   9.736   8.434   3.052 -1.4030  0.4538 -1.6411
23649SOL    HW274736   9.815   8.321   2.988  2.8271  1.1970  1.7646
23650SOL     OW74737   1.077   0.430   5.314  0.2932 -0.2161 -0.1374
23650SOL    HW174738   1.042   0.512   5.279 -0.5082  0.2118  1.5669
23650SOL    HW274739   1.039   0.423   5.401  1.8403 -1.4552  0.4889
23651SOL     OW74740   6.693   6.132   6.831  0.0858  0.6285 -0.1486
23651SOL    HW174741   6.696   6.115   6.736  1.0122 -0.3442  0.0345
23651SOL    HW274742   6.785   6.134   6.857 -0.1655  1.0004  0.7215
23652SOL     OW74743   6.624   7.751   7.876  0.2694 -0.0112 -0.2519
23652SOL    HW174744   6.692   7.733   7.941  0.2559  0.4879 -0.0911
23652SOL    HW274745   6.547   7.704   7.909  0.8218 -1.4809 -1.0120
23653SOL     OW74746   5.277  10.170   2.713 -0.3526  0.2396 -0.2860
23653SOL    HW174747   5.214  10.232   2.749 -1.4875 -0.5288 -0.8844
23653SOL    HW274748   5.348  10.225   2.679 -1.3430  1.2218 -0.8335
23654SOL     OW74749   9.277   3.464   2.203 -0.3685 -0.1487  0.5001
23654SOL    HW174750   9.190   3.471   2.243  0.0756  0.7436  1.3731
23654SOL    HW274751   9.300   3.554   2.181  0.5547 -0.3027  0.7843
23655SOL     OW74752   7.003   9.268   2.099  0.1538 -0.3172 -0.3679
23655SOL    HW174753   6.986   9.222   2.181 -0.0033  0.0994 -0.1631
23655SOL    HW274754   6.991   9.361   2.120  2.6681  0.0458 -0.1973
23656SOL     OW74755   6.276   0.885   4.826 -0.1749 -0.7574  0.0827
23656SOL    HW174756   6.240   0.797   4.828  1.7537 -1.6739 -1.3166
23656SOL    HW274757   6.321   0.895   4.910 -0.9113 -0.8643  0.4912
23657SOL     OW74758   4.061   1.731   9.111 -0.2668 -0.0600  0.5132
23657SOL    HW174759   4.060   1.796   9.042  1.7722 -0.7492 -0.2522
23657SOL    HW274760   4.116   1.769   9.180 -0.8314 -0.1013  0.9972
23658SOL     OW74761   6.940   5.673   1.864 -0.2072  0.3570  0.4251
23658SOL    HW174762   7.035   5.681   1.872 -0.1934 -0.9075  1.8853
23658SOL    HW274763   6.909   5.763   1.851  1.0431  0.9883  1.6469
23659SOL     OW74764   7.211   4.326   3.688 -0.5936  0.3847 -0.3494
23659SOL    HW174765   7.290   4.344   3.738 -0.7600  1.4791 -0.4539
23659SOL    HW274766   7.148   4.294   3.752  0.5124 -2.4827 -0.5609
23660SOL     OW74767   4.445   0.191   1.911  0.1933 -0.0945  0.1921
23660SOL    HW174768   4.459   0.260   1.975 -0.9745 -0.1288  0.5129
23660SOL    HW274769   4.466   0.110   1.957  0.8418 -0.0138  0.0458
23661SOL     OW74770   9.761   6.660   1.595 -0.2703 -0.2448 -0.6137
23661SOL    HW174771   9.757   6.642   1.689  0.2559  0.4549 -0.4486
23661SOL    HW274772   9.773   6.574   1.555 -1.2304 -0.6274 -0.0996
23662SOL     OW74773   5.432   3.099   0.146 -0.5119 -0.0494  0.3582
23662SOL    HW174774   5.352   3.131   0.105 -1.1147 -0.6602  1.0297
23662SOL    HW274775   5.484   3.177   0.161 -0.7907  0.3094 -0.4712
23663SOL     OW74776   3.393   6.792   2.710 -0.1241 -0.7348 -0.0702
23663SOL    HW174777   3.371   6.849   2.637  0.9879  1.5223  1.2565
23663SOL    HW274778   3.317   6.796   2.768 -0.5143 -1.5687 -0.5043
23664SOL     OW74779   8.122   7.613   4.480  0.6091  0.3065  0.2309
23664SOL    HW174780   8.082   7.651   4.401 -0.5480 -1.6348 -0.1801
23664SOL    HW274781   8.122   7.684   4.544 -3.0418  0.6299  0.0633
23665SOL     OW74782   6.174   0.301   7.015  0.0492  0.0854  0.7019
23665SOL    HW174783   6.251   0.298   7.072 -0.4715 -2.5037  1.3805
23665SOL    HW274784   6.103   0.326   7.074  0.0244  0.6240  0.4559
23666SOL     OW74785   9.297   0.698   2.789 -0.0991  0.9340  0.4440
23666SOL    HW174786   9.333   0.635   2.727  0.7335  3.2816 -1.6452
23666SOL    HW274787   9.205   0.673   2.798 -0.2569  0.4740 -1.7801
23667SOL     OW74788   3.435   0.351   0.599 -0.2591  0.4095 -0.0907
23667SOL    HW174789   3.422   0.270   0.648  1.4091  0.5681  0.6857
23667SOL    HW274790   3.485   0.325   0.522  3.5562  1.0775  1.9392
23668SOL     OW74791   7.313   3.726   8.946 -0.0376 -0.0927 -0.3171
23668SOL    HW174792   7.361   3.714   8.864  0.1830 -0.0039 -0.2009
23668SOL    HW274793   7.242   3.662   8.942 -0.9274  0.8863 -1.2520
23669SOL     OW74794   0.935   1.397   5.957 -0.4996 -0.6795  0.0096
23669SOL    HW174795   0.860   1.370   6.011  0.2904 -0.1013  1.4464
23669SOL    HW274796   1.011   1.386   6.014  0.3765 -0.0215 -0.9906
23670SOL     OW74797   0.178   9.643   6.912 -0.2635 -0.6885  0.2284
23670SOL    HW174798   0.257   9.642   6.859 -0.9321  1.8995 -0.9916
23670SOL    HW274799   0.202   9.598   6.993  3.1936  1.9483  0.8716
23671SOL     OW74800   9.693   0.101   6.165 -0.2991 -0.3009 -0.2833
23671SOL    HW174801   9.722   0.175   6.112  1.3428 -0.5772  0.1680
23671SOL    HW274802   9.643   0.046   6.105 -0.3863  0.5036 -0.9601
23672SOL     OW74803   7.918   4.781   4.698  0.2074 -0.0551  0.0900
23672SOL    HW174804   7.997   4.752   4.744  3.0355  2.2432 -2.8404
23672SOL    HW274805   7.896   4.709   4.639  0.8510 -0.2710  0.1112
23673SOL     OW74806   9.866  10.188   1.221  0.1472  0.2418 -0.2164
23673SOL    HW174807   9.903  10.133   1.290 -2.1979  1.3774  2.1122
23673SOL    HW274808   9.783  10.144   1.198 -0.1677  1.0722 -0.6829
23674SOL     OW74809   9.133  10.188   7.910 -0.4791  0.1304  0.5603
23674SOL    HW174810   9.129  10.269   7.961 -1.2076  0.6224 -0.2554
23674SOL    HW274811   9.073  10.203   7.837 -3.5296 -2.4965  2.2957
23675SOL     OW74812   9.272   3.913   0.442  0.1847 -1.0465  0.0000
23675SOL    HW174813   9.252   3.820   0.453 -0.2122 -0.9165  0.4609
23675SOL    HW274814   9.263   3.949   0.530  0.3865 -0.5805 -0.1693
23676SOL     OW74815   6.938   6.047   7.213 -0.0097  0.1202 -0.5231
23676SOL    HW174816   6.988   6.095   7.279 -1.4205 -0.2555  0.8961
23676SOL    HW274817   7.004   6.003   7.160  1.1970  0.9488  0.2421
23677SOL     OW74818   9.200   0.150   9.764  0.0753 -0.5336  0.1085
23677SOL    HW174819   9.187   0.057   9.747  2.1289 -0.8471 -0.0221
23677SOL    HW274820   9.152   0.194   9.693  1.7245 -1.6149 -1.7694
23678SOL     OW74821   6.967   1.658   7.264 -0.2660 -0.2560 -0.2566
23678SOL    HW174822   6.999   1.703   7.186 -0.5266  1.0169  0.3499
23678SOL    HW274823   7.039   1.602   7.291  0.8290  1.2400  0.0710
23679SOL     OW74824   9.451   4.807   4.798 -0.3662 -0.2508 -0.9056
23679SOL    HW174825   9.511   4.874   4.764 -0.2144  0.0754 -0.0051
23679SOL    HW274826   9.509   4.739   4.834 -0.5296 -0.5320 -1.1669
23680SOL     OW74827   4.152   9.584   2.443  0.1166 -0.3990 -0.1763
23680SOL    HW174828   4.085   9.524   2.477  0.3611  0.2971  1.6237
23680SOL    HW274829   4.107   9.633   2.374 -0.7491 -1.0680 -0.1099
23681SOL     OW74830   1.012   9.347   5.973  0.2113  0.3380  0.7622
23681SOL    HW174831   0.981   9.287   5.905  1.4560  0.2879  0.2028
23681SOL    HW274832   0.974   9.313   6.054 -1.2990  0.3919  0.1202
23682SOL     OW74833   7.116   3.184   2.816  0.2045 -0.9502 -0.2311
23682SOL    HW174834   7.104   3.144   2.902 -0.8162  0.3770  0.2818
23682SOL    HW274835   7.153   3.270   2.835  0.8128 -0.9932 -1.1852
23683SOL     OW74836   7.316   9.978   0.347  0.4245 -0.1160  0.4819
23683SOL    HW174837   7.230  10.019   0.339 -0.3882 -1.7730  0.3315
23683SOL    HW274838   7.365  10.010   0.271 -0.1158  0.6906  0.4659
23684SOL     OW74839   0.178   7.278   5.835  0.2481  0.1053  0.3934
23684SOL    HW174840   0.220   7.352   5.879  1.5335 -0.4197  0.0684
23684SOL    HW274841   0.098   7.263   5.886  0.9818  0.4255  1.6889
23685SOL     OW74842   7.534   8.758   0.089  0.5467 -0.2112  0.1686
23685SOL    HW174843   7.441   8.740   0.081  0.3421  0.7543  0.2439
23685SOL    HW274844   7.564   8.771  -0.001  0.7897 -1.3086  0.0748
23686SOL     OW74845   0.837   9.201   2.680  0.4075  0.2752 -0.1754
23686SOL    HW174846   0.758   9.165   2.639 -0.8469  0.3861  2.0156
23686SOL    HW274847   0.806   9.277   2.729  1.9031  0.3835  0.6574
23687SOL     OW74848   7.041   7.947   1.095 -0.0955  0.1877  0.1750
23687SOL    HW174849   6.977   7.890   1.137 -1.5014  0.2314 -1.7504
23687SOL    HW274850   7.005   7.962   1.007  2.2964  0.6819 -0.7965
23688SOL     OW74851   6.667   7.262   6.590 -0.0204 -0.4166 -0.2404
23688SOL    HW174852   6.762   7.258   6.591 -0.0445 -1.1896  1.1725
23688SOL    HW274853   6.645   7.300   6.505  1.5791  1.0088 -0.0612
23689SOL     OW74854   5.724   6.405   9.135  0.0908  0.3162 -0.1252
23689SOL    HW174855   5.695   6.483   9.088 -1.8146 -0.9388 -1.1827
23689SOL    HW274856   5.673   6.405   9.216 -0.1753  0.0256 -0.2866
23690SOL     OW74857   9.593   0.978   2.423  0.0913 -0.2820 -0.0139
23690SOL    HW174858   9.574   0.944   2.335 -0.7299  1.9550 -0.7639
23690SOL    HW274859   9.507   0.991   2.463  0.4076  0.1311  0.5506
23691SOL     OW74860   2.972   3.530   0.698  0.6187  0.0728  0.3786
23691SOL    HW174861   3.052   3.582   0.697  0.2202  0.8512 -3.0118
23691SOL    HW274862   2.978   3.478   0.779  3.9029  0.9953  0.8748
23692SOL     OW74863   0.029   0.370   6.865 -0.1964 -0.0197  0.4631
23692SOL    HW174864   0.102   0.427   6.839  1.0650 -1.7372 -0.0265
23692SOL    HW274865  -0.039   0.387   6.800  0.8630 -0.3621 -0.7804
23693SOL     OW74866   2.485   3.635   6.002 -0.0760  0.2477  0.0016
23693SOL    HW174867   2.495   3.589   5.919  1.9057  2.8577 -1.3551
23693SOL    HW274868   2.449   3.721   5.978  1.0292  1.2756  1.7669
23694SOL     OW74869   7.357   4.418   1.203  0.0938 -0.4217 -0.0124
23694SOL    HW174870   7.295   4.397   1.272  0.5094  1.1006  0.8685
23694SOL    HW274871   7.303   4.429   1.125 -0.8214  1.1977  0.7991
23695SOL     OW74872   3.527   8.663   4.358 -0.2327 -0.4665  0.0195
23695SOL    HW174873   3.583   8.727   4.401 -0.6082 -1.9306  2.8865
23695SOL    HW274874   3.572   8.579   4.371 -1.2317 -1.1839 -0.9847
23696SOL     OW74875   8.394   6.275   1.231  0.1465 -0.1074  0.4924
23696SOL    HW174876   8.386   6.186   1.266 -1.6482 -0.1620  0.0511
23696SOL    HW274877   8.487   6.297   1.240  0.6983 -2.1670  0.2543
23697SOL     OW74878   4.162   6.458   1.374 -0.6630 -0.7421 -0.1564
23697SOL    HW174879   4.164   6.473   1.469 -1.1876 -1.6630  0.0140
23697SOL    HW274880   4.184   6.543   1.336 -1.3727 -0.1134  0.7753
23698SOL     OW74881   0.823   4.087   7.218 -0.5179 -0.2154  0.0873
23698SOL    HW174882   0.783   4.017   7.167 -1.4228  0.9363 -0.8672
23698SOL    HW274883   0.881   4.131   7.155 -2.7074  2.1092 -0.4990
23699SOL     OW74884   2.462   3.362   8.189 -0.6022  0.1274  0.0081
23699SOL    HW174885   2.419   3.383   8.272 -0.2726  2.0226 -0.2619
23699SOL    HW274886   2.552   3.392   8.201 -1.0426  2.3741 -1.6907
23700SOL     OW74887  10.288   0.212   2.539 -0.6336  0.0485  0.3528
23700SOL    HW174888  10.381   0.212   2.561 -0.5508  1.3771  0.0508
23700SOL    HW274889  10.285   0.243   2.449 -1.0978 -3.5839 -1.0784
23701SOL     OW74890   8.705   6.650   7.562  0.0895 -0.2278 -0.3046
23701SOL    HW174891   8.752   6.579   7.607 -1.0446  0.0370  1.3985
23701SOL    HW274892   8.754   6.729   7.585  0.2158 -0.2325 -0.5572
23702SOL     OW74893   4.337   2.819   6.174  0.5132 -0.9266  0.8860
23702SOL    HW174894   4.284   2.898   6.186  0.6672 -0.5509 -0.6802
23702SOL    HW274895   4.424   2.843   6.207  0.4441 -0.5957  0.8290
23703SOL     OW74896   8.998   7.688   7.882  0.1370 -0.1892 -0.4189
23703SOL    HW174897   9.091   7.676   7.902  0.2193  1.6683  0.5360
23703SOL    HW274898   8.996   7.699   7.787  0.8278 -0.7192 -0.5079
23704SOL     OW74899   6.201   6.050   7.773  0.2662 -0.2629  0.0109
23704SOL    HW174900   6.288   6.090   7.775 -0.4373  1.3504 -0.0518
23704SOL    HW274901   6.192   6.017   7.683  0.4890  0.3207 -0.2281
23705SOL     OW74902   8.686   4.854   6.461  0.0068 -0.4325 -0.5504
23705SOL    HW174903   8.757   4.800   6.496  1.4420  1.7653  0.0787
23705SOL    HW274904   8.607   4.819   6.503  1.3515  0.4841  3.0695
23706SOL     OW74905   5.063   4.923   5.193 -0.0027 -0.2372 -0.0912
23706SOL    HW174906   5.133   4.878   5.145  2.3130  1.1971  1.7143
23706SOL    HW274907   5.025   4.856   5.249  1.2181 -0.6737  0.2551
23707SOL     OW74908   1.796   6.772   6.796  0.6670  0.2008  0.1130
23707SOL    HW174909   1.739   6.795   6.723 -0.3506 -1.6459  0.2628
23707SOL    HW274910   1.736   6.747   6.867  1.6370 -0.2580  0.8076
23708SOL     OW74911  10.308   7.270   3.343  0.5623  0.3665  0.5838
23708SOL    HW174912  10.321   7.229   3.429 -0.9342 -0.4582  0.4316
23708SOL    HW274913  10.371   7.343   3.342  2.9326 -1.5591  1.0532
23709SOL     OW74914   9.238   6.722   7.116  0.0154  0.0117 -0.1752
23709SOL    HW174915   9.324   6.716   7.159  0.4477  3.4071 -0.3267
23709SOL    HW274916   9.180   6.757   7.184 -0.4260  0.9234 -1.0004
23710SOL     OW74917   8.856   2.383   9.664 -0.2734  0.1136 -0.5693
23710SOL    HW174918   8.805   2.342   9.734 -0.0392  2.3114  1.0047
23710SOL    HW274919   8.879   2.469   9.699  2.3258  0.2107 -2.2188
23711SOL     OW74920   9.838  10.042   5.093 -0.9017  0.1509 -0.4870
23711SOL    HW174921   9.903  10.095   5.045  0.6875 -1.2687 -0.0073
23711SOL    HW274922   9.767  10.029   5.030 -0.3528  1.0474 -1.3263
23712SOL     OW74923   0.856   1.533   1.910  0.2898 -1.0677 -0.4370
23712SOL    HW174924   0.843   1.470   1.981 -0.3192 -0.3736  0.0833
23712SOL    HW274925   0.779   1.590   1.915  1.9815  1.2791  0.7263
23713SOL     OW74926   2.755   8.345   0.737  0.4342  0.1520  0.7207
23713SOL    HW174927   2.728   8.299   0.658 -0.2767 -0.4979  1.3348
23713SOL    HW274928   2.790   8.277   0.794  0.5019  0.5459  1.1592
23714SOL     OW74929  10.221   6.551   3.920 -0.1488 -0.1615 -0.2870
23714SOL    HW174930  10.151   6.516   3.865  0.3159  0.2281 -1.1434
23714SOL    HW274931  10.292   6.571   3.859  1.7632 -3.0128  0.7926
23715SOL     OW74932   4.039   7.733   1.598 -0.3694 -0.3330  0.0645
23715SOL    HW174933   3.973   7.799   1.578 -1.2262 -0.3185  2.5137
23715SOL    HW274934   4.117   7.784   1.620 -0.3757 -0.2347 -0.1337
23716SOL     OW74935   5.280   0.933   3.200 -0.3385 -0.3997  0.0036
23716SOL    HW174936   5.223   0.869   3.243  1.1965 -2.5059 -0.9068
23716SOL    HW274937   5.301   0.894   3.115  0.4874  1.4464 -0.7032
23717SOL     OW74938   0.797   8.468   5.529 -0.5736  0.1745  0.4446
23717SOL    HW174939   0.892   8.472   5.543 -0.4553 -0.9042  0.0248
23717SOL    HW274940   0.767   8.558   5.544  0.9152  1.2403 -2.3666
23718SOL     OW74941   2.104   5.697   6.507  0.6122  0.8992  0.0815
23718SOL    HW174942   2.184   5.661   6.546  0.1330  0.5517  0.7599
23718SOL    HW274943   2.035   5.678   6.571 -0.2858 -0.1494 -1.1307
23719SOL     OW74944   8.548   7.674   3.227 -0.0305 -0.2720 -0.0311
23719SOL    HW174945   8.590   7.631   3.152  0.6029 -0.5624  0.4799
23719SOL    HW274946   8.565   7.615   3.300 -2.3796 -1.0136 -0.0087
23720SOL     OW74947   7.089   6.855   7.118  0.0954  0.3005  0.8088
23720SOL    HW174948   7.142   6.931   7.143  0.5056  0.3794 -0.2532
23720SOL    HW274949   7.005   6.893   7.090  0.8604  0.5502 -1.3143
23721SOL     OW74950   7.232   0.138   4.607 -0.2730  0.8679  0.4502
23721SOL    HW174951   7.273   0.162   4.523  0.0486 -0.8208  0.0989
23721SOL    HW274952   7.297   0.163   4.673  1.6633 -2.1509 -0.1199
23722SOL     OW74953   9.379   1.810   7.644 -0.1871  0.2390 -0.0744
23722SOL    HW174954   9.303   1.768   7.684 -1.0216  1.8200  0.0623
23722SOL    HW274955   9.383   1.896   7.685  1.0525  0.5744 -0.8524
23723SOL     OW74956   5.566   7.671   0.967 -0.1524  0.5354  0.5237
23723SOL    HW174957   5.524   7.631   1.043  0.3489  1.6192  1.4041
23723SOL    HW274958   5.633   7.728   1.004  0.9736  0.1014 -0.7932
23724SOL     OW74959   3.014   4.736   2.278  0.2052  0.0597 -0.6108
23724SOL    HW174960   3.021   4.708   2.187  2.2573  0.2954 -0.5661
23724SOL    HW274961   2.978   4.825   2.273  0.0180 -0.0454 -1.1650
23725SOL     OW74962   6.541   7.863   2.790  0.5745 -0.4241  0.4594
23725SOL    HW174963   6.566   7.775   2.819  2.1735 -0.0507  0.3392
23725SOL    HW274964   6.467   7.849   2.731  0.3580 -1.6147  0.9872
23726SOL     OW74965   3.138   9.217   2.153  0.8178  0.0705  0.2034
23726SOL    HW174966   3.111   9.305   2.180 -0.4552 -0.5241  0.9511
23726SOL    HW274967   3.166   9.228   2.062 -1.0668  0.9474 -0.3244
23727SOL     OW74968   9.149   7.057   5.422 -0.0773  1.2610  0.2481
23727SOL    HW174969   9.106   7.043   5.506  0.7482  2.7786  0.9611
23727SOL    HW274970   9.157   7.152   5.414  1.7662  1.0816 -0.5594
23728SOL     OW74971   0.834   6.382   7.732  0.5333 -0.0618 -0.2695
23728SOL    HW174972   0.852   6.437   7.655  1.7509  0.0807  0.1070
23728SOL    HW274973   0.806   6.298   7.695 -0.6156  0.5514 -0.8515
23729SOL     OW74974   1.368   3.111   0.343  0.0675 -0.1373 -0.2910
23729SOL    HW174975   1.398   3.041   0.400  0.5884  1.7944  1.9726
23729SOL    HW274976   1.436   3.118   0.275  0.6852 -0.9139  0.2290
23730SOL     OW74977   2.472   9.876   6.915  0.6536 -0.2922 -0.2584
23730SOL    HW174978   2.447   9.952   6.969 -0.0058  0.2844 -1.3343
23730SOL    HW274979   2.524   9.913   6.844  1.6615 -1.0709  0.0546
23731SOL     OW74980   4.420   0.458   4.883  0.5555  0.4090 -0.1758
23731SOL    HW174981   4.440   0.497   4.968  0.1737  0.4351 -0.0957
23731SOL    HW274982   4.475   0.379   4.879 -0.0081 -0.0306  0.4430
23732SOL     OW74983   6.835   5.324   0.992  0.4931  0.5338  0.3393
23732SOL    HW174984   6.780   5.402   0.999 -0.0070  0.2027  0.0879
23732SOL    HW274985   6.921   5.354   1.023 -0.1830  0.6725  2.2515
23733SOL     OW74986   6.953   9.084   3.841 -0.2878  0.3652 -0.1964
23733SOL    HW174987   6.991   8.996   3.831 -0.2776  0.1792  1.2662
23733SOL    HW274988   7.005   9.139   3.782  0.9490 -0.2652  0.2665
23734SOL     OW74989   6.092   5.443   4.240  0.2079 -0.2779 -0.4308
23734SOL    HW174990   6.170   5.408   4.198  0.0432  1.2115 -2.0674
23734SOL    HW274991   6.098   5.538   4.228 -1.9058 -0.1280 -0.7124
23735SOL     OW74992   8.528   8.934   6.109  0.1211 -0.4931  0.3868
23735SOL    HW174993   8.481   8.865   6.155 -1.7725 -0.3736 -1.2509
23735SOL    HW274994   8.563   8.892   6.030 -0.0207  0.1258 -0.0195
23736SOL     OW74995   5.815   4.774   0.234  0.2457  0.4005 -0.2654
23736SOL    HW174996   5.787   4.842   0.295  0.8631  0.5537 -0.1504
23736SOL    HW274997   5.784   4.692   0.274 -0.0066  0.5600 -0.1298
23737SOL     OW74998   0.398   7.852   6.102  0.4734 -0.3501  0.2246
23737SOL    HW174999   0.383   7.880   6.192  0.0393 -1.1978  0.4226
23737SOL    HW275000   0.312   7.859   6.060  0.3684 -1.3071  0.2647
23738SOL     OW75001   9.542   5.934   7.661  0.2301  0.7018 -0.1657
23738SOL    HW175002   9.537   5.859   7.601 -0.6444  1.5695 -1.2373
23738SOL    HW275003   9.516   5.899   7.746 -0.2697 -0.2075 -0.6755
23739SOL     OW75004   9.708   8.637   9.496 -0.1462 -0.1492  0.2342
23739SOL    HW175005   9.675   8.555   9.534 -0.4445  0.2354  0.8293
23739SOL    HW275006   9.679   8.635   9.405 -1.3554 -0.0668  0.6102
23740SOL     OW75007   1.385   3.488   9.210 -0.2018 -0.0131  0.0953
23740SOL    HW175008   1.315   3.427   9.231 -0.2284 -1.1216 -2.7861
23740SOL    HW275009   1.453   3.434   9.170  0.2679  1.6238 -1.4579
23741SOL     OW75010   6.063  10.200   0.578  0.2652 -0.0290 -0.4680
23741SOL    HW175011   6.131  10.140   0.612  0.1686  0.4300  0.5711
23741SOL    HW275012   6.101  10.234   0.497  0.7175 -0.7808 -0.5919
23742SOL     OW75013   8.274   2.905   5.659 -0.1924  0.2705  0.6088
23742SOL    HW175014   8.225   2.836   5.702 -1.5533  0.8086 -0.0259
23742SOL    HW275015   8.359   2.906   5.704 -0.0003 -2.0061  0.4365
23743SOL     OW75016  10.256   3.634   3.287 -0.3702  0.1836 -0.5370
23743SOL    HW175017  10.286   3.636   3.196  0.1413  0.1768 -0.3732
23743SOL    HW275018  10.203   3.555   3.293  0.1531 -0.1836 -0.6595
23744SOL     OW75019   1.268   1.003   7.101  0.0171  0.4207  0.1459
23744SOL    HW175020   1.346   1.041   7.060 -2.1682  0.8976 -4.1477
23744SOL    HW275021   1.269   0.911   7.073 -1.3331  0.6552 -0.7725
23745SOL     OW75022   0.299   7.335   6.231 -0.1313  0.0841  0.0371
23745SOL    HW175023   0.296   7.430   6.218  1.1624 -0.0555 -1.6157
23745SOL    HW275024   0.344   7.302   6.154 -1.3169 -1.9898  0.1763
23746SOL     OW75025   9.835   1.104   0.162  0.0688 -0.3613 -0.3282
23746SOL    HW175026   9.850   1.195   0.138 -1.3827  0.1388  0.5166
23746SOL    HW275027   9.787   1.109   0.245  1.5262 -1.9344  0.6733
23747SOL     OW75028   1.576   5.104   9.845 -0.4481 -0.2443  0.2709
23747SOL    HW175029   1.606   5.014   9.839 -0.5560 -0.2314 -0.5768
23747SOL    HW275030   1.656   5.157   9.847 -0.3866 -0.2870 -0.6345
23748SOL     OW75031   5.387   1.041   5.467 -0.0128  0.2879 -0.2049
23748SOL    HW175032   5.337   0.968   5.430  1.5493 -0.4178 -1.0008
23748SOL    HW275033   5.441   1.072   5.395  0.0039  1.6711  0.3801
23749SOL     OW75034   2.475   2.921   4.136 -0.6302  0.0338  0.9655
23749SOL    HW175035   2.479   2.830   4.109  2.1456  0.0850  0.9727
23749SOL    HW275036   2.433   2.919   4.222 -0.5390 -1.2323  0.9980
23750SOL     OW75037  10.263   9.641   6.305 -0.4069 -0.2679  0.2322
23750SOL    HW175038  10.254   9.547   6.289 -1.7511 -0.2960  1.0589
23750SOL    HW275039  10.214   9.682   6.234  0.2620 -0.1689 -0.1857
23751SOL     OW75040   9.719   0.704   3.895 -0.7030  0.1264 -0.4669
23751SOL    HW175041   9.747   0.719   3.805 -0.9222  0.0539 -0.5478
23751SOL    HW275042   9.647   0.765   3.908 -0.8263 -0.0285 -0.4172
23752SOL     OW75043   9.236   4.046   3.294 -0.7341  0.2591  0.1734
23752SOL    HW175044   9.223   4.039   3.389 -2.0664  2.4024  0.2088
23752SOL    HW275045   9.314   4.100   3.284 -1.7583  1.8011  0.1256
23753SOL     OW75046   6.437   1.624   1.684 -0.3145 -0.2928 -0.0882
23753SOL    HW175047   6.458   1.681   1.610  1.8562 -0.2731  0.4678
23753SOL    HW275048   6.350   1.652   1.712 -0.8065  0.3044 -2.0357
23754SOL     OW75049   9.261   6.854  10.314  0.4743  0.8684  0.0709
23754SOL    HW175050   9.347   6.831  10.279 -0.4280  0.6194 -2.1337
23754SOL    HW275051   9.228   6.773  10.353  1.5057  1.1553  1.6138
23755SOL     OW75052   1.307   4.212   1.906 -0.2417  0.6835  0.5987
23755SOL    HW175053   1.216   4.210   1.876 -0.1319  1.5175  0.1763
23755SOL    HW275054   1.307   4.163   1.988 -1.0604  0.6174  0.5613
23756SOL     OW75055   7.482   1.428   5.605 -0.1788  0.7277  0.2059
23756SOL    HW175056   7.533   1.392   5.533  1.2763 -0.9951  2.0140
23756SOL    HW275057   7.409   1.367   5.615 -0.4975  1.0826  0.0757
23757SOL     OW75058   2.695   5.020   9.334  0.0966 -0.4384 -0.2792
23757SOL    HW175059   2.749   4.958   9.383 -0.3867  0.1870  1.1201
23757SOL    HW275060   2.755   5.059   9.271  0.8372 -1.0524  0.0264
23758SOL     OW75061   1.526   0.025   5.013 -0.6381  0.2776 -0.3102
23758SOL    HW175062   1.439  -0.014   5.008 -0.6304  0.2394 -0.1416
23758SOL    HW275063   1.551   0.017   5.105  0.1957 -1.1250 -0.6334
23759SOL     OW75064   1.388   1.813   1.746  0.1672  0.5472 -0.0383
23759SOL    HW175065   1.410   1.893   1.794 -0.4200  0.8727 -0.2976
23759SOL    HW275066   1.386   1.840   1.654 -2.7951  0.9273  0.0549
23760SOL     OW75067  10.282   6.589   5.616 -0.0588 -0.3921 -0.2290
23760SOL    HW175068  10.269   6.608   5.709 -2.0975  0.8734 -0.7049
23760SOL    HW275069  10.325   6.667   5.581  0.7961 -0.9083 -0.3568
23761SOL     OW75070   3.080   9.632   0.853 -0.2602 -0.1968  0.6275
23761SOL    HW175071   3.125   9.549   0.870 -0.3596 -0.1883  0.9423
23761SOL    HW275072   2.999   9.626   0.904 -0.5412 -0.1471  0.1911
23762SOL     OW75073   6.996   2.104   0.278  0.4842  0.2139 -0.3194
23762SOL    HW175074   6.920   2.047   0.263 -0.5053  1.7584 -1.4106
23762SOL    HW275075   7.069   2.043   0.289 -0.5245 -1.2795 -1.4580
23763SOL     OW75076   3.727   5.324   0.081  0.2540  0.2839  0.0556
23763SOL    HW175077   3.791   5.323   0.010  0.6186  1.4321  0.3399
23763SOL    HW275078   3.657   5.265   0.051  0.3987  0.7301 -1.2584
23764SOL     OW75079   1.607   7.495   3.248 -0.1176 -0.0229 -0.3553
23764SOL    HW175080   1.602   7.540   3.332 -1.3394  1.4959 -1.1881
23764SOL    HW275081   1.668   7.423   3.263 -0.0688  0.3930  1.7319
23765SOL     OW75082   3.739   2.309   1.655 -0.5661  0.2116  0.0073
23765SOL    HW175083   3.689   2.329   1.575 -0.4977  0.3478 -0.0009
23765SOL    HW275084   3.771   2.220   1.641  3.4140  1.7289 -2.2212
23766SOL     OW75085   5.570   5.763  10.205 -0.3373 -0.6070 -0.3827
23766SOL    HW175086   5.561   5.852  10.239 -1.7338 -0.0499 -2.0438
23766SOL    HW275087   5.588   5.774  10.111  1.9672 -2.0838 -0.2061
23767SOL     OW75088   7.799   6.708   9.398  0.7083 -0.2373 -0.1825
23767SOL    HW175089   7.730   6.734   9.336  0.7939 -0.5721 -0.4235
23767SOL    HW275090   7.770   6.623   9.431  1.5667 -0.9319 -1.1602
23768SOL     OW75091   1.173   5.108   5.790 -0.2732 -0.5789 -0.6669
23768SOL    HW175092   1.132   5.192   5.771  0.9812  0.5398  1.2486
23768SOL    HW275093   1.105   5.059   5.837  0.4633  1.4470  2.9463
23769SOL     OW75094   3.409   5.232   3.933 -0.1670 -0.7980 -0.3423
23769SOL    HW175095   3.326   5.272   3.907 -1.3301 -1.0765  2.6780
23769SOL    HW275096   3.463   5.306   3.961 -1.3533 -0.9596  2.6625
23770SOL     OW75097   6.224   7.749   0.661  0.0537  0.7557  0.5040
23770SOL    HW175098   6.239   7.767   0.568  2.8852  0.5315  0.8420
23770SOL    HW275099   6.129   7.754   0.671 -0.6452 -1.8534 -2.9272
23771SOL     OW75100   5.492  10.224   4.724 -0.4731 -0.3915  0.1492
23771SOL    HW175101   5.465  10.296   4.667 -0.4957  0.1182  0.8025
23771SOL    HW275102   5.456  10.246   4.810  2.6072  0.6831  1.2724
23772SOL     OW75103   5.651   3.726   7.464  0.0672  0.3645  0.8305
23772SOL    HW175104   5.624   3.668   7.393  1.0809  1.2258 -0.3063
23772SOL    HW275105   5.602   3.696   7.540  0.2722 -1.7404  0.1954
23773SOL     OW75106   0.488  10.032   8.718  0.1019  0.4197  0.0620
23773SOL    HW175107   0.579  10.018   8.693  0.3713 -1.7506  1.9884
23773SOL    HW275108   0.471   9.967   8.786 -1.9564  2.7889  2.0305
23774SOL     OW75109   1.759  10.347   1.725 -0.4047 -0.5645 -0.2380
23774SOL    HW175110   1.741  10.374   1.635  1.9106  1.4184 -0.2072
23774SOL    HW275111   1.846  10.307   1.722  0.2562  0.6503  1.2478
23775SOL     OW75112   2.242   1.839   0.262 -0.1187  0.1118 -0.1111
23775SOL    HW175113   2.180   1.898   0.218 -0.8933  0.5182  1.4604
23775SOL    HW275114   2.236   1.862   0.354  0.1228 -1.9406  0.4656
23776SOL     OW75115   7.146   2.618   0.302  0.0612 -0.3216  0.2348
23776SOL    HW175116   7.150   2.592   0.394 -2.1855  0.1765  0.5452
23776SOL    HW275117   7.052   2.629   0.285  0.5038  0.8122 -1.7674
23777SOL     OW75118   0.323   1.737  10.220  0.0623  0.0765 -0.9816
23777SOL    HW175119   0.343   1.671  10.153 -0.2558 -0.7234 -0.3009
23777SOL    HW275120   0.293   1.813  10.170 -1.6600 -1.0196 -1.7350
23778SOL     OW75121   7.731   3.454   2.832 -0.1637 -0.0288  0.4729
23778SOL    HW175122   7.797   3.461   2.901 -0.2519  0.9729  0.4723
23778SOL    HW275123   7.776   3.410   2.760 -0.0182 -0.9246  1.0982
23779SOL     OW75124  10.233   1.196   9.058 -0.0477  0.4022 -0.5826
23779SOL    HW175125  10.181   1.275   9.069  1.4954  1.6063 -1.5337
23779SOL    HW275126  10.225   1.174   8.965 -0.1164 -0.3294 -0.4159
23780SOL     OW75127   9.461   0.428   9.811 -0.0330  0.1224 -0.0781
23780SOL    HW175128   9.521   0.474   9.870  0.4377 -0.3738 -0.1646
23780SOL    HW275129   9.391   0.395   9.868 -0.1975  0.6478  0.0316
23781SOL     OW75130   7.169   6.846   2.447  0.5211 -0.0080 -0.3752
23781SOL    HW175131   7.178   6.873   2.355  0.2307  2.6090  0.2877
23781SOL    HW275132   7.098   6.782   2.446 -1.3983  1.9798 -1.7068
23782SOL     OW75133   7.675   4.736   1.575 -0.0446  0.3534  0.1365
23782SOL    HW175134   7.596   4.710   1.622 -0.3502  1.8487  0.4665
23782SOL    HW275135   7.711   4.808   1.625 -0.2923  1.9063 -1.8021
23783SOL     OW75136   1.501   7.950   2.835  0.0902 -0.1742 -0.3662
23783SOL    HW175137   1.493   8.046   2.829 -0.0346 -0.2405 -1.4609
23783SOL    HW275138   1.565   7.927   2.767 -0.3942 -0.9331 -0.5724
23784SOL     OW75139   2.490   3.473   1.282 -0.6840  0.0234 -0.2924
23784SOL    HW175140   2.545   3.412   1.233 -0.0960  0.4424 -0.1712
23784SOL    HW275141   2.553   3.527   1.332 -1.1669  0.9627 -0.6798
23785SOL     OW75142   4.649   2.640   7.244 -0.1419 -0.6629  0.1991
23785SOL    HW175143   4.661   2.733   7.221 -1.5826 -0.3815  0.4915
23785SOL    HW275144   4.640   2.641   7.340 -1.5111 -0.9116  0.0969
23786SOL     OW75145   1.877   6.160   4.477 -0.6561 -0.5219  0.0428
23786SOL    HW175146   1.951   6.213   4.449 -1.2257 -0.3275 -1.1782
23786SOL    HW275147   1.865   6.180   4.570  0.3569 -0.0134  0.0680
23787SOL     OW75148   0.678   6.123   9.944 -0.2332  0.1896 -0.1967
23787SOL    HW175149   0.619   6.129   9.869 -2.3688 -0.8551  1.3038
23787SOL    HW275150   0.628   6.075  10.010  2.6097 -1.5333  0.8849
23788SOL     OW75151   2.970   0.565   8.376  0.7233  0.0199  0.7268
23788SOL    HW175152   3.019   0.599   8.302 -0.2529 -0.2689 -0.0827
23788SOL    HW275153   2.968   0.637   8.439 -1.3075  1.5692 -0.9459
23789SOL     OW75154   3.748   4.918   3.625 -0.5406  0.2709  0.0231
23789SOL    HW175155   3.789   4.845   3.670 -1.0303  0.9020  1.5667
23789SOL    HW275156   3.743   4.891   3.534  1.0099 -0.8269  0.2225
23790SOL     OW75157   9.591   0.317  10.176  0.2072  0.1412 -0.2947
23790SOL    HW175158   9.649   0.292  10.248  0.7356  2.1362  0.0576
23790SOL    HW275159   9.624   0.269  10.100 -0.6732 -2.4065  0.8183
23791SOL     OW75160   9.530   2.314   5.533 -0.2266  0.1836 -0.1527
23791SOL    HW175161   9.475   2.254   5.584 -1.0148  0.6074 -0.4920
23791SOL    HW275162   9.556   2.263   5.456 -0.5254  0.1316 -0.2199
23792SOL     OW75163  10.301   9.615   6.587 -0.1258 -0.4363 -0.4662
23792SOL    HW175164  10.300   9.640   6.495  1.1382 -1.1632 -0.7050
23792SOL    HW275165  10.303   9.698   6.635  1.7167 -0.0434 -1.1642
23793SOL     OW75166   9.106   7.264   2.700 -0.1835 -0.2537  0.6537
23793SOL    HW175167   9.135   7.188   2.650 -1.4201  0.2934 -0.9685
23793SOL    HW275168   9.092   7.332   2.634 -1.5464  0.5993  1.7655
23794SOL     OW75169   0.633   1.327   7.277 -0.0916  0.1751  0.4101
23794SOL    HW175170   0.672   1.330   7.365 -0.9209 -1.2561  0.8568
23794SOL    HW275171   0.689   1.266   7.229 -0.6149 -0.3430  0.4559
23795SOL     OW75172   8.587   0.215   9.300  0.0101  0.2834  1.1726
23795SOL    HW175173   8.499   0.246   9.321 -0.2595  0.7301 -0.4761
23795SOL    HW275174   8.590   0.125   9.334 -1.3975 -0.0355  0.5306
23796SOL     OW75175   5.831   2.953   9.207 -0.0211  0.0015  0.2613
23796SOL    HW175176   5.797   2.876   9.162 -1.8189  0.1950  1.2048
23796SOL    HW275177   5.764   3.020   9.195 -0.1230  0.3548  2.3312
23797SOL     OW75178   3.753   3.460   5.599  0.3588  0.1137  0.4266
23797SOL    HW175179   3.679   3.491   5.547 -0.2136 -0.9798  0.5652
23797SOL    HW275180   3.739   3.366   5.608  1.2876  0.0308  1.2220
23798SOL     OW75181   5.122   5.286   6.793 -0.5112  0.0781 -0.2883
23798SOL    HW175182   5.105   5.307   6.701  0.1347  0.3502 -0.3534
23798SOL    HW275183   5.138   5.191   6.793 -1.1171 -0.0287 -0.3567
23799SOL     OW75184   0.173   9.065   6.360  0.2872  0.4291 -0.5723
23799SOL    HW175185   0.099   9.024   6.315  0.7296 -0.7256 -0.2983
23799SOL    HW275186   0.225   9.104   6.290 -1.4208  2.7614 -0.6378
23800SOL     OW75187   9.144   5.203  10.260  0.0363 -0.0880 -0.4101
23800SOL    HW175188   9.112   5.293  10.250  1.3229  0.4461  0.1129
23800SOL    HW275189   9.125   5.162  10.175 -0.1816  0.7992 -0.8044
23801SOL     OW75190   3.494   1.879   4.846  0.3609 -0.2468  0.2740
23801SOL    HW175191   3.532   1.797   4.816 -0.3411 -0.9195  1.1740
23801SOL    HW275192   3.481   1.930   4.766  1.7864 -0.5661 -0.1894
23802SOL     OW75193   8.437   7.229   9.726  0.1213  0.0109 -0.0563
23802SOL    HW175194   8.475   7.194   9.807  0.1447  1.7852  0.7373
23802SOL    HW275195   8.505   7.285   9.689  0.1805 -0.9110 -1.4362
23803SOL     OW75196   8.443   5.837   0.164  0.5033 -0.2903 -0.3837
23803SOL    HW175197   8.395   5.771   0.115 -0.8042  0.1123  0.3005
23803SOL    HW275198   8.433   5.918   0.113 -1.1068  0.1961  0.6204
23804SOL     OW75199   9.230   0.833   8.046  0.5280 -0.0712  0.0601
23804SOL    HW175200   9.179   0.807   7.969  0.4997  0.1998 -0.0121
23804SOL    HW275201   9.267   0.918   8.023  0.5113  0.0149  0.3488
23805SOL     OW75202   0.978   5.779   5.418  0.1744  0.5986 -0.0174
23805SOL    HW175203   0.976   5.855   5.477  1.6249 -0.4099  1.4218
23805SOL    HW275204   0.942   5.707   5.470 -1.1217  0.2466 -1.3443
23806SOL     OW75205   2.884   9.732   3.169  0.1351 -0.9435  0.0163
23806SOL    HW175206   2.975   9.763   3.176 -0.5500  1.5453 -0.9887
23806SOL    HW275207   2.832   9.812   3.167 -2.1053 -2.3246  0.5482
23807SOL     OW75208   9.600   0.567   7.740  0.0270 -0.2063  0.6680
23807SOL    HW175209   9.694   0.573   7.720  0.2251  1.7280  1.8202
23807SOL    HW275210   9.556   0.589   7.658  0.6167  0.1604  0.4441
23808SOL     OW75211   0.217   1.885   1.113 -0.0845 -0.3760 -0.5657
23808SOL    HW175212   0.309   1.907   1.098 -0.2756  0.8591 -0.0609
23808SOL    HW275213   0.182   1.868   1.026  0.5172 -0.4453 -0.7984
23809SOL     OW75214   6.495   5.641   4.126 -0.4518 -0.3486 -0.1723
23809SOL    HW175215   6.583   5.603   4.128  0.2991  1.2838 -0.3071
23809SOL    HW275216   6.464   5.624   4.037 -0.3861 -1.1635 -0.0449
23810SOL     OW75217   2.457   1.447   9.589 -0.6958 -0.0165 -0.5862
23810SOL    HW175218   2.549   1.465   9.569 -0.5329 -1.2107 -0.9932
23810SOL    HW275219   2.456   1.431   9.684 -0.6545  0.9705 -0.4178
23811SOL     OW75220   0.390   5.990   8.615  0.2158  0.5718 -0.7885
23811SOL    HW175221   0.484   5.983   8.630  0.8687  2.5827 -3.2617
23811SOL    HW275222   0.371   6.084   8.625 -1.3844  0.3144 -1.1093
23812SOL     OW75223   1.074   7.652   8.968 -0.3403  0.0633 -0.5331
23812SOL    HW175224   1.143   7.624   9.028 -0.9738  1.5915  1.0051
23812SOL    HW275225   0.993   7.642   9.018 -1.1045 -0.3338 -1.7981
23813SOL     OW75226   7.943   0.388   5.135 -0.3931  0.2852 -0.0160
23813SOL    HW175227   7.887   0.393   5.057  1.4692 -0.2016 -1.4681
23813SOL    HW275228   7.970   0.479   5.150 -0.4424  0.3283 -0.1791
23814SOL     OW75229   7.576   1.325   5.045 -0.4757  0.4463 -0.3586
23814SOL    HW175230   7.640   1.319   4.974 -0.7684  1.7079 -0.7649
23814SOL    HW275231   7.518   1.250   5.032  1.3479 -1.1563  0.4843
23815SOL     OW75232   6.952   5.313   8.345  0.0364 -0.1806 -0.0768
23815SOL    HW175233   6.988   5.225   8.337 -1.5743 -1.1867  2.4888
23815SOL    HW275234   6.858   5.301   8.349 -0.2393  1.7021  0.0751
23816SOL     OW75235   2.130   8.082   9.610 -0.3267 -0.4625 -0.2329
23816SOL    HW175236   2.186   8.095   9.687 -0.7302  0.2870 -0.0589
23816SOL    HW275237   2.042   8.069   9.645 -0.7113  0.9720 -0.5768
23817SOL     OW75238   5.579   3.030   1.585  0.4254 -0.0951  0.1823
23817SOL    HW175239   5.660   3.001   1.543  0.7367  1.7833 -0.5793
23817SOL    HW275240   5.545   2.951   1.628  1.7606 -1.3177 -0.9126
23818SOL     OW75241   3.846   2.057   1.608 -0.8205 -0.3539  0.0283
23818SOL    HW175242   3.825   1.993   1.676  1.4758  0.8604  2.0524
23818SOL    HW275243   3.917   2.017   1.558  0.0356  0.2158  0.7578
23819SOL     OW75244   5.835   5.784   4.836 -0.2780 -0.1324  0.0324
23819SOL    HW175245   5.845   5.854   4.771  0.4873  0.2426  0.5451
23819SOL    HW275246   5.924   5.765   4.866 -0.7263  0.7554  2.0701
23820SOL     OW75247   2.587   4.211   4.002 -0.3286  0.0313  0.2256
23820SOL    HW175248   2.546   4.195   4.087 -2.1894 -0.2219 -0.6639
23820SOL    HW275249   2.573   4.131   3.952  1.0394  0.0481 -0.2333
23821SOL     OW75250   0.340   4.492   9.242 -0.0452  0.1885  0.6943
23821SOL    HW175251   0.367   4.502   9.333 -1.2614 -0.0341  1.1051
23821SOL    HW275252   0.321   4.398   9.233  1.9275 -0.1572 -0.3565
23822SOL     OW75253  10.243   1.590   5.302  0.1168  0.1275 -0.3116
23822SOL    HW175254  10.225   1.627   5.216 -0.8989 -0.1797 -0.2436
23822SOL    HW275255  10.335   1.563   5.298  1.0316  2.9181 -0.2542
23823SOL     OW75256   8.782   2.067   8.378  0.2104 -0.4913 -0.2623
23823SOL    HW175257   8.769   1.994   8.437 -0.0572 -0.4230 -0.2385
23823SOL    HW275258   8.875   2.090   8.388  0.2103 -0.6024 -0.0147
23824SOL     OW75259   7.755   9.588   3.245 -0.1261  0.1422  0.0080
23824SOL    HW175260   7.834   9.616   3.291  0.7251 -2.3640  0.2395
23824SOL    HW275261   7.742   9.653   3.176  4.2318 -1.0982 -2.3380
23825SOL     OW75262   3.041   2.411   9.734  0.0598 -0.0672 -0.2618
23825SOL    HW175263   3.046   2.365   9.650 -2.5636  0.1431 -0.5924
23825SOL    HW275264   3.007   2.345   9.795 -0.3847  0.4648  0.0677
23826SOL     OW75265   1.038   6.888   9.862  0.1321 -0.2407 -0.1262
23826SOL    HW175266   0.978   6.953   9.898  0.2338 -0.7003  0.9114
23826SOL    HW275267   0.986   6.808   9.854  0.3321 -0.3675 -0.1874
23827SOL     OW75268   3.567   9.675   7.057  0.5035  0.2873 -0.3464
23827SOL    HW175269   3.574   9.753   7.112  2.5337  0.9945 -1.4880
23827SOL    HW275270   3.479   9.678   7.020  0.0879  1.2844  0.7082
23828SOL     OW75271  10.043   0.472   7.553  0.6343 -0.0784 -0.0435
23828SOL    HW175272  10.097   0.463   7.632  0.5882 -2.2300 -0.1863
23828SOL    HW275273   9.994   0.553   7.566  2.3561  0.8480  1.0363
23829SOL     OW75274   9.365   8.459   9.239 -0.2131  0.5086  0.4026
23829SOL    HW175275   9.299   8.486   9.175  0.5031  0.8031 -0.2360
23829SOL    HW275276   9.358   8.364   9.241 -1.8305  0.6194  1.6500
23830SOL     OW75277   8.103   9.251   8.714 -0.5798 -0.1715 -0.0933
23830SOL    HW175278   8.016   9.292   8.714 -0.8411 -0.6964  0.8791
23830SOL    HW275279   8.141   9.276   8.630 -0.7326  2.0409  0.4401
23831SOL     OW75280   0.516   4.273   9.386 -0.6051  0.0681 -0.1653
23831SOL    HW175281   0.585   4.218   9.424 -0.8265  1.8274  3.0916
23831SOL    HW275282   0.562   4.335   9.331 -0.1175 -1.5873 -1.7298
23832SOL     OW75283  10.039   9.820   7.822  0.1150  0.3386 -0.5183
23832SOL    HW175284  10.063   9.731   7.847 -0.5997  0.6464  1.3751
23832SOL    HW275285  10.111   9.874   7.854  0.5019  0.4747 -1.5818
23833SOL     OW75286   9.515   1.466   8.622 -0.1703  0.3013  0.7977
23833SOL    HW175287   9.601   1.490   8.587 -0.1551  0.1800  0.7514
23833SOL    HW275288   9.534   1.405   8.693 -0.2422 -0.1213  0.4541
23834SOL     OW75289   5.219   6.652   3.770  0.1279 -0.0949 -0.0476
23834SOL    HW175290   5.270   6.700   3.835 -0.8563 -0.8273  1.3119
23834SOL    HW275291   5.227   6.704   3.690  0.5589  1.3771  0.9069
23835SOL     OW75292   3.322   2.503   0.206 -0.2711  0.4913 -0.6555
23835SOL    HW175293   3.379   2.444   0.255 -0.2921  0.3614 -0.7878
23835SOL    HW275294   3.349   2.492   0.115  0.6838  1.7232 -0.5392
23836SOL     OW75295   0.900   3.476   5.986  0.2612  0.1919 -0.1287
23836SOL    HW175296   0.819   3.509   5.949  0.8125  0.2650 -1.3202
23836SOL    HW275297   0.924   3.403   5.930  0.7341 -0.1740  0.5409
23837SOL     OW75298   3.095   1.893   1.691  0.5515  0.6357  0.2293
23837SOL    HW175299   3.073   1.985   1.678  1.1869  0.4102 -3.6174
23837SOL    HW275300   3.052   1.848   1.618 -0.3132 -2.2752  2.3615
23838SOL     OW75301   6.016   7.194   2.446 -0.4124 -0.1072  0.1919
23838SOL    HW175302   5.958   7.245   2.502 -0.8300 -1.7118  1.2992
23838SOL    HW275303   6.025   7.110   2.491 -0.3985 -1.3146 -1.9178
23839SOL     OW75304   5.243   6.754   8.223 -0.2325 -0.1768  0.0468
23839SOL    HW175305   5.314   6.801   8.180 -0.8726 -0.2696 -1.1460
23839SOL    HW275306   5.286   6.702   8.291  0.7314  0.4099 -0.0947
23840SOL     OW75307   1.328   6.428   4.225 -0.0574  0.7504  0.0575
23840SOL    HW175308   1.385   6.494   4.264 -1.3398  1.4598  0.8292
23840SOL    HW275309   1.387   6.361   4.191  1.1917  1.2452  1.1860
23841SOL     OW75310   3.046   8.449   9.202  0.6656 -0.5766  0.3767
23841SOL    HW175311   3.093   8.386   9.256  0.4741 -1.0145  0.0475
23841SOL    HW275312   2.966   8.402   9.176 -0.0462  0.2112  1.0750
23842SOL     OW75313   1.719  10.069   0.290  0.6217  0.3471  0.2976
23842SOL    HW175314   1.786  10.104   0.230  0.5185  0.2315  0.1141
23842SOL    HW275315   1.636  10.089   0.247  0.5864 -1.4658 -0.5582
23843SOL     OW75316   6.240   5.290   4.425 -0.1004 -0.1282 -0.0138
23843SOL    HW175317   6.311   5.351   4.407 -0.3945  0.1415 -0.2655
23843SOL    HW275318   6.166   5.323   4.374 -0.1445 -0.9207 -0.4725
23844SOL     OW75319   0.309   0.592   4.975  0.2182  0.1783  0.0638
23844SOL    HW175320   0.389   0.642   4.991  0.0722  0.6803 -0.7903
23844SOL    HW275321   0.238   0.654   4.987 -0.1138 -0.4189  1.4949
23845SOL     OW75322   8.399   1.992   6.012 -0.0710 -0.4198  0.3163
23845SOL    HW175323   8.441   2.019   5.930 -1.6635  0.3425 -0.2891
23845SOL    HW275324   8.393   2.073   6.063  1.4140 -0.9850  1.4762
23846SOL     OW75325   2.088   7.172   1.397  0.3367  0.0484 -0.4523
23846SOL    HW175326   2.135   7.121   1.463  0.3301 -0.5206 -0.8697
23846SOL    HW275327   2.001   7.186   1.434  0.5757  0.3960 -0.0191
23847SOL     OW75328   8.760  10.221   4.503  0.2964  0.6917  0.2639
23847SOL    HW175329   8.759  10.315   4.518 -2.8676  0.5446  1.8996
23847SOL    HW275330   8.698  10.185   4.567  0.6929 -2.4058 -0.8734
23848SOL     OW75331   6.216   3.250   4.697 -0.3467  0.0641  0.2228
23848SOL    HW175332   6.155   3.195   4.747 -0.6579  0.8260  0.7004
23848SOL    HW275333   6.289   3.264   4.757  0.3705 -0.9545 -0.3975
23849SOL     OW75334   2.461   2.740   6.439 -0.0897  0.1873 -0.1863
23849SOL    HW175335   2.384   2.737   6.382  1.0232 -3.0306 -1.7499
23849SOL    HW275336   2.493   2.650   6.440  4.1008  1.4910 -0.1796
23850SOL     OW75337   7.450   1.927   0.963  0.2462  0.4049 -0.0174
23850SOL    HW175338   7.361   1.961   0.959  0.0278 -0.1803 -0.2771
23850SOL    HW275339   7.439   1.833   0.977  0.8302  0.3837  0.3348
23851SOL     OW75340   7.576   1.211   8.271 -0.1657 -0.2251  0.1748
23851SOL    HW175341   7.541   1.243   8.354 -0.8982 -0.3001 -0.0973
23851SOL    HW275342   7.671   1.214   8.283 -0.1207  3.0636 -0.2203
23852SOL     OW75343   5.486   2.341   4.595  0.3377  0.3144  0.8739
23852SOL    HW175344   5.402   2.387   4.586  0.6597  0.9893  1.3090
23852SOL    HW275345   5.515   2.359   4.684  2.6780  3.0849 -0.2975
23853SOL     OW75346   9.682   7.530   5.558  0.0793 -0.2737 -0.0888
23853SOL    HW175347   9.762   7.480   5.577 -0.0504 -0.2705  0.4621
23853SOL    HW275348   9.611   7.474   5.588 -0.0279  0.6961  1.5724
23854SOL     OW75349   0.238   0.981   1.079  0.1555 -0.4280 -0.5092
23854SOL    HW175350   0.237   1.042   1.153 -2.0093  0.3760 -1.1269
23854SOL    HW275351   0.261   1.036   1.004  2.0639 -1.1876 -0.5469
23855SOL     OW75352   8.573   8.330   8.508 -0.3531  0.2038 -0.8462
23855SOL    HW175353   8.517   8.385   8.563  2.3062  0.1828  2.1472
23855SOL    HW275354   8.588   8.251   8.560  3.5299  0.8033 -0.7838
23856SOL     OW75355   9.819   4.144   0.664 -0.3479  0.4837 -0.0205
23856SOL    HW175356   9.809   4.082   0.737 -1.1233 -0.2949 -0.7671
23856SOL    HW275357   9.786   4.227   0.699 -2.2674 -0.2504  0.0425
23857SOL     OW75358   1.823   8.231   3.458  0.6377 -0.2448 -0.3791
23857SOL    HW175359   1.797   8.215   3.549 -3.0347 -0.1659 -1.2512
23857SOL    HW275360   1.830   8.143   3.419 -0.4374 -0.2515 -0.5968
23858SOL     OW75361   4.648   1.408   4.406  0.0559 -0.2431 -0.7822
23858SOL    HW175362   4.572   1.414   4.348 -0.8789  0.2532  0.4697
23858SOL    HW275363   4.645   1.487   4.459 -0.7817 -1.9751  1.9433
23859SOL     OW75364   8.750  10.353   3.644 -0.1281  0.0214  0.3099
23859SOL    HW175365   8.841  10.368   3.670  0.5318 -2.8014  0.0028
23859SOL    HW275366   8.711  10.310   3.720  0.0167 -2.4530 -0.8970
23860SOL     OW75367   3.690   4.434   9.531 -0.3266 -0.4994 -0.1504
23860SOL    HW175368   3.608   4.465   9.568  0.1335  1.0367 -0.3526
23860SOL    HW275369   3.729   4.511   9.489  0.4354 -1.5678 -1.5162
23861SOL     OW75370   6.599   3.673   3.365  0.1827 -0.5584  0.4783
23861SOL    HW175371   6.565   3.702   3.450  0.4572  0.0902  0.3640
23861SOL    HW275372   6.543   3.715   3.301 -0.7851 -1.9763  0.3338
23862SOL     OW75373   8.093  10.355   5.049  0.0838  0.1362 -0.2078
23862SOL    HW175374   8.005  10.321   5.035  0.3078 -0.3265 -0.5374
23862SOL    HW275375   8.113  10.334   5.140 -0.4114  0.8849  0.0885
23863SOL     OW75376   0.053  10.323   7.048 -0.0055  0.3423  0.2042
23863SOL    HW175377   0.113  10.398   7.050 -0.7443  0.9813 -0.6391
23863SOL    HW275378   0.040  10.306   6.955  1.4335 -1.9331  0.3342
23864SOL     OW75379   8.692   9.295   0.008 -0.5608 -0.5960 -0.0958
23864SOL    HW175380   8.688   9.236   0.083 -0.3486 -0.3350  0.1248
23864SOL    HW275381   8.778   9.279  -0.031  0.5508  1.2909  1.4133
23865SOL     OW75382   9.361   2.368   0.595  0.2639 -0.0264 -0.0545
23865SOL    HW175383   9.273   2.381   0.560  0.6652  0.2990 -0.9960
23865SOL    HW275384   9.418   2.408   0.530  1.1665 -1.0247  0.0933
23866SOL     OW75385   9.330   5.558   2.069  0.4068 -0.0462 -0.0534
23866SOL    HW175386   9.304   5.467   2.084  0.4952 -0.1868 -0.7263
23866SOL    HW275387   9.367   5.586   2.152  0.4032 -0.6349  0.1547
23867SOL     OW75388   6.935   6.450   9.995 -0.2816  0.0727 -0.7142
23867SOL    HW175389   7.025   6.420   9.986 -0.4287 -0.4639 -0.3823
23867SOL    HW275390   6.940   6.544   9.977  0.4162  0.1368 -0.2136
23868SOL     OW75391   9.821   4.496   1.864 -0.0555 -0.3319  0.0170
23868SOL    HW175392   9.806   4.581   1.906 -2.1755 -0.6977  0.1058
23868SOL    HW275393   9.790   4.508   1.774  0.7233 -0.6903 -0.3043
23869SOL     OW75394   1.354   6.464   0.193  0.4023 -0.3721  0.2668
23869SOL    HW175395   1.351   6.528   0.264  1.5980 -1.4186  1.3167
23869SOL    HW275396   1.262   6.450   0.169 -0.1998 -1.0424  2.6245
23870SOL     OW75397   5.349   5.362  10.115 -0.4338 -0.3718 -0.2271
23870SOL    HW175398   5.345   5.452  10.146 -1.7079 -0.2498 -0.6943
23870SOL    HW275399   5.385   5.368  10.026 -0.8214 -0.2867 -0.3791
23871SOL     OW75400   7.065   4.362   5.339 -0.4554 -0.3344 -0.3620
23871SOL    HW175401   6.978   4.329   5.317 -0.3580 -0.0519 -1.2492
23871SOL    HW275402   7.107   4.374   5.254  0.3225 -0.1244  0.0458
23872SOL     OW75403   2.743   1.837   3.954 -0.0591 -0.4621 -0.4151
23872SOL    HW175404   2.837   1.857   3.944  0.0449 -0.7493 -0.0114
23872SOL    HW275405   2.700   1.898   3.894  0.3543  0.0183 -0.2344
23873SOL     OW75406  10.021   4.061   8.216 -0.3647 -0.0043  0.6600
23873SOL    HW175407  10.067   4.008   8.151 -1.6740 -0.7231  0.2674
23873SOL    HW275408   9.998   4.142   8.171  0.0363  0.1262  0.6909
23874SOL     OW75409   5.170   0.896   6.866 -0.2903  0.2309  0.3792
23874SOL    HW175410   5.168   0.862   6.777 -0.1865 -0.7630  0.7370
23874SOL    HW275411   5.090   0.861   6.906 -0.3606  0.7106  0.6600
23875SOL     OW75412   7.972   6.772   7.395  0.7542  0.4344  0.2104
23875SOL    HW175413   8.006   6.725   7.319  1.7603 -0.8075  1.3807
23875SOL    HW275414   8.041   6.836   7.415  1.5912 -0.7867  1.4175
23876SOL     OW75415   6.213   5.870   3.312  0.2143  0.4795  0.3483
23876SOL    HW175416   6.119   5.878   3.328 -0.4350 -2.8584 -0.9004
23876SOL    HW275417   6.241   5.959   3.291 -3.6527  1.1472 -3.7608
23877SOL     OW75418   8.377   1.837  10.247  0.3285 -0.6775 -0.1311
23877SOL    HW175419   8.328   1.770  10.198  1.3933 -1.4154 -0.2077
23877SOL    HW275420   8.352   1.920  10.205 -1.5692 -0.9159  0.4266
23878SOL     OW75421   1.962   0.716   3.561  0.0547 -0.4523 -0.3039
23878SOL    HW175422   2.021   0.675   3.498 -1.1957 -0.6855 -1.3718
23878SOL    HW275423   1.875   0.683   3.537 -0.7558  1.3387  0.0230
23879SOL     OW75424   4.982   9.643   2.725  0.3057 -0.4631  0.1763
23879SOL    HW175425   5.053   9.641   2.788  0.6370  0.2796 -0.1736
23879SOL    HW275426   4.986   9.557   2.682  0.9099 -0.4643  0.2345
23880SOL     OW75427   0.444   4.269   2.056 -0.1999  0.0415 -0.5417
23880SOL    HW175428   0.425   4.177   2.038 -2.6404  0.2482  0.4882
23880SOL    HW275429   0.443   4.311   1.971 -0.8270 -0.6311 -0.8812
23881SOL     OW75430   4.262   4.139   2.562 -0.1953 -0.4447  0.4300
23881SOL    HW175431   4.284   4.181   2.645  2.2523 -1.0809  0.1867
23881SOL    HW275432   4.334   4.163   2.504 -1.9217  0.0943 -1.5872
23882SOL     OW75433   9.975   5.909   7.923 -0.0274 -0.1121  0.2080
23882SOL    HW175434   9.883   5.881   7.920 -0.5918  1.6201 -2.6139
23882SOL    HW275435   9.978   5.973   7.994 -0.5765 -1.3390  1.3873
23883SOL     OW75436   3.796   4.423   1.794 -0.3659 -0.0773 -0.5137
23883SOL    HW175437   3.885   4.443   1.823  0.0241 -0.5005 -1.3651
23883SOL    HW275438   3.745   4.416   1.874  0.6662 -1.2305  0.0785
23884SOL     OW75439   4.400   4.430   9.518  0.1572 -0.0729 -0.7993
23884SOL    HW175440   4.415   4.342   9.551  0.5197  0.5428  0.7848
23884SOL    HW275441   4.315   4.426   9.473 -1.2529 -0.5949  1.7448
23885SOL     OW75442   4.263   9.231   6.917 -0.3172  0.8438  0.8560
23885SOL    HW175443   4.211   9.298   6.874 -0.0879  1.4018  1.4413
23885SOL    HW275444   4.199   9.165   6.946 -0.6384  1.2557  1.0862
23886SOL     OW75445   0.989  10.250   7.076  0.8431  0.1801 -0.2006
23886SOL    HW175446   0.921  10.187   7.099  0.8513 -0.2074 -1.1940
23886SOL    HW275447   1.071  10.209   7.104  0.7041  0.5705  0.8346
23887SOL     OW75448  10.352   8.316   2.381  0.7383 -0.6705 -0.2770
23887SOL    HW175449  10.383   8.246   2.323  1.5721 -0.0743 -0.5662
23887SOL    HW275450  10.408   8.310   2.458  0.2929 -0.8195  0.0353
23888SOL     OW75451   2.654   2.204   2.259 -0.8952 -0.0210 -0.7889
23888SOL    HW175452   2.668   2.219   2.165 -1.8430 -2.0693 -1.3286
23888SOL    HW275453   2.721   2.140   2.282  0.2777  1.5521  0.3349
23889SOL     OW75454   6.955   6.619   4.830  0.2075 -0.3423 -0.3086
23889SOL    HW175455   6.901   6.541   4.843  2.3293 -2.2552 -2.0780
23889SOL    HW275456   6.972   6.652   4.918 -0.8725 -1.7894  0.4862
23890SOL     OW75457   4.728   6.895   8.980  0.0730  0.1278  0.1679
23890SOL    HW175458   4.686   6.967   9.026 -1.2230 -1.2485  1.2492
23890SOL    HW275459   4.817   6.926   8.963 -0.2528  1.7331  1.1365
23891SOL     OW75460  10.276   7.147   5.040 -0.0744  0.2874  0.1633
23891SOL    HW175461  10.203   7.169   4.982 -0.9905 -1.8889  0.3943
23891SOL    HW275462  10.234   7.124   5.123  0.6446 -2.7371 -0.2044
23892SOL     OW75463   3.043   5.257   6.753 -0.0103 -0.4473  0.1784
23892SOL    HW175464   2.956   5.276   6.788  0.3077  0.0635  0.7159
23892SOL    HW275465   3.081   5.343   6.735  0.3757 -0.6680 -0.0743
23893SOL     OW75466   3.677   5.186   3.593 -0.3894 -0.3843 -0.2064
23893SOL    HW175467   3.701   5.239   3.668  1.3363 -0.1749 -0.8669
23893SOL    HW275468   3.706   5.097   3.615 -2.6439 -0.9813  0.6072
23894SOL     OW75469   4.380   1.110   9.494 -0.1830 -0.5766 -0.1737
23894SOL    HW175470   4.377   1.089   9.401  1.2254  1.3907 -0.7106
23894SOL    HW275471   4.296   1.079   9.528 -0.6803 -1.4333 -2.0497
23895SOL     OW75472   1.898   0.267   9.304  0.0136 -0.2785 -0.2053
23895SOL    HW175473   1.952   0.194   9.275  0.9781  0.0756  0.6578
23895SOL    HW275474   1.918   0.338   9.242  1.3171  0.1642  0.6980
23896SOL     OW75475   8.535   4.067   0.714  0.1367 -0.1924  0.2776
23896SOL    HW175476   8.486   4.138   0.756  0.0650 -1.4344  2.4371
23896SOL    HW275477   8.618   4.063   0.762  0.9397 -0.3771 -1.0680
23897SOL     OW75478   7.712   6.258   9.854  0.3168  0.6233  0.2399
23897SOL    HW175479   7.729   6.347   9.884 -0.7478  1.4036 -1.3399
23897SOL    HW275480   7.649   6.268   9.783  1.1602 -1.2806 -0.8566
23898SOL     OW75481   0.272   4.789  10.251  0.6085 -0.0104  0.1261
23898SOL    HW175482   0.230   4.848  10.188 -2.0888 -2.2767 -0.3942
23898SOL    HW275483   0.340   4.745  10.201  1.1669  1.0319 -0.0635
23899SOL     OW75484   6.776   8.501   0.542 -0.1487 -0.2514 -0.6590
23899SOL    HW175485   6.872   8.507   0.544 -0.0099 -2.1148  0.3711
23899SOL    HW275486   6.754   8.493   0.449  0.3843  3.1826 -1.2233
23900SOL     OW75487   8.514   9.729   0.454  0.7276 -0.1952  0.4356
23900SOL    HW175488   8.575   9.664   0.491  1.1520  0.6054  1.1876
23900SOL    HW275489   8.435   9.720   0.508  0.3643 -0.8383 -0.1760
23901SOL     OW75490   5.495   1.283   8.088 -0.2838 -0.4082 -0.2450
23901SOL    HW175491   5.513   1.201   8.041 -1.0772 -0.4636 -0.4793
23901SOL    HW275492   5.543   1.275   8.170 -1.1095 -1.5428  0.1547
23902SOL     OW75493   6.436   5.329   8.008  0.8766  0.1328  0.2454
23902SOL    HW175494   6.429   5.276   7.929  1.4442  0.3902  0.0139
23902SOL    HW275495   6.390   5.279   8.075 -1.4174  0.8639 -0.6935
23903SOL     OW75496   5.540   8.023   6.545 -1.1477 -0.1335 -0.5640
23903SOL    HW175497   5.506   8.028   6.634  1.9403  0.1517  0.7258
23903SOL    HW275498   5.548   7.929   6.528  2.2996 -0.3892  1.3584
23904SOL     OW75499   1.070   2.394   0.971  0.3267  0.0451 -0.2151
23904SOL    HW175500   1.048   2.467   0.913  0.2220  0.8899  0.8606
23904SOL    HW275501   1.034   2.419   1.056 -2.1773 -2.4725 -0.3619
23905SOL     OW75502   8.950   9.085   0.836 -0.7925  0.0304 -0.4735
23905SOL    HW175503   8.861   9.052   0.845 -1.0909  0.7638 -0.6226
23905SOL    HW275504   8.939   9.180   0.822  0.1048  0.5142  1.6899
23906SOL     OW75505   6.210   3.213   2.040  0.3500  0.0188 -0.3249
23906SOL    HW175506   6.198   3.218   2.135  1.4676  0.5876 -0.1972
23906SOL    HW275507   6.229   3.121   2.023  0.5864 -0.0041  0.0627
23907SOL     OW75508   9.472   6.800   0.253  0.9614 -0.2574 -0.7633
23907SOL    HW175509   9.468   6.799   0.158  2.6662 -0.6434 -0.8582
23907SOL    HW275510   9.547   6.857   0.273  0.7344 -0.3252  0.3417
23908SOL     OW75511   5.754   1.396   4.403  0.3972 -0.3938 -1.3170
23908SOL    HW175512   5.673   1.445   4.383  0.4233  0.8488  1.1849
23908SOL    HW275513   5.824   1.460   4.389  0.8295 -0.9900 -1.9320
23909SOL     OW75514   3.656   0.283   7.728  0.3058  0.2126  0.1625
23909SOL    HW175515   3.623   0.344   7.663  0.5338 -1.6678 -1.8522
23909SOL    HW275516   3.717   0.227   7.679  0.8503 -1.0038  2.1176
23910SOL     OW75517   3.274   2.391   3.164  0.4826  0.0579 -0.0232
23910SOL    HW175518   3.235   2.457   3.223  0.5988 -0.6160  0.8254
23910SOL    HW275519   3.208   2.322   3.160  0.3523  0.2245 -0.9347
23911SOL     OW75520   8.053   5.759   5.120 -0.0022  0.5690 -0.4394
23911SOL    HW175521   8.008   5.835   5.085 -1.0406 -0.0593 -0.5106
23911SOL    HW275522   8.080   5.785   5.208 -0.5155  0.9554 -0.3952
23912SOL     OW75523   7.830   3.364   3.604  0.1995 -0.5311 -0.2117
23912SOL    HW175524   7.877   3.281   3.600  0.5620 -0.2885 -1.1434
23912SOL    HW275525   7.885   3.426   3.557 -0.7197 -0.0887 -0.7438
23913SOL     OW75526   4.618   9.483   9.030 -0.3080 -0.5104 -0.1249
23913SOL    HW175527   4.585   9.395   9.045 -1.2028 -0.0635  0.6249
23913SOL    HW275528   4.613   9.526   9.116  0.9089  0.0217 -0.2904
23914SOL     OW75529   6.736   3.561   7.830  0.0545  0.2963  0.2005
23914SOL    HW175530   6.675   3.495   7.863 -1.6445  1.5609 -0.3025
23914SOL    HW275531   6.733   3.632   7.895  0.8979  0.4424  0.0943
23915SOL     OW75532   6.551   4.092   0.455 -0.6630 -0.1957 -0.2119
23915SOL    HW175533   6.642   4.122   0.453 -0.5386 -0.3699  1.3334
23915SOL    HW275534   6.549   4.017   0.396  0.3857 -0.6373  0.2803
23916SOL     OW75535   9.874   0.326   4.909 -0.2059 -0.3184 -0.0411
23916SOL    HW175536   9.845   0.360   4.994  2.5519  0.9928  0.4683
23916SOL    HW275537   9.941   0.387   4.880  0.1515 -1.6948 -2.3884
23917SOL     OW75538   4.729   7.827   8.967 -0.0565  0.3199  1.0192
23917SOL    HW175539   4.796   7.805   8.903  0.1543 -1.3446  1.7717
23917SOL    HW275540   4.776   7.840   9.049 -0.6108 -0.9764  1.5808
23918SOL     OW75541   9.349   4.375   9.482 -0.1211 -0.1847 -0.0788
23918SOL    HW175542   9.273   4.376   9.424  0.0682  1.9209 -0.3796
23918SOL    HW275543   9.312   4.380   9.570 -0.3646  0.2874 -0.2025
23919SOL     OW75544   1.429   4.218   3.798  0.1091  0.1726  0.4055
23919SOL    HW175545   1.339   4.188   3.810  0.0593  0.4078  0.6365
23919SOL    HW275546   1.474   4.145   3.756 -0.8513  1.0202 -2.3205
23920SOL     OW75547   9.693   0.912   1.161 -0.1463 -0.1484 -0.2823
23920SOL    HW175548   9.664   0.856   1.089  0.2735 -1.4092  0.5013
23920SOL    HW275549   9.712   0.852   1.233  0.6460  0.9684  0.4849
23921SOL     OW75550   8.175   4.505   2.650 -0.2007  0.2317 -0.1089
23921SOL    HW175551   8.265   4.473   2.651  0.3002  1.6048  0.9220
23921SOL    HW275552   8.130   4.448   2.587  1.2587 -0.7808 -0.2730
23922SOL     OW75553   8.284   8.173   4.696 -0.0468  0.2503 -0.1729
23922SOL    HW175554   8.363   8.227   4.701 -0.1400  0.3196  0.8197
23922SOL    HW275555   8.258   8.176   4.604  0.5230  1.0685 -0.3134
23923SOL     OW75556   5.898   5.570   7.180 -0.3365  0.3756 -0.3318
23923SOL    HW175557   5.944   5.600   7.102  1.8301 -0.1723  0.6629
23923SOL    HW275558   5.938   5.485   7.200 -1.8584 -0.1648  0.5503
23924SOL     OW75559   2.972   5.285   2.109 -0.4145  0.6310  0.3942
23924SOL    HW175560   2.888   5.250   2.081 -0.3212 -0.7038  1.6805
23924SOL    HW275561   2.951   5.346   2.180 -0.2575 -0.3708  1.3199
23925SOL     OW75562   6.199   1.791   1.884  0.1122  0.5335  0.1278
23925SOL    HW175563   6.191   1.880   1.848 -1.4112  0.4915  0.2730
23925SOL    HW275564   6.199   1.805   1.979  1.0528  0.4461  0.1447
23926SOL     OW75565   6.427   0.948   2.059 -0.1055  0.5106  0.1413
23926SOL    HW175566   6.433   0.912   2.148 -0.2977 -1.3386 -0.5698
23926SOL    HW275567   6.380   1.031   2.071  1.9221  1.4711  2.0457
23927SOL     OW75568  10.201   0.499   2.651  0.0508  0.2993 -0.1834
23927SOL    HW175569  10.182   0.492   2.744  0.7033 -0.5597 -0.0922
23927SOL    HW275570  10.237   0.413   2.628 -1.2832  0.0513 -1.5104
23928SOL     OW75571   0.393   1.193   0.561  0.4463 -0.4865  0.3128
23928SOL    HW175572   0.383   1.104   0.526 -0.7621 -0.1997 -0.1632
23928SOL    HW275573   0.303   1.219   0.583  0.5927  1.0945 -0.8086
23929SOL     OW75574   7.666   7.435   9.695 -0.1613 -0.1296  0.1171
23929SOL    HW175575   7.706   7.349   9.683  0.4591 -0.0025  1.1473
23929SOL    HW275576   7.734   7.487   9.737 -1.0619  0.4099  0.9339
23930SOL     OW75577   3.645   6.855   7.509  0.0646 -0.5037  0.8021
23930SOL    HW175578   3.655   6.885   7.599 -1.7593  0.3540  0.7702
23930SOL    HW275579   3.613   6.765   7.517  1.3073 -0.9475  0.9648
23931SOL     OW75580   2.827   6.552   1.540 -0.0448  0.0441 -0.4795
23931SOL    HW175581   2.816   6.637   1.583  0.0188 -0.0628 -0.2529
23931SOL    HW275582   2.910   6.560   1.494  0.9019 -0.5475  1.0771
23932SOL     OW75583   9.202   1.015   4.090 -0.0375  0.7497 -0.5793
23932SOL    HW175584   9.143   1.028   4.165  0.3230  2.6773 -0.5734
23932SOL    HW275585   9.146   0.980   4.021 -1.2484  2.5995 -0.5988
23933SOL     OW75586   0.373   4.647   8.320  0.1434 -0.1059 -0.2553
23933SOL    HW175587   0.444   4.620   8.379 -0.5485  1.0448  1.1518
23933SOL    HW275588   0.312   4.573   8.321 -0.5520  0.4194  1.6509
23934SOL     OW75589   1.300   9.097   9.597 -0.8254  0.2959  0.2376
23934SOL    HW175590   1.211   9.128   9.581 -0.2853  0.6880 -2.6218
23934SOL    HW275591   1.292   9.002   9.605 -1.6053  0.4325  1.3996
23935SOL     OW75592   3.284   1.981   5.014 -0.1815 -0.0810 -0.1776
23935SOL    HW175593   3.354   1.966   4.951 -0.8710  0.2911 -1.0423
23935SOL    HW275594   3.207   2.000   4.961 -1.3529 -2.0830  0.7177
23936SOL     OW75595   1.493   2.849   6.117 -0.0256  0.0687 -0.6169
23936SOL    HW175596   1.550   2.774   6.134  1.0810  0.5730 -1.9010
23936SOL    HW275597   1.435   2.819   6.046  0.9601  0.6502 -1.7036
23937SOL     OW75598   9.412   5.962   3.300 -0.4288 -0.3681 -0.1936
23937SOL    HW175599   9.454   5.877   3.310  0.9729  0.1596 -1.1236
23937SOL    HW275600   9.486   6.023   3.290 -1.4165  0.7501 -0.9212
23938SOL     OW75601  10.239   2.885   6.382  0.2973 -0.2308  0.1143
23938SOL    HW175602  10.245   2.900   6.288  0.5514 -1.7067 -0.1231
23938SOL    HW275603  10.164   2.938   6.410  1.0705  1.3101 -0.6607
23939SOL     OW75604   5.964   6.715   8.964 -0.0569  0.3250  0.1527
23939SOL    HW175605   6.003   6.654   9.026  0.2770  1.3470  0.9742
23939SOL    HW275606   5.963   6.667   8.881  1.5023 -0.2873  0.4527
23940SOL     OW75607   5.301   1.703   8.945  0.5705 -0.0737  0.4022
23940SOL    HW175608   5.293   1.743   8.859 -1.6449 -0.7508  0.2232
23940SOL    HW275609   5.249   1.623   8.939  1.7194 -0.9771  1.8971
23941SOL     OW75610   2.577   0.194   0.844  0.2946 -0.1067 -0.0501
23941SOL    HW175611   2.584   0.214   0.937 -0.4852 -0.4149  0.0749
23941SOL    HW275612   2.665   0.212   0.810  0.7469 -0.5216  0.8450
23942SOL     OW75613   0.850   5.872   3.453  0.2964  0.2262  0.0861
23942SOL    HW175614   0.761   5.860   3.487  0.6942  1.8221  1.8975
23942SOL    HW275615   0.857   5.965   3.435  1.8276  0.2745  0.7310
23943SOL     OW75616  10.264   1.816   0.819  0.0480  0.1410 -0.3420
23943SOL    HW175617  10.202   1.796   0.890 -0.3849  0.5666 -0.5956
23943SOL    HW275618  10.261   1.740   0.762 -2.9256  1.5101 -2.2606
23944SOL     OW75619   2.659   1.190   6.949  0.3420  0.0939 -0.3540
23944SOL    HW175620   2.731   1.170   6.889  0.2210 -0.7926 -0.2117
23944SOL    HW275621   2.699   1.246   7.016  0.7471  0.1300 -0.6207
23945SOL     OW75622   2.637   4.140   6.804 -0.4982  0.5784 -0.1726
23945SOL    HW175623   2.551   4.169   6.772 -0.2290  1.2344 -0.3242
23945SOL    HW275624   2.700   4.195   6.756 -0.0443  0.9561  0.8266
23946SOL     OW75625   0.156  10.357   9.090 -0.5630 -0.5132 -0.6232
23946SOL    HW175626   0.194  10.387   9.007  0.0644 -1.6739 -0.7877
23946SOL    HW275627   0.231  10.323   9.140 -1.1517 -1.3877 -0.2910
23947SOL     OW75628   3.178   6.707   6.363  0.1616  0.5048  0.6510
23947SOL    HW175629   3.221   6.692   6.279 -0.4932  0.8730  0.2452
23947SOL    HW275630   3.088   6.680   6.349  0.4871 -1.4029  1.8465
23948SOL     OW75631   4.610   6.683   4.492 -0.1329  0.3412 -0.4234
23948SOL    HW175632   4.531   6.730   4.517 -0.3071  0.7167 -1.5735
23948SOL    HW275633   4.585   6.591   4.492 -0.5291  0.4458 -0.6114
23949SOL     OW75634   3.774   4.260   5.366 -0.2396 -0.2768  0.4273
23949SOL    HW175635   3.752   4.184   5.420  1.6632 -0.9354  0.3438
23949SOL    HW275636   3.849   4.232   5.313  0.8943  1.8080  0.8000
23950SOL     OW75637   6.137   6.519   0.578  0.2480  0.3505  0.4310
23950SOL    HW175638   6.082   6.585   0.620  2.9278  0.5174  4.2072
23950SOL    HW275639   6.177   6.565   0.504 -3.0604  0.7470 -1.2572
23951SOL     OW75640   1.482   5.090   8.984  0.4002  0.3927  0.5487
23951SOL    HW175641   1.403   5.051   9.021  0.2108  0.0579 -0.1944
23951SOL    HW275642   1.548   5.079   9.051 -0.0996  0.3750  1.0443
23952SOL     OW75643   4.628   1.580   1.600  0.0344 -0.1356 -0.5337
23952SOL    HW175644   4.535   1.591   1.581 -0.0266  0.1280 -0.0934
23952SOL    HW275645   4.652   1.500   1.553 -0.4832 -0.3777 -0.3960
23953SOL     OW75646   7.492   8.031   0.342  0.3325  0.2935 -0.3105
23953SOL    HW175647   7.471   8.124   0.342  2.2378  0.7737  0.3533
23953SOL    HW275648   7.492   8.006   0.250  0.6847  1.1909 -0.5615
23954SOL     OW75649   5.669   7.210   9.319  0.1289 -0.2765 -0.2843
23954SOL    HW175650   5.654   7.157   9.241  1.8713 -0.9176 -0.2171
23954SOL    HW275651   5.672   7.146   9.391  0.0277  0.1497  0.1010
23955SOL     OW75652   3.925   4.670   7.552  0.7380  0.7670  0.3785
23955SOL    HW175653   3.873   4.590   7.548 -0.1820  1.2783  1.5012
23955SOL    HW275654   4.016   4.640   7.558  0.3944 -0.1978  0.9492
23956SOL     OW75655   3.842   2.545   5.457 -0.1643  0.0346  0.2027
23956SOL    HW175656   3.812   2.458   5.482 -1.8196  0.9356  1.5941
23956SOL    HW275657   3.763   2.588   5.424  0.4111  1.3278  0.4691
23957SOL     OW75658   8.664   0.234   3.538 -0.1466 -0.1896  0.2600
23957SOL    HW175659   8.696   0.304   3.595 -0.4605 -0.1426  0.3791
23957SOL    HW275660   8.704   0.154   3.574  1.6168  0.1074 -0.9132
23958SOL     OW75661   2.387   5.354   5.810  0.4479  0.3599  0.0795
23958SOL    HW175662   2.380   5.364   5.715  0.6328 -0.9565 -0.0921
23958SOL    HW275663   2.441   5.428   5.839 -0.5648  1.4266 -0.6741
23959SOL     OW75664  10.042   8.034   2.878  0.4769  0.2548  0.0550
23959SOL    HW175665  10.038   7.973   2.951  1.3274  0.7853  0.5561
23959SOL    HW275666  10.131   8.069   2.881  0.6935 -0.0669 -1.5239
23960SOL     OW75667   8.718   4.751   8.300 -0.4527 -0.5243 -0.1181
23960SOL    HW175668   8.625   4.743   8.278  0.0116 -0.4428 -2.3730
23960SOL    HW275669   8.737   4.844   8.292 -0.0360 -0.6266 -0.3457
23961SOL     OW75670   5.427   7.715   3.666  0.1087  0.7584  0.3802
23961SOL    HW175671   5.335   7.740   3.660 -0.5223 -1.6070 -0.6768
23961SOL    HW275672   5.468   7.759   3.591 -0.7088 -0.2507 -0.6929
23962SOL     OW75673   2.579   8.820   9.775 -0.1639  0.0237 -0.6904
23962SOL    HW175674   2.552   8.859   9.859  0.9603 -0.1520 -0.2382
23962SOL    HW275675   2.525   8.866   9.710 -0.0628  1.1574 -0.0104
23963SOL     OW75676   2.757   4.616   2.408  0.2130  0.5036 -0.5308
23963SOL    HW175677   2.712   4.671   2.344 -0.6377 -0.4328 -0.7589
23963SOL    HW275678   2.689   4.560   2.444  1.0879 -0.5623 -0.4692
23964SOL     OW75679   1.420   5.480   5.192  0.0182 -0.4783 -0.0023
23964SOL    HW175680   1.366   5.540   5.244  3.3156  1.3124  1.6465
23964SOL    HW275681   1.480   5.536   5.144 -0.9458 -2.2754 -3.6364
23965SOL     OW75682   8.785   3.036   9.771  1.2165  0.1739 -0.7387
23965SOL    HW175683   8.725   2.967   9.798  0.6142  0.5748 -1.0209
23965SOL    HW275684   8.858   2.990   9.731  1.0589 -0.3210 -0.4628
23966SOL     OW75685   4.715   7.113   3.277  0.1618  0.2295 -0.2731
23966SOL    HW175686   4.646   7.047   3.286 -1.2821  1.3871 -2.1131
23966SOL    HW275687   4.704   7.171   3.352 -0.2906 -0.0989 -0.0843
23967SOL     OW75688   7.574   6.147  10.060  0.4552  0.0391 -0.1286
23967SOL    HW175689   7.630   6.155   9.983  0.9648  1.3686  0.3648
23967SOL    HW275690   7.633   6.162  10.134  0.4663 -3.3257  0.7237
23968SOL     OW75691   8.889   9.880   7.530 -0.7620  0.0570 -0.6572
23968SOL    HW175692   8.832   9.803   7.526 -0.0053 -0.6759  1.1972
23968SOL    HW275693   8.831   9.951   7.557 -0.8778 -0.6801  1.2123
23969SOL     OW75694   3.824   3.864   5.066  0.1577 -0.0023 -0.2052
23969SOL    HW175695   3.790   3.782   5.030 -0.3021  0.3575 -0.6042
23969SOL    HW275696   3.918   3.860   5.050  0.1122 -0.3658 -0.3991
23970SOL     OW75697  10.064   7.305   2.949  0.0319  0.0130  0.2895
23970SOL    HW175698  10.005   7.271   2.881 -0.0093 -0.4431  0.5521
23970SOL    HW275699  10.055   7.245   3.022  0.7032  0.0287  0.3963
23971SOL     OW75700   4.433   4.169   9.511  0.1253 -0.2821  0.2329
23971SOL    HW175701   4.411   4.087   9.466 -0.6682  0.5713 -0.9720
23971SOL    HW275702   4.523   4.156   9.542 -0.6902 -2.4267  2.0075
23972SOL     OW75703   4.738   1.033   4.697 -0.5428  0.0190  0.2354
23972SOL    HW175704   4.713   0.947   4.664 -1.6172  0.1478  0.6728
23972SOL    HW275705   4.818   1.017   4.746 -0.0712 -0.5227 -0.6848
23973SOL     OW75706   5.081   0.029   7.794 -0.0974 -0.4076  0.1091
23973SOL    HW175707   5.128   0.097   7.746  0.6283  0.3262  1.7773
23973SOL    HW275708   5.046   0.073   7.871 -2.4684 -1.2286 -0.4163
23974SOL     OW75709   1.383   3.429   1.225  0.4732 -0.8174  0.2585
23974SOL    HW175710   1.445   3.372   1.270  0.5363  0.4041  1.8050
23974SOL    HW275711   1.302   3.422   1.275 -0.1435 -1.0801 -0.7384
23975SOL     OW75712   5.627   2.269   7.228 -0.1030  0.4806  0.0391
23975SOL    HW175713   5.538   2.259   7.260  0.2299  2.3732  1.7201
23975SOL    HW275714   5.670   2.325   7.292  2.6091 -1.1928 -0.1685
23976SOL     OW75715   7.527   8.717   2.825  0.3274 -0.3037 -0.2579
23976SOL    HW175716   7.480   8.749   2.902  3.0354  1.5142  0.8209
23976SOL    HW275717   7.477   8.750   2.750 -0.3432  1.1957  0.8025
23977SOL     OW75718   1.892   2.328   8.991 -0.1266  0.2823  0.8638
23977SOL    HW175719   1.875   2.338   8.898  0.9166 -0.0166  0.6320
23977SOL    HW275720   1.924   2.413   9.020  0.6481  0.0532  0.6977
23978SOL     OW75721   2.257   7.186   3.413  0.2960 -0.2735 -0.4153
23978SOL    HW175722   2.335   7.137   3.385  0.7665 -0.9620  1.8852
23978SOL    HW275723   2.288   7.276   3.423  0.6700 -0.4301 -0.1085
23979SOL     OW75724   2.361  10.119   7.039  0.6149 -0.0156 -0.1631
23979SOL    HW175725   2.429  10.182   7.064  1.5319 -1.4766  1.1382
23979SOL    HW275726   2.334  10.079   7.121 -0.8689 -0.4358 -0.8363
23980SOL     OW75727   5.324   2.731   6.945  0.2857  0.6854 -0.1195
23980SOL    HW175728   5.266   2.741   7.021  0.1586 -1.0190  0.0492
23980SOL    HW275729   5.391   2.670   6.974 -0.1608 -0.5692 -1.5650
23981SOL     OW75730   2.220   8.006   3.393  0.0043 -0.2163  0.6311
23981SOL    HW175731   2.207   7.912   3.399  0.1159 -0.2164  0.8873
23981SOL    HW275732   2.292   8.024   3.453  1.7909 -0.3264 -1.3475
23982SOL     OW75733   0.454   4.765   1.434  0.3989  0.0552 -0.0743
23982SOL    HW175734   0.482   4.846   1.392  1.2590 -0.7964 -1.1942
23982SOL    HW275735   0.455   4.785   1.527  0.3228  1.4078 -0.3413
23983SOL     OW75736   5.159   8.426   9.738 -0.7785 -0.0106 -0.0999
23983SOL    HW175737   5.104   8.388   9.669 -2.9681  1.8140  0.5473
23983SOL    HW275738   5.177   8.352   9.797  1.0133 -1.5848 -2.3866
23984SOL     OW75739   1.000   8.425   8.081 -0.4516 -0.1526 -0.4683
23984SOL    HW175740   0.935   8.414   8.151 -0.8388 -0.6438 -0.9025
23984SOL    HW275741   0.964   8.377   8.007 -0.4068  1.0124 -1.2641
23985SOL     OW75742   9.738   8.845   8.322 -0.0343 -0.1024 -0.2751
23985SOL    HW175743   9.751   8.835   8.416  0.1504  0.7804 -0.1992
23985SOL    HW275744   9.813   8.800   8.283 -0.6151 -1.3137 -0.0438
23986SOL     OW75745   6.533   1.725   7.099  0.0637 -0.0742  0.2296
23986SOL    HW175746   6.571   1.777   7.170  1.9446 -0.1569 -0.6478
23986SOL    HW275747   6.536   1.783   7.023  1.7665 -1.2434 -0.6621
23987SOL     OW75748   0.937   8.406  10.316 -0.3278 -0.3829  0.2889
23987SOL    HW175749   0.980   8.456  10.385 -1.8268  1.2764  0.1023
23987SOL    HW275750   0.963   8.449  10.235 -0.2409 -1.0125 -0.0232
23988SOL     OW75751   1.477   4.672   9.110  0.1125 -0.3549 -0.3086
23988SOL    HW175752   1.532   4.604   9.071 -0.0160 -0.3651 -0.4697
23988SOL    HW275753   1.421   4.625   9.172 -0.3695 -0.4780 -0.8308
23989SOL     OW75754   7.328   2.731   3.758  0.4760  0.0565 -0.2596
23989SOL    HW175755   7.304   2.822   3.775 -2.4843 -0.6728  0.1221
23989SOL    HW275756   7.389   2.709   3.829  0.0966  1.3412  0.5047
23990SOL     OW75757   4.996   5.216   2.274  0.1252 -0.0785 -0.0099
23990SOL    HW175758   4.993   5.136   2.222 -0.3181 -0.4743  0.6090
23990SOL    HW275759   4.973   5.188   2.363 -4.9819  1.3846 -0.5725
23991SOL     OW75760   2.237   5.319   8.241  0.3069 -0.5582  0.2835
23991SOL    HW175761   2.199   5.233   8.229  0.3802 -0.6704  0.8279
23991SOL    HW275762   2.280   5.315   8.327 -0.4836  0.3045  0.7483
23992SOL     OW75763   6.068   5.479   5.943  0.7354  0.2070  0.8933
23992SOL    HW175764   6.045   5.392   5.911  1.6491  0.4809 -0.6141
23992SOL    HW275765   6.038   5.480   6.034 -1.7300 -0.7132  0.1676
23993SOL     OW75766   3.627   3.470   7.722  0.2691  0.4665  0.2063
23993SOL    HW175767   3.683   3.420   7.781 -0.5088 -0.1821  0.4066
23993SOL    HW275768   3.538   3.440   7.741 -0.0844  0.9449 -0.6250
23994SOL     OW75769   3.475   3.260   9.232  0.5268  0.2983  0.0364
23994SOL    HW175770   3.395   3.258   9.285  0.6853 -2.0289  0.2971
23994SOL    HW275771   3.484   3.351   9.205 -1.7148  0.7861  0.7560
23995SOL     OW75772   8.013   8.183   3.380 -0.2388  0.0504  0.0864
23995SOL    HW175773   7.939   8.229   3.339  0.3497  1.1265  0.1785
23995SOL    HW275774   8.086   8.199   3.321 -0.1966 -1.5770 -0.3543
23996SOL     OW75775   1.595   0.511   5.802  0.4160  0.2051 -0.2923
23996SOL    HW175776   1.509   0.475   5.779  0.3067  0.1853  0.1445
23996SOL    HW275777   1.646   0.436   5.831  0.0656  0.4287  0.9908
23997SOL     OW75778   7.591   2.749   7.325 -0.2468 -0.1824 -0.2636
23997SOL    HW175779   7.534   2.693   7.377 -0.7516 -1.7055 -2.3499
23997SOL    HW275780   7.605   2.826   7.380 -1.4298 -1.3140  1.7378
23998SOL     OW75781   8.129   0.141   8.283  0.2077 -0.0257 -0.3532
23998SOL    HW175782   8.097   0.113   8.197 -1.8696  0.8024  0.0798
23998SOL    HW275783   8.071   0.213   8.307  2.5952  1.7489  0.4874
23999SOL     OW75784   2.268   8.573   4.323  0.1001 -0.4062 -0.6128
23999SOL    HW175785   2.304   8.656   4.294 -2.5253  0.4914 -1.6227
23999SOL    HW275786   2.315   8.507   4.272  1.2003  0.5543 -0.8738
24000SOL     OW75787  10.023   7.216   8.827 -0.1022 -0.4026 -0.1249
24000SOL    HW175788  10.032   7.139   8.883 -1.2714 -0.5415 -0.0932
24000SOL    HW275789  10.087   7.204   8.758 -0.3037 -1.4294 -0.1440
24001SOL     OW75790   4.707   0.806   7.384 -0.1064 -0.5010  0.6594
24001SOL    HW175791   4.769   0.855   7.330  0.1368  1.2808  2.4133
24001SOL    HW275792   4.728   0.714   7.368  2.4675  0.0173  0.5559
24002SOL     OW75793   4.271   7.152   8.564  0.1013 -0.2229 -0.4837
24002SOL    HW175794   4.205   7.185   8.624  1.8161  1.0944  0.7556
24002SOL    HW275795   4.332   7.103   8.619  1.0754  0.0211 -1.3147
24003SOL     OW75796   6.427   1.279   7.437 -0.3753  0.2295 -0.3247
24003SOL    HW175797   6.520   1.304   7.431 -0.6834  1.2701 -1.0380
24003SOL    HW275798   6.424   1.192   7.398  0.4845 -0.3399  0.8103
24004SOL     OW75799   8.803   0.582   0.593  0.0278 -0.3725  0.0297
24004SOL    HW175800   8.797   0.611   0.684  1.2839 -1.8610  0.6443
24004SOL    HW275801   8.866   0.510   0.595 -1.7707 -2.1198 -1.5985
24005SOL     OW75802   7.457   5.491   1.853  0.3246 -0.0603 -0.3445
24005SOL    HW175803   7.482   5.435   1.926  1.4977  0.5393 -0.2544
24005SOL    HW275804   7.504   5.456   1.778 -0.1429 -0.1116 -0.6193
24006SOL     OW75805   9.522   5.502   9.946  0.1439 -0.4248 -0.4718
24006SOL    HW175806   9.444   5.548   9.973 -0.9783 -0.2667 -3.5872
24006SOL    HW275807   9.517   5.417   9.991 -0.6813  0.3612  0.9739
24007SOL     OW75808   7.516   0.997   2.934  0.1753 -0.0379  0.7275
24007SOL    HW175809   7.422   1.006   2.947 -0.2358 -1.4173 -1.0089
24007SOL    HW275810   7.541   0.921   2.986  0.0528 -0.5609  0.0261
24008SOL     OW75811   8.819   7.032   1.854  0.4779 -0.5262  0.1170
24008SOL    HW175812   8.846   6.950   1.896  2.7884  0.5796  1.0191
24008SOL    HW275813   8.850   7.024   1.764  0.3103 -0.8168  0.0854
24009SOL     OW75814   1.982   8.486   8.951 -0.4977 -0.7315 -0.7985
24009SOL    HW175815   1.902   8.486   8.898 -1.0986  1.9915 -0.0501
24009SOL    HW275816   2.021   8.572   8.936  3.2133 -2.4429 -2.3055
24010SOL     OW75817   0.003   9.114   2.350 -0.8060  0.9790 -0.3715
24010SOL    HW175818   0.090   9.131   2.386 -0.6562 -0.8806  0.2490
24010SOL    HW275819  -0.013   9.188   2.291  1.9642  0.5085 -1.9161
24011SOL     OW75820   3.835   2.870   8.554 -0.1157  0.1660 -0.1002
24011SOL    HW175821   3.856   2.946   8.608 -0.1571  1.1741 -1.4630
24011SOL    HW275822   3.909   2.810   8.566  1.3869  1.7023 -1.2591
24012SOL     OW75823   8.661   4.903   1.385  0.6824  0.4282  0.3536
24012SOL    HW175824   8.629   4.950   1.462 -0.2316  2.7285 -1.3571
24012SOL    HW275825   8.745   4.945   1.365  1.8406 -1.4022  1.1151
24013SOL     OW75826   2.292  10.087   2.595 -0.1445 -0.5151 -0.1113
24013SOL    HW175827   2.382  10.104   2.568 -0.0010 -0.2859  0.5007
24013SOL    HW275828   2.254  10.174   2.607 -0.2994 -0.6113  0.1021
24014SOL     OW75829   4.317   9.947   4.189 -0.0678  0.4807  0.3122
24014SOL    HW175830   4.393   9.890   4.200 -2.0942 -2.1309  2.2339
24014SOL    HW275831   4.288   9.931   4.099  0.9355  0.5487 -0.0283
24015SOL     OW75832   0.815   2.722   8.232 -0.3298  0.1742  0.1172
24015SOL    HW175833   0.866   2.767   8.166 -0.3305 -0.0151 -0.0121
24015SOL    HW275834   0.879   2.674   8.284 -0.5161 -1.6995 -1.2763
24016SOL     OW75835   4.934   5.885   4.838 -0.6808 -0.1145 -0.6056
24016SOL    HW175836   4.981   5.803   4.848  2.4440  1.6662  0.6137
24016SOL    HW275837   4.935   5.902   4.744 -1.2688 -1.3722 -0.8578
24017SOL     OW75838   9.027   0.968   8.208 -0.8396  0.2157  0.0406
24017SOL    HW175839   9.032   1.063   8.211 -4.0933  0.5517 -0.8787
24017SOL    HW275840   9.090   0.938   8.272 -0.3038  3.0168  0.9476
24018SOL     OW75841   2.580   9.320   7.913 -0.0473 -0.1597  0.0859
24018SOL    HW175842   2.640   9.365   7.973  1.2622  0.8787 -1.8928
24018SOL    HW275843   2.622   9.327   7.828 -2.0061 -1.2881 -1.0373
24019SOL     OW75844   1.108   8.425   5.349 -0.2996  0.6113  0.6409
24019SOL    HW175845   1.202   8.414   5.333 -0.0608  2.1857  0.7610
24019SOL    HW275846   1.076   8.467   5.269 -0.8194  0.4257  0.7556
24020SOL     OW75847   1.179   8.737   7.227 -0.1062 -0.5630  0.0308
24020SOL    HW175848   1.225   8.800   7.282 -0.4382 -1.1598  1.0196
24020SOL    HW275849   1.089   8.769   7.224  0.4653  1.1889 -2.7591
24021SOL     OW75850   7.073   7.089   2.587  0.4586 -0.0684 -0.0376
24021SOL    HW175851   7.068   7.049   2.674  1.3558  1.3480  0.7040
24021SOL    HW275852   7.105   7.019   2.530  1.7022 -0.5216  1.1627
24022SOL     OW75853   2.706   0.576   3.240  0.1773  0.3846 -0.1680
24022SOL    HW175854   2.730   0.553   3.150  0.4957  1.4763 -0.3820
24022SOL    HW275855   2.790   0.593   3.284  0.0173 -0.0430  0.3052
24023SOL     OW75856   8.734   1.301   6.498  0.0235  0.5087 -0.7670
24023SOL    HW175857   8.650   1.336   6.528 -1.0483 -0.4365 -2.4801
24023SOL    HW275858   8.759   1.238   6.566 -0.2199  1.3986  0.1737
24024SOL     OW75859   3.842   7.902   1.521  0.3283  0.2115  0.0468
24024SOL    HW175860   3.807   7.855   1.444 -0.0035 -0.9804  0.8924
24024SOL    HW275861   3.827   7.994   1.501 -0.2220 -0.0990 -1.1054
24025SOL     OW75862   7.235   9.888   8.836  0.9475  0.0988 -0.3909
24025SOL    HW175863   7.326   9.885   8.865  0.5872 -2.3972  0.7718
24025SOL    HW275864   7.184   9.894   8.916  0.0618 -0.1871 -0.9184
24026SOL     OW75865   4.978   4.232   7.586  0.3412 -0.4238  0.4998
24026SOL    HW175866   4.933   4.295   7.532 -1.8832 -1.5841  0.8987
24026SOL    HW275867   5.039   4.188   7.527 -0.4728 -0.1752 -0.5321
24027SOL     OW75868   0.463   5.733   2.619 -0.6749  0.2867 -0.1340
24027SOL    HW175869   0.553   5.764   2.631 -0.6307 -0.2252  0.9637
24027SOL    HW275870   0.408   5.809   2.640 -0.5175  0.1822  0.7218
24028SOL     OW75871   0.522   0.743   6.006  0.0139  0.2740  0.3860
24028SOL    HW175872   0.527   0.806   6.077  1.5778 -0.1428  0.6833
24028SOL    HW275873   0.483   0.664   6.045  1.9244 -0.3535  1.1312
24029SOL     OW75874   0.858   5.875   3.871  0.0631  0.1986 -0.2441
24029SOL    HW175875   0.914   5.839   3.802 -0.5508 -0.2230 -0.5256
24029SOL    HW275876   0.854   5.807   3.938  1.3462  0.9287  0.6258
24030SOL     OW75877   5.005  10.123   0.155  0.0848 -1.0575  0.4602
24030SOL    HW175878   5.006  10.027   0.155 -1.1932 -1.1078 -0.7234
24030SOL    HW275879   5.023  10.147   0.064  0.5803 -0.1643  0.7898
24031SOL     OW75880   6.521   9.978   1.950  0.4137  0.4172 -0.2484
24031SOL    HW175881   6.512   9.931   2.033 -2.0401 -0.1499 -0.7634
24031SOL    HW275882   6.448   9.947   1.897  1.2551  1.6258 -2.2172
24032SOL     OW75883   0.036   4.011   3.446  0.1129  0.2120 -0.5451
24032SOL    HW175884   0.132   4.009   3.451  0.0833  0.6854  0.6058
24032SOL    HW275885   0.010   4.068   3.519 -0.9852  1.2096 -1.6733
24033SOL     OW75886   3.430   2.141   8.397 -0.3745 -0.0228 -0.7598
24033SOL    HW175887   3.515   2.179   8.375  0.8422 -2.3431 -0.3319
24033SOL    HW275888   3.405   2.091   8.320 -0.5262 -0.7228 -0.2659
24034SOL     OW75889   5.945   2.661   8.882  0.1993  0.5639 -0.2599
24034SOL    HW175890   6.037   2.681   8.896  0.3854 -0.5313  0.1794
24034SOL    HW275891   5.946   2.581   8.829 -0.5084  1.6875 -2.0760
24035SOL     OW75892   8.102   9.578   8.616 -0.3612 -0.4938 -0.4244
24035SOL    HW175893   8.038   9.508   8.626 -2.0955  1.1272  0.3982
24035SOL    HW275894   8.112   9.589   8.521 -1.5830 -0.5403 -0.5655
24036SOL     OW75895   3.165   8.953   0.178 -0.6625  0.2442  0.3454
24036SOL    HW175896   3.236   9.000   0.134 -0.0754 -2.1572 -1.4913
24036SOL    HW275897   3.089   9.010   0.167  0.5169  1.9200  0.5152
24037SOL     OW75898   7.942   2.317   5.986 -0.1057 -0.3742  0.0200
24037SOL    HW175899   7.912   2.271   6.064  0.7684  0.7250  1.0440
24037SOL    HW275900   8.032   2.289   5.973  0.2052  0.4825  0.2426
24038SOL     OW75901   9.003   0.578   7.574  0.0389  0.2114 -0.1866
24038SOL    HW175902   8.975   0.633   7.647 -0.7241 -0.1640 -0.1942
24038SOL    HW275903   8.985   0.630   7.496 -0.3393  0.0994 -0.1740
24039SOL     OW75904   6.652   5.205   3.505 -0.0982 -0.2847 -0.0876
24039SOL    HW175905   6.697   5.124   3.480 -1.4974 -1.0444 -0.2390
24039SOL    HW275906   6.579   5.212   3.443 -0.2759  0.8480  0.2259
24040SOL     OW75907   6.568   7.164   5.597  0.3414 -0.0069 -0.2044
24040SOL    HW175908   6.575   7.083   5.547  1.3186  0.5176 -0.9612
24040SOL    HW275909   6.514   7.221   5.543 -0.9014 -0.3629  0.6349
24041SOL     OW75910   9.168   3.143   5.309  0.6623  0.0580 -0.4325
24041SOL    HW175911   9.122   3.204   5.367 -0.9387 -0.9795 -0.5416
24041SOL    HW275912   9.214   3.084   5.368  0.4765  0.0778 -0.2677
24042SOL     OW75913   3.869   2.122   6.208  0.0466  0.1430 -0.1307
24042SOL    HW175914   3.908   2.080   6.285  0.6899 -0.3571 -0.7144
24042SOL    HW275915   3.915   2.082   6.134 -1.0353  0.1172 -0.8029
24043SOL     OW75916   3.164   1.607   1.543 -0.6017  1.1579  0.0324
24043SOL    HW175917   3.092   1.573   1.490 -1.5790  2.6101  0.3577
24043SOL    HW275918   3.229   1.637   1.479 -0.6526  0.6138 -0.2804
24044SOL     OW75919   4.212   9.678   3.618  0.7410  0.3978 -0.2106
24044SOL    HW175920   4.127   9.718   3.603  0.5695 -0.4334 -1.7351
24044SOL    HW275921   4.204   9.590   3.580  2.0860  0.0897  0.1653
24045SOL     OW75922   3.203   3.912   8.636 -0.3748 -0.0856 -0.0635
24045SOL    HW175923   3.218   3.915   8.542  0.2229  1.0648  0.0484
24045SOL    HW275924   3.185   3.820   8.655 -0.8454 -0.2737 -1.3441
24046SOL     OW75925   2.230   3.651   6.807 -0.2026 -0.1191  0.0313
24046SOL    HW175926   2.155   3.593   6.794 -0.9500  0.9251 -0.4742
24046SOL    HW275927   2.305   3.592   6.813 -1.2931 -1.4207  3.2224
24047SOL     OW75928   1.236   2.112   4.737  0.4307  0.1864  0.3222
24047SOL    HW175929   1.287   2.046   4.691 -0.2138  0.6696 -1.1387
24047SOL    HW275930   1.222   2.076   4.824  2.8431 -0.1617  0.6210
24048SOL     OW75931   1.726   0.703   7.345  0.2771  0.4383 -0.0928
24048SOL    HW175932   1.758   0.762   7.277 -0.3274 -1.4276 -2.0972
24048SOL    HW275933   1.637   0.733   7.364 -0.6977 -0.7692 -2.3856
24049SOL     OW75934   5.610   0.137   3.414  0.2161 -0.2351 -0.4007
24049SOL    HW175935   5.703   0.155   3.425  0.1275  0.2019 -0.3362
24049SOL    HW275936   5.597   0.134   3.319  0.4375 -1.0786 -0.4097
24050SOL     OW75937   3.929   7.669   9.172  0.2702  0.0577  0.2748
24050SOL    HW175938   4.013   7.651   9.130  0.7584  2.7428 -0.0765
24050SOL    HW275939   3.892   7.582   9.190  2.0118 -1.1970 -1.7200
24051SOL     OW75940   6.487   1.713  10.206 -0.2354 -0.3470  0.2451
24051SOL    HW175941   6.415   1.682  10.151  0.9412 -0.7264 -1.1200
24051SOL    HW275942   6.486   1.655  10.282 -2.5215  0.8118  1.2286
24052SOL     OW75943   5.859   8.440   8.238  0.1018  0.4414 -0.2536
24052SOL    HW175944   5.787   8.459   8.178  1.1241  0.0974 -1.6554
24052SOL    HW275945   5.823   8.377   8.300 -0.3981 -1.0311 -1.9328
24053SOL     OW75946   3.316  10.359   6.559  0.6285  0.5489 -0.2037
24053SOL    HW175947   3.285  10.427   6.500 -1.0018  0.4829  0.5320
24053SOL    HW275948   3.377  10.404   6.618 -0.6474  1.4570  0.4629
24054SOL     OW75949   1.172   6.682  10.256 -0.1630 -0.1980  0.5202
24054SOL    HW175950   1.099   6.637  10.214  0.4930 -0.2056 -0.6841
24054SOL    HW275951   1.250   6.644  10.215  0.4421  1.4931 -0.0175
24055SOL     OW75952   0.112   8.658   3.662  0.3135  0.1671 -0.3800
24055SOL    HW175953   0.055   8.673   3.737  3.2038 -0.5380  2.1954
24055SOL    HW275954   0.163   8.739   3.654 -1.0040  0.8445 -2.7071
24056SOL     OW75955   1.080   4.611   2.217 -0.6209 -0.1849 -0.0505
24056SOL    HW175956   1.041   4.614   2.304  0.3679 -1.7490  0.4853
24056SOL    HW275957   1.151   4.676   2.220 -1.8766  1.2735 -0.4118
24057SOL     OW75958   3.973   5.979   1.641  0.2903 -0.3328  0.0603
24057SOL    HW175959   3.991   6.043   1.572 -2.2275  1.0754  0.5860
24057SOL    HW275960   3.891   5.938   1.614  1.0711 -2.2886  0.5264
24058SOL     OW75961   7.854   3.780   0.421 -0.4656  0.0002 -0.0940
24058SOL    HW175962   7.813   3.694   0.410 -0.1582 -0.3949  1.5122
24058SOL    HW275963   7.889   3.778   0.510 -1.4756  2.2351  0.4018
24059SOL     OW75964   9.551   5.528   0.334 -0.1246 -0.0291  0.3874
24059SOL    HW175965   9.539   5.445   0.290  1.6364  0.0709 -0.3467
24059SOL    HW275966   9.463   5.552   0.365 -0.6997 -1.9876  0.3614
24060SOL     OW75967   4.444   7.030   4.714  0.3927 -0.1200  0.3271
24060SOL    HW175968   4.395   6.955   4.679  0.8364 -0.3307  0.1604
24060SOL    HW275969   4.393   7.106   4.685  0.0710 -0.3422  0.2924
24061SOL     OW75970   6.034   5.006   8.601  0.6881  0.3904 -0.0735
24061SOL    HW175971   6.012   5.070   8.669 -1.6616 -0.6586  0.2393
24061SOL    HW275972   6.058   5.059   8.525 -0.7776  1.6701  0.3022
24062SOL     OW75973   0.368   3.823   5.403  0.0082 -0.1832  0.6895
24062SOL    HW175974   0.413   3.800   5.321 -0.1848 -0.3219  0.6210
24062SOL    HW275975   0.419   3.781   5.471 -0.4067 -0.9217  0.5548
24063SOL     OW75976   7.531   1.285   0.362 -0.1436  0.0477 -0.2623
24063SOL    HW175977   7.585   1.242   0.428 -1.0694 -0.8327 -0.0625
24063SOL    HW275978   7.589   1.350   0.322  0.6803 -0.0116  0.8096
24064SOL     OW75979   6.859   5.732   6.974 -0.1046 -0.2191  0.3873
24064SOL    HW175980   6.885   5.707   7.063  0.9827 -0.4044  0.0281
24064SOL    HW275981   6.935   5.777   6.938 -1.1683  1.5090  0.1639
24065SOL     OW75982   6.504   0.260   9.566  0.5763  0.0553  0.3038
24065SOL    HW175983   6.567   0.313   9.518  1.3886 -0.1242  1.1376
24065SOL    HW275984   6.431   0.248   9.505  1.4591  0.0401 -0.7872
24066SOL     OW75985   6.606   0.513   4.873  0.1216  0.4282 -0.1678
24066SOL    HW175986   6.661   0.487   4.799  0.2716  1.6647 -0.5216
24066SOL    HW275987   6.517   0.497   4.843  0.2099  0.2407 -0.3333
24067SOL     OW75988   2.101   2.898   7.315 -0.0007  0.1012  0.0338
24067SOL    HW175989   2.105   2.924   7.407 -0.2272  0.6160 -0.0962
24067SOL    HW275990   2.100   2.803   7.317  0.2240  0.1054  0.5561
24068SOL     OW75991   4.451   7.120   9.885 -0.1728 -0.3380 -0.0291
24068SOL    HW175992   4.404   7.198   9.914 -0.2308 -1.0190  1.8518
24068SOL    HW275993   4.390   7.048   9.900  0.1051 -0.8404 -1.1658
24069SOL     OW75994   8.740   1.778   6.086  0.0697  0.6568  0.1068
24069SOL    HW175995   8.745   1.820   6.000  0.6731 -0.9609 -0.6918
24069SOL    HW275996   8.826   1.738   6.098 -0.4141 -0.1904  0.8961
24070SOL     OW75997   3.392   6.778   6.199  0.8235  0.0244 -1.0168
24070SOL    HW175998   3.338   6.856   6.184 -0.8127 -0.2094  2.5197
24070SOL    HW275999   3.465   6.786   6.138 -0.6446  2.9440 -2.5789
24071SOL     OW76000   6.591   7.964   8.400  0.5432 -0.3919  0.3118
24071SOL    HW176001   6.671   8.014   8.417  0.4374  0.5876 -1.7384
24071SOL    HW276002   6.531   8.028   8.363 -0.0682 -1.7759 -1.1873
24072SOL     OW76003   3.381   1.482   9.066 -0.5550 -0.2026  0.0370
24072SOL    HW176004   3.441   1.473   9.140 -1.4329  0.5528  0.8712
24072SOL    HW276005   3.416   1.553   9.014  0.9459 -1.7496 -1.1880
24073SOL     OW76006   3.648   7.169   4.660 -0.2715 -0.7593 -0.8788
24073SOL    HW176007   3.687   7.110   4.595 -0.1072 -0.5851 -0.9392
24073SOL    HW276008   3.560   7.135   4.673  0.0696 -1.4816 -0.3439
24074SOL     OW76009   3.747   0.722   2.250  0.8072  0.4199 -0.6848
24074SOL    HW176010   3.703   0.750   2.331 -1.8267 -2.3007 -0.9846
24074SOL    HW276011   3.826   0.678   2.281 -0.2144 -0.6897  0.5045
24075SOL     OW76012   4.293   2.905   3.405  0.0843 -0.3131 -0.1198
24075SOL    HW176013   4.377   2.905   3.360  0.0604  1.4680 -0.2112
24075SOL    HW276014   4.314   2.877   3.494  0.6731 -0.4889 -0.3102
24076SOL     OW76015   2.895   0.894   7.737 -1.0949 -0.1563  0.0590
24076SOL    HW176016   2.861   0.970   7.689 -0.0222  0.9228  0.9405
24076SOL    HW276017   2.989   0.909   7.740 -0.8603 -1.5823  0.1956
24077SOL     OW76018   4.602   8.732  10.107  0.1058 -0.1924 -0.3444
24077SOL    HW176019   4.621   8.810  10.054  0.7978  0.2369  0.5091
24077SOL    HW276020   4.667   8.734  10.177  0.1826 -1.5961 -0.3561
24078SOL     OW76021   4.582   5.445   0.738  0.2180  0.6502 -0.1592
24078SOL    HW176022   4.522   5.426   0.665 -0.4295 -2.1981  1.0011
24078SOL    HW276023   4.538   5.411   0.815  2.1682  0.9520  1.1540
24079SOL     OW76024   9.251   8.615   7.532  0.0232 -0.9000  0.0229
24079SOL    HW176025   9.229   8.649   7.445 -0.0854  0.0576  0.4062
24079SOL    HW276026   9.308   8.682   7.570  1.9866 -2.3654 -0.1565
24080SOL     OW76027   9.007   9.230   3.409  0.0214  0.4753 -0.2525
24080SOL    HW176028   8.955   9.150   3.413  1.5834 -0.5982 -0.9920
24080SOL    HW276029   8.981   9.272   3.327  1.3790 -0.8255 -1.3790
24081SOL     OW76030   8.075   4.418   5.677 -0.4790  0.0284 -0.1793
24081SOL    HW176031   8.114   4.404   5.591 -1.4936  0.4845 -0.7373
24081SOL    HW276032   8.088   4.335   5.724 -2.6051 -1.3529 -1.8645
24082SOL     OW76033   0.348   8.819   4.697  0.2550 -0.1445 -0.0647
24082SOL    HW176034   0.309   8.799   4.781 -0.2519 -0.7570 -0.4355
24082SOL    HW276035   0.361   8.914   4.698 -2.8776  0.3843 -0.6003
24083SOL     OW76036   8.714   3.269   3.284 -0.4215  0.1153  0.0490
24083SOL    HW176037   8.642   3.206   3.284 -0.1305 -0.2353 -0.6615
24083SOL    HW276038   8.762   3.250   3.203  1.6129 -0.9877  1.4090
24084SOL     OW76039   4.867  10.253   7.431 -0.6184  0.2376  0.1405
24084SOL    HW176040   4.855  10.316   7.503  0.9568  0.4523  0.2483
24084SOL    HW276041   4.947  10.282   7.387  0.7584 -2.2532  0.8104
24085SOL     OW76042   8.960   5.937   3.093  0.6874 -0.1908  0.0304
24085SOL    HW176043   8.992   5.906   3.178 -0.4716  1.5616  1.1713
24085SOL    HW276044   8.927   5.859   3.049 -1.3361 -0.7780  2.4028
24086SOL     OW76045   7.261   5.846   0.500 -0.3889  0.0888  0.8643
24086SOL    HW176046   7.281   5.760   0.538 -0.7883 -0.3499  0.1221
24086SOL    HW276047   7.343   5.874   0.459 -0.1642  0.2172  1.4043
24087SOL     OW76048   5.471   3.329   1.047  0.6884  0.6723 -0.1394
24087SOL    HW176049   5.446   3.274   1.121 -0.9811 -0.3183 -1.3646
24087SOL    HW276050   5.566   3.336   1.053  0.6656 -0.0739  1.6046
24088SOL     OW76051   3.917   7.951   4.839  0.0478  0.2453  0.3605
24088SOL    HW176052   3.995   7.896   4.842  0.3545  0.5557 -1.1051
24088SOL    HW276053   3.921   8.003   4.919  0.4110 -0.9557  1.1521
24089SOL     OW76054   9.140   9.900   7.949  0.1882  0.5449 -0.1418
24089SOL    HW176055   9.168   9.991   7.946  3.2775 -0.2539  0.4931
24089SOL    HW276056   9.114   9.880   7.859  0.5235  1.7525 -0.5262
24090SOL     OW76057   4.215   6.232   4.329  0.4283 -0.4521  0.2002
24090SOL    HW176058   4.241   6.324   4.320 -0.5235 -0.1945 -0.0320
24090SOL    HW276059   4.127   6.228   4.291  1.2295 -1.8676 -1.6822
24091SOL     OW76060   4.450   8.782   1.798  0.8570  0.0916  0.1774
24091SOL    HW176061   4.541   8.760   1.815  0.7987 -0.3109 -0.0158
24091SOL    HW276062   4.400   8.721   1.852  0.7025  1.2980  1.4579
24092SOL     OW76063   2.626   5.875   2.007 -0.1130  0.0715 -0.3203
24092SOL    HW176064   2.601   5.833   1.924 -0.8166 -0.5344  0.1786
24092SOL    HW276065   2.635   5.968   1.985  1.2658 -0.2788 -1.4080
24093SOL     OW76066   8.130   0.730   4.805 -0.3367 -0.0075 -0.0217
24093SOL    HW176067   8.197   0.671   4.838  1.3329  1.4135 -0.7172
24093SOL    HW276068   8.109   0.788   4.878 -0.5377 -0.2248  0.0918
24094SOL     OW76069   3.914   4.915   0.542  0.3824  0.1837 -0.6931
24094SOL    HW176070   3.897   4.863   0.463  1.2793  1.0445 -1.4749
24094SOL    HW276071   4.008   4.905   0.557 -0.1948 -2.4175  2.0555
24095SOL     OW76072   9.727   7.419   1.441  0.3941  0.8086  0.0470
24095SOL    HW176073   9.643   7.465   1.435 -0.3166 -0.4974 -0.3654
24095SOL    HW276074   9.734   7.372   1.358  1.8782  1.4325 -0.2104
24096SOL     OW76075   0.677   5.594   7.870 -0.6623 -0.6644 -0.5116
24096SOL    HW176076   0.760   5.556   7.898  0.5450  2.9646  1.4883
24096SOL    HW276077   0.611   5.546   7.920  0.8008  0.0979  2.3865
24097SOL     OW76078   8.074   7.788   8.546  1.1606  0.4501  0.1299
24097SOL    HW176079   8.048   7.815   8.634  2.7165 -0.5858  0.9363
24097SOL    HW276080   8.042   7.859   8.489 -0.0570  1.0281  1.4688
24098SOL     OW76081   6.880   7.404   3.246  0.0249  0.1019  0.3644
24098SOL    HW176082   6.787   7.397   3.224 -0.1683  0.5988  1.0104
24098SOL    HW276083   6.925   7.382   3.164 -0.6449 -0.7137  0.1920
24099SOL     OW76084   5.967   5.306   7.219  0.0386  0.0102 -0.3020
24099SOL    HW176085   5.936   5.219   7.193 -3.5834  1.7678 -2.7368
24099SOL    HW276086   5.942   5.315   7.311 -0.6348 -1.0975 -0.3681
24100SOL     OW76087   2.563   3.114   5.692  0.1371 -0.3318 -0.3699
24100SOL    HW176088   2.493   3.107   5.757  0.4669 -0.0987  0.0204
24100SOL    HW276089   2.521   3.153   5.615 -0.0982  0.0896 -0.0338
24101SOL     OW76090   6.231   3.336   9.682  0.2301 -0.0076  0.1553
24101SOL    HW176091   6.169   3.404   9.657  0.1640 -0.5499 -1.2843
24101SOL    HW276092   6.186   3.284   9.748 -1.1810 -0.8690 -1.4323
24102SOL     OW76093   5.298   6.258   4.066  0.4122 -0.0047 -0.8428
24102SOL    HW176094   5.335   6.310   3.994  1.9550 -1.0256 -0.8287
24102SOL    HW276095   5.271   6.176   4.025  2.4660 -1.1069 -0.1037
24103SOL     OW76096   2.771   2.354  10.131 -0.7752  0.2216  0.5152
24103SOL    HW176097   2.701   2.290  10.130 -0.7643  0.1957 -0.9304
24103SOL    HW276098   2.844   2.311  10.086 -0.7495  1.2086 -0.4222
24104SOL     OW76099   6.217   5.005   2.049 -0.5759  0.3451  0.1330
24104SOL    HW176100   6.212   5.005   1.953  0.3724 -1.7329  0.0367
24104SOL    HW276101   6.236   4.914   2.072 -2.3233  0.4760  2.4075
24105SOL     OW76102   0.691   9.274   1.247 -0.2744 -0.0723  0.4522
24105SOL    HW176103   0.644   9.340   1.298 -0.7968  0.7071 -0.9765
24105SOL    HW276104   0.777   9.269   1.289 -0.5885  0.7387  1.2341
24106SOL     OW76105   4.718   1.028   1.334 -0.3906  0.0648  0.1430
24106SOL    HW176106   4.785   1.093   1.313  0.9054 -2.1146 -3.3492
24106SOL    HW276107   4.748   0.988   1.416  2.0506 -0.0679 -0.7261
24107SOL     OW76108   7.744   3.439   3.301  0.1821 -0.4528  0.4800
24107SOL    HW176109   7.825   3.490   3.300  0.5906 -1.0866 -0.3994
24107SOL    HW276110   7.674   3.504   3.312  0.7089  0.2589 -0.2520
24108SOL     OW76111   8.108   0.684   9.370 -0.0619 -0.0703 -0.2681
24108SOL    HW176112   8.049   0.741   9.319 -0.7755 -1.0277 -0.5443
24108SOL    HW276113   8.069   0.597   9.362  2.1642 -1.0209 -1.6422
24109SOL     OW76114   3.234   9.806   4.696  0.0107  0.2279 -0.1672
24109SOL    HW176115   3.234   9.840   4.607 -1.9167 -0.1010 -0.3341
24109SOL    HW276116   3.229   9.711   4.685 -2.2026  0.2431  0.2258
24110SOL     OW76117   4.044   8.742   3.109 -0.6442 -0.9446  0.1007
24110SOL    HW176118   4.125   8.792   3.097 -0.5178 -1.1587  0.0469
24110SOL    HW276119   4.069   8.667   3.163 -0.9691 -0.6106  0.7166
24111SOL     OW76120   5.989   6.483   8.058 -0.4865 -0.0007  0.1892
24111SOL    HW176121   6.084   6.484   8.068 -0.3692  0.7337 -0.8900
24111SOL    HW276122   5.974   6.447   7.971 -1.3478 -3.1459  1.5174
24112SOL     OW76123   3.836   5.926   7.862  0.6641  0.2793  0.0984
24112SOL    HW176124   3.747   5.906   7.892  0.6161  1.2116  0.6328
24112SOL    HW276125   3.853   6.013   7.898  2.3040 -0.4373  1.1403
24113SOL     OW76126   3.314   7.875   4.146  0.5997  0.0048  0.4284
24113SOL    HW176127   3.327   7.800   4.089 -0.8088 -0.6439  0.9140
24113SOL    HW276128   3.324   7.840   4.234 -0.0775  0.3786  0.6579
24114SOL     OW76129   9.761   0.865   6.707 -0.0670 -0.0819 -0.1120
24114SOL    HW176130   9.770   0.953   6.671  0.6036 -0.8789 -2.0374
24114SOL    HW276131   9.681   0.831   6.667  0.7079 -0.9975 -0.9405
24115SOL     OW76132   0.392   2.326   8.699 -0.3652 -0.6005  0.0233
24115SOL    HW176133   0.328   2.395   8.682  0.2173 -0.1169 -0.2539
24115SOL    HW276134   0.341   2.246   8.700 -0.7334 -0.4448 -2.1002
24116SOL     OW76135   8.184   1.659   8.884  0.2259  0.0951  0.0588
24116SOL    HW176136   8.213   1.638   8.795  0.2506  0.9560 -0.1503
24116SOL    HW276137   8.216   1.748   8.898 -0.7961  0.3980  0.4931
24117SOL     OW76138   4.413   9.950   8.877 -0.1735  0.5904  0.5452
24117SOL    HW176139   4.388  10.039   8.854  2.8024  0.9683 -2.0810
24117SOL    HW276140   4.485   9.961   8.939 -1.2894 -0.1366  2.0226
24118SOL     OW76141   0.163   6.393   3.114 -0.7675 -0.0517  0.3771
24118SOL    HW176142   0.133   6.456   3.179 -0.1866  0.8543 -0.2056
24118SOL    HW276143   0.224   6.336   3.161  1.0352  1.6743  0.2936
24119SOL     OW76144   3.525   9.407  10.338 -0.1174 -0.2051  0.0439
24119SOL    HW176145   3.611   9.397  10.298 -0.5108  0.4378 -0.9966
24119SOL    HW276146   3.466   9.355  10.283 -0.4069 -0.6114  0.7244
24120SOL     OW76147   7.506   3.980   4.587  0.8902  0.1474  0.4930
24120SOL    HW176148   7.486   3.894   4.623  1.4530 -0.1159  0.1919
24120SOL    HW276149   7.591   4.003   4.625  0.9110  0.4092  0.2958
24121SOL     OW76150   4.641   5.061   1.790  0.5805  0.6676 -0.2406
24121SOL    HW176151   4.726   5.018   1.779 -0.4353 -1.3194 -0.9514
24121SOL    HW276152   4.630   5.111   1.709  0.8302  0.4912 -0.3872
24122SOL     OW76153   5.973   5.380   7.502  0.0977  0.2789 -0.3509
24122SOL    HW176154   6.004   5.290   7.504 -1.3869 -0.2719 -0.8793
24122SOL    HW276155   5.979   5.410   7.593 -1.2030 -1.0113  0.1851
24123SOL     OW76156   9.891   9.659   1.679 -0.1054 -0.6373 -0.1031
24123SOL    HW176157   9.853   9.729   1.732 -0.0783  0.8820 -1.9928
24123SOL    HW276158   9.822   9.593   1.675 -1.9665  1.2632 -1.9289
24124SOL     OW76159   5.681   6.569   0.345 -0.1981 -0.2633  0.1093
24124SOL    HW176160   5.756   6.612   0.303  0.9241 -1.0031  1.2850
24124SOL    HW276161   5.719   6.495   0.391 -1.5782 -0.2627  1.3016
24125SOL     OW76162   9.159   1.209   8.732  0.0047  0.6502 -0.1034
24125SOL    HW176163   9.241   1.168   8.760 -1.2541 -1.9659  0.1139
24125SOL    HW276164   9.101   1.135   8.714 -1.9864  2.3964 -1.2798
24126SOL     OW76165   7.777   5.831   4.244  0.2545 -0.0266  0.2234
24126SOL    HW176166   7.757   5.767   4.312  3.3379 -0.3521  0.9603
24126SOL    HW276167   7.822   5.902   4.290  1.8275  0.0540 -1.3284
24127SOL     OW76168   9.901   8.351   5.032  0.2197  0.1848 -0.3236
24127SOL    HW176169   9.964   8.397   4.977  0.2592  1.1356  0.4820
24127SOL    HW276170   9.848   8.300   4.971 -0.2583  1.8056 -1.3452
24128SOL     OW76171   4.786   8.893   0.746  0.3136  0.3847 -0.1099
24128SOL    HW176172   4.732   8.813   0.742 -0.0007  0.5740  0.2242
24128SOL    HW276173   4.840   8.881   0.824  2.1807 -0.6704 -1.4756
24129SOL     OW76174   0.541   0.213   7.723  0.1108  0.4426 -0.0272
24129SOL    HW176175   0.556   0.246   7.635  0.4090  1.6647  0.4665
24129SOL    HW276176   0.617   0.158   7.742  0.1007  0.2707 -0.4729
24130SOL     OW76177   6.483   4.011   7.282  0.4680  0.0948  0.0247
24130SOL    HW176178   6.423   4.068   7.330  0.8332 -0.0649  0.6783
24130SOL    HW276179   6.537   3.971   7.350  2.2154  1.2540 -0.6290
24131SOL     OW76180  10.206   7.331   9.499  0.7380 -0.3752 -0.1976
24131SOL    HW176181  10.150   7.335   9.576  0.0476 -0.3999 -0.6823
24131SOL    HW276182  10.244   7.243   9.501  0.9609 -0.2648  0.2781
24132SOL     OW76183   2.085   3.492   4.869  0.6289  0.1039  0.2523
24132SOL    HW176184   2.069   3.403   4.839  1.1192  0.2162 -0.3696
24132SOL    HW276185   1.998   3.530   4.880  0.4266 -0.2410 -0.1422
24133SOL     OW76186   7.443   0.680   0.342  0.0207  0.3843  0.2042
24133SOL    HW176187   7.487   0.640   0.417 -1.0637 -2.4709 -0.5247
24133SOL    HW276188   7.500   0.661   0.267 -1.5698 -2.0899 -0.5153
24134SOL     OW76189   4.681   4.754   7.825  0.0903 -0.0665  0.2352
24134SOL    HW176190   4.685   4.775   7.919 -0.7189 -0.0494  0.2781
24134SOL    HW276191   4.701   4.837   7.782  1.0769 -0.2203  0.3877
24135SOL     OW76192  10.020   4.980   1.324  0.9876  0.6109  0.2434
24135SOL    HW176193   9.999   5.069   1.295  0.7822  0.1044 -1.2554
24135SOL    HW276194  10.089   4.952   1.264 -0.7657 -1.1851 -1.0598
24136SOL     OW76195   3.036   3.363   6.283 -0.0956  0.2615 -0.2917
24136SOL    HW176196   2.963   3.422   6.269  0.1591  0.6839  0.1103
24136SOL    HW276197   3.074   3.391   6.367 -0.3561 -0.8718  0.2322
24137SOL     OW76198   9.906   4.220   7.708 -0.4196 -0.1135 -0.4712
24137SOL    HW176199   9.930   4.246   7.797  0.4593  0.7384 -0.9342
24137SOL    HW276200   9.880   4.302   7.666 -0.2903 -0.4257 -1.1682
24138SOL     OW76201   6.562   5.011   3.737  0.3607 -0.8098 -0.2217
24138SOL    HW176202   6.656   4.989   3.732  0.5445 -0.1032  0.0838
24138SOL    HW276203   6.560   5.105   3.752 -0.3840 -0.9521  0.6843
24139SOL     OW76204   1.278   4.523   5.320 -0.2418  0.2389  0.6477
24139SOL    HW176205   1.227   4.457   5.366 -0.7948 -0.1614 -0.4859
24139SOL    HW276206   1.233   4.534   5.236  0.7075  0.9454  0.2049
24140SOL     OW76207   8.620  10.018   9.936 -0.0434  0.1004 -0.5758
24140SOL    HW176208   8.568   9.962   9.994  0.6188  0.6757  0.6240
24140SOL    HW276209   8.697   9.965   9.914  0.4633  0.4209  0.3615
24141SOL     OW76210   4.211   4.675   6.642 -0.1427 -0.2895  0.0163
24141SOL    HW176211   4.245   4.595   6.603  1.6624  0.0787  0.7653
24141SOL    HW276212   4.223   4.742   6.574 -2.1327 -0.6997 -0.8090
24142SOL     OW76213   1.671   4.999   7.789 -0.5021 -0.5983  0.1640
24142SOL    HW176214   1.766   4.992   7.784 -0.0894  3.3556 -0.9905
24142SOL    HW276215   1.645   4.937   7.857  2.9270 -1.4127  0.8836
24143SOL     OW76216   9.796   6.099   1.258 -0.1562  0.3266  0.1786
24143SOL    HW176217   9.815   6.172   1.199  2.2051 -0.3227  0.0515
24143SOL    HW276218   9.848   6.117   1.336 -1.9392  0.3033  1.4344
24144SOL     OW76219   4.538   6.322   1.392 -0.4295 -0.0510 -0.4951
24144SOL    HW176220   4.464   6.265   1.409 -1.1230  0.6551 -1.0698
24144SOL    HW276221   4.538   6.385   1.464  0.3751 -0.7801  0.1752
24145SOL     OW76222   7.489   1.191  10.133 -0.6927 -0.2855  0.1713
24145SOL    HW176223   7.422   1.253  10.105 -0.0899  0.3087  0.0202
24145SOL    HW276224   7.461   1.165  10.221 -1.2603 -0.2478  0.0081
24146SOL     OW76225   9.625   0.604   8.036 -0.3707  0.0831  0.1370
24146SOL    HW176226   9.585   0.688   8.015  0.4664  0.4838  0.1209
24146SOL    HW276227   9.604   0.548   7.961 -1.0847  0.2146  0.2324
24147SOL     OW76228   9.374   9.167   4.703  0.2361  0.4865 -0.2741
24147SOL    HW176229   9.397   9.111   4.629  0.5320  0.6793 -0.3300
24147SOL    HW276230   9.325   9.110   4.761  1.9781 -0.3188  0.4804
24148SOL     OW76231  10.086   6.489   3.012 -0.2861  0.2258  0.3780
24148SOL    HW176232  10.020   6.466   3.077 -0.0280 -0.2515  0.4699
24148SOL    HW276233  10.160   6.431   3.030 -0.1900  0.1302 -0.3038
24149SOL     OW76234   9.527   8.174   4.946  0.3567 -0.2841  0.4475
24149SOL    HW176235   9.547   8.176   4.852 -1.3048 -0.9019  0.0557
24149SOL    HW276236   9.522   8.266   4.971  0.8092 -0.1127 -0.0626
24150SOL     OW76237   8.962  10.122   0.631 -0.6569  0.0456 -0.3322
24150SOL    HW176238   8.946  10.199   0.685 -0.6571  0.4908 -0.9553
24150SOL    HW276239   8.900  10.130   0.558 -0.0611 -0.0745 -0.8673
24151SOL     OW76240   7.098   7.201   8.772 -0.1011  0.4866 -0.0712
24151SOL    HW176241   7.109   7.120   8.821  0.3643  1.2856  1.2027
24151SOL    HW276242   7.183   7.216   8.731 -0.4455 -0.1029 -1.0252
24152SOL     OW76243   1.673   1.245   2.327  0.1894  0.4801  0.2757
24152SOL    HW176244   1.669   1.305   2.252  0.4878 -1.1439 -1.1135
24152SOL    HW276245   1.756   1.265   2.370 -0.3853  2.0220  0.7115
24153SOL     OW76246   5.456   0.681   0.062 -0.5951 -0.8256 -0.4923
24153SOL    HW176247   5.410   0.754   0.102  1.9587  0.3703  0.4715
24153SOL    HW276248   5.404   0.659  -0.015 -2.1107  1.1524 -0.1061
24154SOL     OW76249   7.416   4.000   8.708 -0.1710 -0.4332  0.2990
24154SOL    HW176250   7.348   3.969   8.648 -1.6329  2.2643  0.3968
24154SOL    HW276251   7.497   3.996   8.658 -0.9652 -0.5889 -1.0079
24155SOL     OW76252   4.182   9.999   9.785  0.5343  0.0111  0.4498
24155SOL    HW176253   4.235  10.028   9.859 -1.2013 -0.3106  1.8833
24155SOL    HW276254   4.099  10.044   9.796  0.5109  0.6880 -1.8771
24156SOL     OW76255   3.471   5.430   4.903 -0.6520 -0.2562 -0.6466
24156SOL    HW176256   3.461   5.347   4.950 -1.3929  0.9374  1.4815
24156SOL    HW276257   3.565   5.437   4.886 -0.6990 -1.9741 -1.8185
24157SOL     OW76258   4.625   3.978   3.479  0.4567  0.2327 -0.4746
24157SOL    HW176259   4.555   4.032   3.443 -0.4498 -1.3034 -1.1154
24157SOL    HW276260   4.687   3.967   3.407 -0.3217 -1.1124 -0.9891
24158SOL     OW76261   5.103   8.849   9.688 -0.1124 -0.2282  0.0531
24158SOL    HW176262   5.096   8.786   9.617 -2.0705 -1.5141  1.2929
24158SOL    HW276263   5.087   8.798   9.768  0.9066  1.3515  1.3514
24159SOL     OW76264   9.718   9.464   7.084 -0.1326 -0.3211  0.1674
24159SOL    HW176265   9.688   9.431   7.168  0.8136 -0.4062  0.4783
24159SOL    HW276266   9.810   9.485   7.097 -0.2757  0.8319 -0.5031
24160SOL     OW76267   1.107   4.597   6.986  0.0806  0.3951  0.3391
24160SOL    HW176268   1.183   4.555   6.946  0.1033 -0.2866  1.0804
24160SOL    HW276269   1.105   4.685   6.948  1.4493  0.5441  0.5719
24161SOL     OW76270   8.831   3.014   6.637 -0.1388  0.3878  0.6502
24161SOL    HW176271   8.880   3.000   6.556  0.8285 -0.7213  1.4119
24161SOL    HW276272   8.873   3.090   6.678 -2.1201  2.5117 -0.9648
24162SOL     OW76273   9.668   8.212   6.404  0.2988 -0.3206 -0.0623
24162SOL    HW176274   9.737   8.278   6.400  0.1580 -0.1664  0.0351
24162SOL    HW276275   9.688   8.161   6.483 -0.4470  0.5653  0.7325
24163SOL     OW76276   1.128   3.646   6.493 -0.0154 -0.1369  0.0809
24163SOL    HW176277   1.220   3.620   6.500 -0.2192 -0.9795 -0.2048
24163SOL    HW276278   1.109   3.644   6.400  0.3353  2.5116 -0.1158
24164SOL     OW76279   5.593   2.630   4.997  0.4532  0.0539  0.1165
24164SOL    HW176280   5.586   2.599   5.087 -0.8827 -2.1827 -0.6621
24164SOL    HW276281   5.509   2.670   4.978 -0.5879 -2.4877 -1.0712
24165SOL     OW76282   2.126   2.710   1.924 -0.1388 -0.2868 -0.5821
24165SOL    HW176283   2.199   2.653   1.900  0.1548 -0.6342  1.0089
24165SOL    HW276284   2.056   2.650   1.949 -1.0603  0.0464 -2.2649
24166SOL     OW76285   6.889   1.396   9.844  0.0257  0.3049  0.5439
24166SOL    HW176286   6.958   1.330   9.835  0.6885  0.9916  0.4491
24166SOL    HW276287   6.864   1.392   9.937 -2.0503 -2.1033 -0.0210
24167SOL     OW76288   1.919   7.007   6.924  0.0676 -0.8706  0.3518
24167SOL    HW176289   1.884   6.936   6.870 -0.8465  0.1647 -0.4668
24167SOL    HW276290   2.009   7.017   6.893  0.1840 -1.6075  0.4224
24168SOL     OW76291   5.535   0.790   2.853  0.4766  0.0599  0.3541
24168SOL    HW176292   5.599   0.857   2.875 -0.9129  0.6240  3.0560
24168SOL    HW276293   5.475   0.833   2.792 -0.0786  1.1293  1.6225
24169SOL     OW76294   2.869   6.849   8.480  0.3284  0.9228 -0.4323
24169SOL    HW176295   2.868   6.911   8.408 -0.7666  2.5217  0.9021
24169SOL    HW276296   2.927   6.889   8.546 -0.7080  0.7592  0.6143
24170SOL     OW76297   3.129   4.143   8.704  0.3596  0.1720  0.4036
24170SOL    HW176298   3.143   4.054   8.671 -0.3600  0.0447  0.4168
24170SOL    HW276299   3.196   4.155   8.770  1.3073  0.1300 -0.5274
24171SOL     OW76300  10.310   4.724  10.017 -0.0077  0.0996  0.0834
24171SOL    HW176301  10.221   4.749   9.990  0.0207 -0.3750 -0.4583
24171SOL    HW276302  10.311   4.737  10.112 -1.3066 -1.8424  0.4143
24172SOL     OW76303   5.661   6.036   6.860  0.1455 -0.1143 -0.4330
24172SOL    HW176304   5.695   6.062   6.946 -1.4740 -0.6238  0.4024
24172SOL    HW276305   5.731   6.060   6.799  0.2919  2.6924  0.6778
24173SOL     OW76306   7.459   9.071   8.194 -0.2083 -0.1269 -0.8508
24173SOL    HW176307   7.472   9.064   8.288 -1.1828  1.3559 -0.5669
24173SOL    HW276308   7.380   9.019   8.176 -0.2438 -0.0965 -0.7836
24174SOL     OW76309   9.302   0.919   5.384  0.5176  0.3494  0.0612
24174SOL    HW176310   9.285   1.013   5.375 -0.3896  0.2330  0.4279
24174SOL    HW276311   9.371   0.913   5.450  0.8163  0.7701 -0.2097
24175SOL     OW76312   0.146   8.784   3.350 -0.0259 -0.4046 -0.1020
24175SOL    HW176313   0.101   8.866   3.332  0.2670 -0.3477 -0.5882
24175SOL    HW276314   0.203   8.803   3.425  0.5627  0.0327 -0.6497
24176SOL     OW76315   4.974   0.808   8.474  0.1823 -0.2014  0.1636
24176SOL    HW176316   4.936   0.883   8.427 -2.4486 -0.7662  1.2051
24176SOL    HW276317   5.051   0.844   8.518 -0.4061  1.6300 -0.2082
24177SOL     OW76318   5.537   3.741   0.208  0.7468 -0.1604 -0.2395
24177SOL    HW176319   5.525   3.825   0.252  2.0217 -1.0412  1.9201
24177SOL    HW276320   5.448   3.712   0.188  0.1188  0.3639  1.6478
24178SOL     OW76321   7.444   4.621   7.257  0.4686 -0.2319  0.3545
24178SOL    HW176322   7.536   4.607   7.237 -0.0398 -1.0209 -1.8002
24178SOL    HW276323   7.427   4.712   7.230  0.7422  0.1276  1.3656
24179SOL     OW76324   3.479   6.862   5.841 -0.1012 -0.3538  0.2568
24179SOL    HW176325   3.411   6.796   5.856 -0.7869  0.6900  2.1276
24179SOL    HW276326   3.554   6.830   5.892 -1.2862  1.4666  3.4348
24180SOL     OW76327   6.176   5.643   2.120 -0.2374 -0.2489  0.1738
24180SOL    HW176328   6.210   5.626   2.033  0.8224  1.3912  0.2295
24180SOL    HW276329   6.240   5.604   2.179  0.0967  0.3924  0.2398
24181SOL     OW76330   3.191   6.022   1.180 -0.2500  0.0471 -0.2002
24181SOL    HW176331   3.281   6.041   1.207  0.2776  0.4710 -2.0764
24181SOL    HW276332   3.159   6.106   1.146 -0.7246 -0.5038 -1.1518
24182SOL     OW76333   1.387   5.597   9.527  0.5032  0.1495  1.1741
24182SOL    HW176334   1.338   5.631   9.453 -0.4364  1.2069  2.2342
24182SOL    HW276335   1.409   5.507   9.503  0.2013  0.4693 -0.3526
24183SOL     OW76336   0.958   7.725   2.446 -0.0377  0.1259  0.4141
24183SOL    HW176337   0.956   7.755   2.355 -0.9136  0.3529  0.4991
24183SOL    HW276338   0.900   7.786   2.493 -1.4383 -1.3644  0.6992
24184SOL     OW76339   5.237   9.570   6.239 -0.0920  0.0530  1.0692
24184SOL    HW176340   5.329   9.593   6.234  0.2379 -1.2014  1.0166
24184SOL    HW276341   5.235   9.476   6.222 -1.3199 -0.0489  1.6728
24185SOL     OW76342   9.163   5.079   7.694 -0.1087 -0.3718  0.3117
24185SOL    HW176343   9.183   5.060   7.602 -1.2218  1.3832 -0.3531
24185SOL    HW276344   9.091   5.020   7.716  1.6392 -2.4534  0.8576
24186SOL     OW76345   1.696   2.502   4.536  0.0221  0.3222 -0.4444
24186SOL    HW176346   1.778   2.496   4.585  0.2600  0.3011 -0.8395
24186SOL    HW276347   1.720   2.479   4.446 -1.0307 -3.2929  0.0209
24187SOL     OW76348   7.046   5.641   2.481  0.0500 -0.2292  0.0162
24187SOL    HW176349   7.019   5.553   2.508 -1.2621  0.1614  0.0496
24187SOL    HW276350   7.000   5.656   2.398 -0.6774  0.8594  0.5860
24188SOL     OW76351   3.493   1.154   8.137 -0.2008 -0.3437 -0.6331
24188SOL    HW176352   3.506   1.117   8.049  1.3583 -1.7412  0.1284
24188SOL    HW276353   3.439   1.088   8.182 -0.5611  0.1222 -0.3816
24189SOL     OW76354   2.129   1.029   2.139 -0.4773 -0.7603  0.6043
24189SOL    HW176355   2.103   0.946   2.100 -0.2148 -0.5668  0.0130
24189SOL    HW276356   2.221   1.016   2.162 -0.2875 -0.4545  0.0261
24190SOL     OW76357   7.547   3.425   0.793 -0.2110  0.0604  0.4122
24190SOL    HW176358   7.609   3.361   0.758  0.3090  0.8770 -0.2110
24190SOL    HW276359   7.526   3.481   0.718 -1.0182  0.3344  0.8359
24191SOL     OW76360   1.364   4.025   2.119  0.4721 -0.0740  0.1298
24191SOL    HW176361   1.277   4.003   2.152  0.9688  0.4688  1.8990
24191SOL    HW276362   1.422   3.958   2.156  0.7637 -0.8075 -1.5377
24192SOL     OW76363   8.405   0.711   5.485  0.2048  0.0272 -0.0268
24192SOL    HW176364   8.495   0.711   5.453 -0.2344 -2.3648 -1.4894
24192SOL    HW276365   8.362   0.782   5.437  0.7703 -0.2959 -1.0281
24193SOL     OW76366   8.571  10.329   3.180  0.3583  0.0693 -0.5759
24193SOL    HW176367   8.637  10.396   3.163  1.6512 -1.3261 -1.3032
24193SOL    HW276368   8.611  10.272   3.246 -0.7454  0.0416  0.0909
24194SOL     OW76369   3.658   5.756   4.192 -0.1405 -0.1224  0.3881
24194SOL    HW176370   3.591   5.806   4.144 -0.2689  0.2449  0.9499
24194SOL    HW276371   3.741   5.794   4.164 -0.0493 -1.4956 -1.3982
24195SOL     OW76372   7.682   3.364   6.307  0.0321 -0.2384  0.2101
24195SOL    HW176373   7.730   3.281   6.296  1.8166  0.8050 -0.2790
24195SOL    HW276374   7.715   3.420   6.237 -1.4353  0.7780  0.3015
24196SOL     OW76375   2.688   0.814   8.795 -0.4660  0.0791 -0.1932
24196SOL    HW176376   2.710   0.729   8.757  0.4277 -0.1858  0.8786
24196SOL    HW276377   2.759   0.832   8.856 -1.7598  0.5933  1.2126
24197SOL     OW76378   8.419   6.823   6.035 -0.0756  0.4396 -0.1437
24197SOL    HW176379   8.470   6.771   6.096  0.6039  0.0887 -0.9907
24197SOL    HW276380   8.343   6.769   6.015 -0.1425  0.4235  0.1570
24198SOL     OW76381   1.984   5.525   9.493  0.4833  0.1329  0.0667
24198SOL    HW176382   1.933   5.448   9.468  0.9347  0.0646 -0.6679
24198SOL    HW276383   2.044   5.494   9.560  0.1852  0.0094  0.2779
24199SOL     OW76384   4.090   2.601  10.056  0.6853  0.0826 -0.5255
24199SOL    HW176385   4.175   2.611  10.011  0.7893  0.4874 -0.2423
24199SOL    HW276386   4.033   2.563   9.990  1.4988 -1.6851 -0.2674
24200SOL     OW76387   5.931   2.922   0.730  0.0069 -0.2875  0.1886
24200SOL    HW176388   5.853   2.977   0.723  0.5429  0.8520  2.3730
24200SOL    HW276389   5.983   2.945   0.653  0.2983  2.5010  1.0999
24201SOL     OW76390   1.004   7.901   1.777  0.4825  0.1621  0.6115
24201SOL    HW176391   1.069   7.968   1.798  0.5667 -0.2581  1.7308
24201SOL    HW276392   1.037   7.822   1.820 -1.2841  0.1817  2.1086
24202SOL     OW76393   9.291   5.627   3.822 -0.0169 -0.1122 -0.4618
24202SOL    HW176394   9.341   5.698   3.862  2.1862 -1.8770  0.1996
24202SOL    HW276395   9.230   5.599   3.891 -0.0343  0.3385 -0.2916
24203SOL     OW76396   1.559   5.917   5.388 -0.3730 -0.9182  0.2840
24203SOL    HW176397   1.624   5.889   5.324 -0.5893  0.2086 -0.4501
24203SOL    HW276398   1.609   5.937   5.467  0.2942  0.6893 -0.5134
24204SOL     OW76399   2.460   3.209   8.804 -0.8551 -0.3687 -0.4884
24204SOL    HW176400   2.545   3.253   8.798 -0.7816 -0.1350  1.5941
24204SOL    HW276401   2.482   3.119   8.826 -1.1382 -0.2725  0.2006
24205SOL     OW76402   4.600   6.447   0.255 -0.0725 -0.1880  0.1852
24205SOL    HW176403   4.584   6.493   0.173 -1.0361  0.9938  1.0058
24205SOL    HW276404   4.513   6.428   0.290  0.2657 -2.9882 -0.2523
24206SOL     OW76405   9.544   1.366   4.269 -0.4715 -0.1666 -0.0898
24206SOL    HW176406   9.508   1.281   4.294 -0.2843  0.2314  1.6793
24206SOL    HW276407   9.475   1.407   4.217 -0.8631 -1.1013 -0.3196
24207SOL     OW76408   4.189   6.788   7.416 -0.3870 -0.2810  0.2000
24207SOL    HW176409   4.243   6.746   7.484 -1.3919  0.6730  1.6514
24207SOL    HW276410   4.099   6.774   7.445 -0.8417  0.1671 -0.9498
24208SOL     OW76411   6.286   9.150   0.180 -0.6083 -0.0299 -0.3076
24208SOL    HW176412   6.289   9.108   0.094 -0.4314 -0.7340  0.0380
24208SOL    HW276413   6.371   9.192   0.190  0.1355 -1.6358  0.3533
24209SOL     OW76414   4.351   8.881   5.343  0.3753  0.2373 -0.0131
24209SOL    HW176415   4.378   8.918   5.260  0.8182 -0.3908 -0.1614
24209SOL    HW276416   4.265   8.842   5.326  0.8192 -0.5913 -0.3923
24210SOL     OW76417   9.694   8.056   5.574  0.8623 -0.3520 -0.2436
24210SOL    HW176418   9.675   7.988   5.510  0.0772  0.2448 -0.6636
24210SOL    HW276419   9.649   8.027   5.654  0.1779 -0.1333 -0.5417
24211SOL     OW76420   3.114   0.021   6.748  0.5924  0.3814 -0.4125
24211SOL    HW176421   3.097   0.058   6.662  1.7186 -2.0747 -1.7894
24211SOL    HW276422   3.189  -0.038   6.735 -0.5147 -1.6880  1.7454
24212SOL     OW76423   9.296   4.469   0.570 -0.1022  0.3176 -0.0462
24212SOL    HW176424   9.320   4.444   0.481  0.5886 -3.6946  1.0338
24212SOL    HW276425   9.227   4.406   0.594 -1.4406  2.3377  1.7548
24213SOL     OW76426   9.736   5.848   1.190 -1.0148  0.0562  0.1399
24213SOL    HW176427   9.805   5.830   1.125 -1.9059 -0.4728 -0.6989
24213SOL    HW276428   9.762   5.929   1.232  0.4044 -0.4276  0.2343
24214SOL     OW76429   7.440   0.316   9.611 -0.6849 -0.1338 -0.1155
24214SOL    HW176430   7.403   0.380   9.550  0.1295  0.0268 -0.4518
24214SOL    HW276431   7.365   0.284   9.659 -1.7736 -2.0803 -2.8506
24215SOL     OW76432   2.541   4.593   6.799  0.4005 -0.1066  0.1349
24215SOL    HW176433   2.453   4.575   6.832 -0.0264  2.5378  0.6433
24215SOL    HW276434   2.594   4.608   6.877  0.2645  2.3892 -0.1482
24216SOL     OW76435   1.357   7.817   4.053  0.2197 -0.0003  0.1043
24216SOL    HW176436   1.322   7.753   4.114  1.8257  0.6555  1.8084
24216SOL    HW276437   1.444   7.785   4.031 -0.2145 -0.0807 -1.6906
24217SOL     OW76438   5.338   5.130   9.034 -0.8998 -0.5742  0.0985
24217SOL    HW176439   5.400   5.193   8.997 -0.2102 -1.3053 -0.0062
24217SOL    HW276440   5.350   5.138   9.129 -1.4101  0.0347  0.1223
24218SOL     OW76441   6.475   2.024   2.238 -0.7814 -0.0840  0.1910
24218SOL    HW176442   6.549   1.983   2.192 -0.6717  0.2815  0.0378
24218SOL    HW276443   6.412   2.043   2.169  0.6502  3.3120 -0.3641
24219SOL     OW76444   4.522   2.165   0.737  0.3538  0.0187 -0.2428
24219SOL    HW176445   4.593   2.190   0.796 -0.9275  2.3238  0.4477
24219SOL    HW276446   4.547   2.203   0.653 -0.5815  1.9190  0.2955
24220SOL     OW76447   9.638   3.381   7.089  0.1904 -0.0852 -0.4615
24220SOL    HW176448   9.552   3.339   7.078 -0.0567  0.0831  0.6834
24220SOL    HW276449   9.618   3.474   7.103  0.5377 -0.1128  0.2232
24221SOL     OW76450   0.513   8.823   6.196 -0.0763  0.1587 -0.1305
24221SOL    HW176451   0.524   8.774   6.115 -1.6724 -0.8828  0.2539
24221SOL    HW276452   0.419   8.833   6.206  0.1300  1.0956  1.1254
24222SOL     OW76453   8.643   4.433   9.571  0.8336 -0.0880  0.2042
24222SOL    HW176454   8.716   4.477   9.527  0.6437  0.7006  0.6552
24222SOL    HW276455   8.597   4.387   9.501  0.2650  1.5098 -0.5298
24223SOL     OW76456   8.745   0.855   6.326 -0.1765  0.2323 -0.3762
24223SOL    HW176457   8.698   0.914   6.385 -1.4441 -0.1067 -1.0088
24223SOL    HW276458   8.691   0.852   6.247 -0.0485 -1.5918 -0.4382
24224SOL     OW76459   9.725   5.135   6.370 -0.0747  0.4533 -0.3030
24224SOL    HW176460   9.745   5.082   6.293 -1.5403  2.3870 -2.1329
24224SOL    HW276461   9.634   5.115   6.390  0.3118 -0.0853  1.0264
24225SOL     OW76462   1.882   5.935   8.134  0.2866  0.5871 -0.3453
24225SOL    HW176463   1.870   5.840   8.128  1.8526  0.3317 -0.0392
24225SOL    HW276464   1.920   5.949   8.221 -1.4280  1.6998  0.2623
24226SOL     OW76465   3.300   0.574   7.134 -0.2899 -0.0387 -0.6418
24226SOL    HW176466   3.218   0.609   7.098 -0.8169 -1.0839 -0.5118
24226SOL    HW276467   3.363   0.644   7.124 -1.5995  1.4282  0.7393
24227SOL     OW76468   6.419   4.269   3.688 -0.3809 -0.1288 -0.1829
24227SOL    HW176469   6.374   4.246   3.769 -2.3546  2.1703 -0.4943
24227SOL    HW276470   6.478   4.340   3.712  1.4060 -1.5034 -0.2584
24228SOL     OW76471   8.542   2.187  10.068  0.0980  0.0499  0.7172
24228SOL    HW176472   8.551   2.092  10.061 -0.1771  0.0122  0.8842
24228SOL    HW276473   8.564   2.207  10.159  1.0958  0.2560  0.4492
24229SOL     OW76474   6.107   0.753   8.371  0.2021 -0.3220 -0.2713
24229SOL    HW176475   6.088   0.845   8.391 -0.6736 -0.1016 -1.8775
24229SOL    HW276476   6.200   0.743   8.390 -0.0075  0.4681  1.3562
24230SOL     OW76477   1.394   5.408   2.587  0.3255  0.2007  0.3171
24230SOL    HW176478   1.421   5.435   2.675  0.5859  2.9031 -0.5074
24230SOL    HW276479   1.476   5.391   2.541  0.1993 -0.9316  0.4890
24231SOL     OW76480   0.254   7.273   3.168 -0.0483 -0.3454 -0.3032
24231SOL    HW176481   0.280   7.288   3.077 -0.0586  1.4239 -0.0498
24231SOL    HW276482   0.228   7.360   3.200 -0.3109 -0.9868  1.3080
24232SOL     OW76483   8.127   4.950  10.298 -0.1060 -0.0579  0.4565
24232SOL    HW176484   8.050   4.897  10.318  1.3097 -1.2931  3.0536
24232SOL    HW276485   8.189   4.888  10.259  0.8193  0.1132  1.6207
24233SOL     OW76486   1.762   2.902   0.340  0.7108 -0.4680 -0.4869
24233SOL    HW176487   1.769   2.814   0.304 -2.6700 -0.6399 -0.9939
24233SOL    HW276488   1.755   2.889   0.435 -0.7690 -0.8952 -0.6271
24234SOL     OW76489   9.565   5.252   9.019  0.1499  0.4682  0.7200
24234SOL    HW176490   9.533   5.171   9.059 -0.7199  0.6992  0.4969
24234SOL    HW276491   9.511   5.321   9.058 -1.2422  0.6425 -1.3524
24235SOL     OW76492   6.529   1.812   2.068 -0.1570  0.1046 -0.4807
24235SOL    HW176493   6.596   1.819   2.000  0.7088  2.2445  0.5145
24235SOL    HW276494   6.446   1.819   2.020  0.3504 -0.5234 -1.5024
24236SOL     OW76495   9.908   0.110   6.626 -0.1292  0.2529  0.2957
24236SOL    HW176496   9.885   0.131   6.536 -0.0274  0.8528  0.4018
24236SOL    HW276497   9.879   0.187   6.676 -0.3543 -0.1532  0.7957
24237SOL     OW76498   5.678   5.669   4.008 -0.2142  0.2789  0.4950
24237SOL    HW176499   5.665   5.667   3.913 -1.3582  0.8586  0.6268
24237SOL    HW276500   5.732   5.592   4.026  1.3743  1.0202 -0.8045
24238SOL     OW76501   8.570   6.266   9.931 -0.1936  0.0384  0.1042
24238SOL    HW176502   8.619   6.209   9.872 -0.3516  1.1048 -1.1089
24238SOL    HW276503   8.634   6.332   9.959 -0.4456  0.3239  0.0184
24239SOL     OW76504   7.302   3.298   1.425  0.1171 -0.0841  0.0357
24239SOL    HW176505   7.281   3.391   1.425  0.7230  0.0901 -1.7566
24239SOL    HW276506   7.398   3.295   1.425  0.1837 -0.7889  2.7204
24240SOL     OW76507   8.413  10.291   4.600 -0.3259  0.0291  0.0214
24240SOL    HW176508   8.420  10.329   4.687 -0.1652 -0.0955  0.0648
24240SOL    HW276509   8.460  10.352   4.543 -0.7889  0.3243 -0.0471
24241SOL     OW76510   1.059   1.503   3.988 -0.2870 -0.0145 -0.2557
24241SOL    HW176511   1.055   1.468   3.899  2.1382 -1.4080  0.0934
24241SOL    HW276512   1.127   1.570   3.985 -0.7194  0.4711  0.4014
24242SOL     OW76513   8.317   7.224   4.354  0.0641 -0.3132 -1.0419
24242SOL    HW176514   8.316   7.258   4.264  0.0425  1.3219 -0.4393
24242SOL    HW276515   8.224   7.216   4.377  0.0030  2.2430 -0.1149
24243SOL     OW76516   0.493   6.611   3.811  0.1423  0.0383 -0.6531
24243SOL    HW176517   0.499   6.701   3.779  0.3761  0.3847  0.3104
24243SOL    HW276518   0.542   6.612   3.894 -0.7313 -0.7117 -0.1085
24244SOL     OW76519   0.861   4.440   8.376 -0.1303  0.7758  0.0226
24244SOL    HW176520   0.771   4.442   8.406 -0.3607  1.4046 -0.6673
24244SOL    HW276521   0.856   4.460   8.282  0.6626  0.1102 -0.1851
24245SOL     OW76522   7.060   1.854   4.617 -0.2813 -0.2032 -0.0832
24245SOL    HW176523   7.151   1.876   4.602 -0.3054 -0.0575 -0.0207
24245SOL    HW276524   7.057   1.759   4.612  0.4254 -0.4687  2.7864
24246SOL     OW76525   6.455   3.961   2.765 -0.2506  0.7678  0.1684
24246SOL    HW176526   6.541   3.919   2.764 -0.1908  0.8962 -0.4019
24246SOL    HW276527   6.394   3.888   2.753 -0.1011  0.9147 -1.8405
24247SOL     OW76528   1.289   1.433   1.296 -0.4473  0.3598  0.6494
24247SOL    HW176529   1.291   1.345   1.333 -0.7379 -0.5078 -1.2428
24247SOL    HW276530   1.207   1.435   1.246 -0.6050  1.8338  0.9399
24248SOL     OW76531   5.051   7.712   0.447 -0.0711  0.5588 -0.4093
24248SOL    HW176532   5.128   7.728   0.393  0.0454  0.0804 -0.3868
24248SOL    HW276533   4.991   7.664   0.390  0.5981 -1.1776  0.2778
24249SOL     OW76534   4.686   8.972   2.783  0.2668  0.0954 -0.3308
24249SOL    HW176535   4.687   8.899   2.845  1.2810  0.9745  0.7125
24249SOL    HW276536   4.623   9.034   2.818  0.5702  0.4300 -0.3624
24250SOL     OW76537   7.897   8.369   3.946  0.1815  0.0765 -0.0367
24250SOL    HW176538   7.859   8.323   3.871 -1.0035  1.2536 -0.1977
24250SOL    HW276539   7.879   8.312   4.021  0.3918 -0.5871 -0.4845
24251SOL     OW76540   0.426   0.845   4.794  0.4516  0.3743  0.5848
24251SOL    HW176541   0.448   0.844   4.887 -1.0705  2.8448  1.0769
24251SOL    HW276542   0.453   0.932   4.765 -0.3966  0.1631 -0.9345
24252SOL     OW76543   5.028   4.336   3.092 -0.3036  0.0608  0.7612
24252SOL    HW176544   5.076   4.351   3.174 -0.2976 -0.3278  0.8298
24252SOL    HW276545   4.998   4.245   3.098  0.7111 -0.3533 -0.2024
24253SOL     OW76546   3.840   4.678   3.708  0.0281  0.7978  0.0095
24253SOL    HW176547   3.934   4.661   3.700  0.2733  0.9753  1.9609
24253SOL    HW276548   3.799   4.611   3.655  1.2264 -0.4849  0.6250
24254SOL     OW76549   0.256   0.643   6.207 -0.0274  0.4398 -0.2932
24254SOL    HW176550   0.324   0.595   6.256  0.3105  0.7427 -0.4569
24254SOL    HW276551   0.206   0.688   6.275 -1.2484 -1.2402 -0.0100
24255SOL     OW76552   8.963   6.147   5.553  0.2403 -0.2724  0.7753
24255SOL    HW176553   9.021   6.218   5.524  1.2633  0.3291  3.8785
24255SOL    HW276554   8.883   6.191   5.581  0.1720 -0.5419  1.0089
24256SOL     OW76555   0.507   7.605   1.677 -0.2139 -0.5757  0.3298
24256SOL    HW176556   0.424   7.650   1.660 -2.1768 -4.3699 -1.2527
24256SOL    HW276557   0.484   7.537   1.740  0.9167 -3.4859 -2.2020
24257SOL     OW76558   9.880   1.812   2.541  0.5819  0.2816 -0.5625
24257SOL    HW176559   9.926   1.804   2.458  1.6851  1.2923 -0.0791
24257SOL    HW276560   9.854   1.905   2.545 -2.3322 -0.3908 -1.2145
24258SOL     OW76561   3.441   8.860  10.350 -0.1315 -0.4405  0.2872
24258SOL    HW176562   3.503   8.844  10.279 -1.3333 -1.0250 -0.6612
24258SOL    HW276563   3.373   8.915  10.310  0.3421  1.1749  1.6197
24259SOL     OW76564   2.492   6.942   4.716  0.2386  0.0545  0.3611
24259SOL    HW176565   2.433   6.898   4.777  2.2795  0.2663  2.6374
24259SOL    HW276566   2.537   6.871   4.671 -1.2189 -0.1049 -0.9167
24260SOL     OW76567   9.674   3.738   5.597 -0.2186 -0.1325  0.2693
24260SOL    HW176568   9.704   3.651   5.624 -0.9300 -1.3217 -2.4205
24260SOL    HW276569   9.736   3.765   5.529 -1.5071  0.2272 -0.8062
24261SOL     OW76570   8.324   7.855   1.507  0.3497 -0.3486 -0.4419
24261SOL    HW176571   8.412   7.892   1.520  0.0629  0.5446 -0.9760
24261SOL    HW276572   8.340   7.767   1.474  1.0607 -1.1025  1.7395
24262SOL     OW76573   2.146   8.092   1.027  0.4035  0.2837  0.2452
24262SOL    HW176574   2.207   8.028   1.065  1.6273  0.8957 -0.6236
24262SOL    HW276575   2.066   8.042   1.013  0.4188 -0.3437  2.1538
24263SOL     OW76576   6.704   2.786   0.104 -0.0374 -0.1638 -0.1191
24263SOL    HW176577   6.627   2.842   0.107 -1.5431 -2.0203 -1.6557
24263SOL    HW276578   6.669   2.697   0.093  2.3158 -1.0029 -1.5755
24264SOL     OW76579   3.231   3.062   5.074  0.4235 -0.0033  0.4105
24264SOL    HW176580   3.260   3.132   5.132  2.4423 -0.4651  0.0339
24264SOL    HW276581   3.188   2.999   5.131  2.2127 -0.3619  1.4184
24265SOL     OW76582   3.537  10.143   7.183  0.2735 -0.1982 -0.3729
24265SOL    HW176583   3.604  10.208   7.206  0.1183 -0.9253  2.5679
24265SOL    HW276584   3.459  10.171   7.230 -0.4887 -1.2400 -0.9838
24266SOL     OW76585   4.454   1.616   8.155  0.0055  0.2575  0.0869
24266SOL    HW176586   4.502   1.543   8.116 -3.1089 -1.7151 -0.4447
24266SOL    HW276587   4.461   1.687   8.091  0.3203 -0.7535 -1.0291
24267SOL     OW76588   7.881   5.463   9.754  0.5065 -0.2286  0.1790
24267SOL    HW176589   7.830   5.415   9.819  1.3140 -2.6210 -0.8638
24267SOL    HW276590   7.834   5.546   9.744 -0.7720 -0.6221  2.2889
24268SOL     OW76591   6.470   1.372   9.386 -0.0556 -0.3702  0.6370
24268SOL    HW176592   6.496   1.417   9.466  0.7260  0.4179 -0.0439
24268SOL    HW276593   6.408   1.433   9.344 -1.0933 -1.1313  1.0159
24269SOL     OW76594   4.516   3.358   0.990  0.0172 -0.8645 -0.1565
24269SOL    HW176595   4.551   3.422   1.051  0.4688 -0.5891 -0.6968
24269SOL    HW276596   4.482   3.410   0.917 -1.0990 -1.1491  0.1349
24270SOL     OW76597   0.487   4.330   2.472  0.4912  0.5448  0.4294
24270SOL    HW176598   0.500   4.418   2.506  1.3254  1.4687 -2.0416
24270SOL    HW276599   0.570   4.308   2.429  0.0721 -1.1776  0.4080
24271SOL     OW76600   6.398   4.812   2.924 -0.1970 -0.3439 -0.7102
24271SOL    HW176601   6.313   4.769   2.916 -1.2448  1.3776  0.4088
24271SOL    HW276602   6.391   4.888   2.866  0.4197  0.0357 -0.2940
24272SOL     OW76603   8.672   2.902   7.449 -0.3416  0.1318 -0.2947
24272SOL    HW176604   8.602   2.865   7.502 -0.8151  0.6152 -0.5624
24272SOL    HW276605   8.626   2.945   7.376  0.0693  2.4128  0.7096
24273SOL     OW76606   6.903   2.388   7.842  0.5105  0.1293  0.1713
24273SOL    HW176607   6.835   2.434   7.793  0.3933  0.7013  0.8496
24273SOL    HW276608   6.877   2.398   7.934 -0.5769 -2.8908  0.3173
24274SOL     OW76609   9.244   1.506   5.753  0.4009  0.0667  0.7339
24274SOL    HW176610   9.171   1.452   5.722  1.9428 -0.7127 -1.8096
24274SOL    HW276611   9.216   1.596   5.738 -0.1274 -0.2233 -0.0991
24275SOL     OW76612   0.811   3.637   2.369 -0.2818 -0.0931  0.3045
24275SOL    HW176613   0.773   3.602   2.449  1.2981 -2.1312  0.2582
24275SOL    HW276614   0.900   3.664   2.394 -0.5873  1.5811 -0.2525
24276SOL     OW76615   8.774   3.815   8.817 -0.5650  0.3637  0.3997
24276SOL    HW176616   8.711   3.885   8.832 -1.3268 -0.1057 -0.4720
24276SOL    HW276617   8.738   3.740   8.865 -0.0363  0.4228  0.8907
24277SOL     OW76618   0.569   9.056   5.993 -0.8978 -0.0766 -0.5146
24277SOL    HW176619   0.551   9.009   6.074 -0.0880  0.9040  0.2536
24277SOL    HW276620   0.494   9.114   5.981 -1.7928 -1.3539 -1.3477
24278SOL     OW76621   4.747   9.249   4.120  0.3367 -0.2507 -0.3483
24278SOL    HW176622   4.723   9.274   4.209  1.8089 -0.2772  0.0853
24278SOL    HW276623   4.730   9.155   4.115  0.6804 -0.3355  0.0563
24279SOL     OW76624   2.147   0.407   6.375  0.5657 -0.0307 -0.0316
24279SOL    HW176625   2.099   0.331   6.341  0.2120  0.8173 -1.5188
24279SOL    HW276626   2.155   0.390   6.469  0.5189 -1.9058 -0.3302
24280SOL     OW76627   3.423   2.173   3.449  0.2804 -0.1239 -0.2451
24280SOL    HW176628   3.329   2.175   3.431  0.1426  1.4394  0.5319
24280SOL    HW276629   3.429   2.182   3.544  1.2152 -1.1601 -0.1810
24281SOL     OW76630   0.700   6.307   8.958  0.0799 -0.0907  0.3804
24281SOL    HW176631   0.705   6.299   8.863 -0.7947 -0.4203  0.3537
24281SOL    HW276632   0.791   6.316   8.987  0.2593  1.6219 -0.6228
24282SOL     OW76633   7.658   7.342   2.314  0.4782  0.3534  0.3795
24282SOL    HW176634   7.570   7.374   2.293  0.2222 -0.5851 -0.0223
24282SOL    HW276635   7.687   7.299   2.234  1.9433  1.9652 -0.0281
24283SOL     OW76636   9.184   2.449   1.669  0.2364  0.4783 -0.0876
24283SOL    HW176637   9.146   2.374   1.715  0.4082  0.6294  0.3064
24283SOL    HW276638   9.108   2.499   1.638  0.1196  0.3138 -0.0659
24284SOL     OW76639   3.661   3.127   9.377  0.3529  0.4161  0.0562
24284SOL    HW176640   3.597   3.186   9.337  0.3421  0.1529 -0.3146
24284SOL    HW276641   3.611   3.081   9.445 -0.5724 -1.6325 -1.8484
24285SOL     OW76642   4.961   5.360   5.090 -0.3129  0.4665 -0.1998
24285SOL    HW176643   4.905   5.307   5.148 -0.0366 -0.4952 -0.7867
24285SOL    HW276644   4.912   5.364   5.008  0.1602  0.2070 -0.4981
24286SOL     OW76645   5.561   9.204   3.930  0.3040  0.0960 -0.5220
24286SOL    HW176646   5.558   9.293   3.896  1.8068  0.7217  0.8438
24286SOL    HW276647   5.472   9.186   3.959 -0.6927  0.0607 -3.3307
24287SOL     OW76648   9.635   4.428   5.997 -0.1650 -0.3065 -0.8408
24287SOL    HW176649   9.656   4.351   6.050  2.0461  1.1812  0.6018
24287SOL    HW276650   9.707   4.489   6.012 -2.6071  2.8118 -0.4944
24288SOL     OW76651   3.952   6.348  10.007  0.1072  0.3291  0.1673
24288SOL    HW176652   3.868   6.392  10.017  0.2653  1.1810 -1.8338
24288SOL    HW276653   4.016   6.419  10.002  0.6632 -0.2084 -0.5660
24289SOL     OW76654   5.915   4.388   4.378  0.2064 -0.0907 -0.0053
24289SOL    HW176655   5.969   4.409   4.302  0.0689  2.3709  0.4962
24289SOL    HW276656   5.825   4.408   4.351 -0.3250 -2.4268 -0.2318
24290SOL     OW76657   0.610   4.040   3.243  0.4179  1.1916  0.4370
24290SOL    HW176658   0.594   4.021   3.150 -1.9527 -1.2728  1.2057
24290SOL    HW276659   0.685   4.099   3.243  1.7732 -0.2722 -2.9590
24291SOL     OW76660   9.499   4.262   5.110  0.2727  0.4076 -0.1943
24291SOL    HW176661   9.421   4.225   5.069 -0.3806  2.3618 -0.8275
24291SOL    HW276662   9.516   4.206   5.186 -0.8167 -0.9592 -0.9193
24292SOL     OW76663   5.717   2.061  10.310 -0.2483  0.3584  0.9249
24292SOL    HW176664   5.722   1.978  10.358 -1.2103 -1.1567 -1.4598
24292SOL    HW276665   5.628   2.064  10.276 -0.1360  2.2579  0.6891
24293SOL     OW76666   0.051   8.825   9.832 -0.0893  0.5676 -0.3430
24293SOL    HW176667   0.076   8.886   9.763  0.4472  0.1099 -0.5602
24293SOL    HW276668   0.117   8.837   9.900  0.8127 -0.7160 -0.9597
24294SOL     OW76669   2.428   6.565   0.541  0.2832  0.3585 -0.0086
24294SOL    HW176670   2.358   6.629   0.549  0.5761  0.6607  0.1594
24294SOL    HW276671   2.410   6.501   0.610  0.7681  1.0137  0.7459
24295SOL     OW76672   1.658   1.164   0.133  0.1524  0.3576 -0.4677
24295SOL    HW176673   1.741   1.189   0.174  0.3521 -1.5531  0.4397
24295SOL    HW276674   1.605   1.129   0.205 -0.7813 -0.0390 -1.3155
24296SOL     OW76675   9.731   3.064   7.109 -0.0707  0.3783 -0.3244
24296SOL    HW176676   9.724   2.968   7.113  0.9028  0.3315  0.7024
24296SOL    HW276677   9.675   3.094   7.181 -1.2246  0.6606 -1.2944
24297SOL     OW76678   0.429   5.719   0.427  0.0491 -0.0552 -0.1656
24297SOL    HW176679   0.455   5.766   0.348 -1.0018  1.2657  0.2442
24297SOL    HW276680   0.397   5.634   0.395  1.0169 -0.1272 -1.0003
24298SOL     OW76681   4.364   8.284   7.833  0.4262 -0.3747  0.0968
24298SOL    HW176682   4.409   8.296   7.750 -0.4190 -0.0892 -0.3326
24298SOL    HW276683   4.305   8.210   7.818 -0.4199  0.2770  0.1326
24299SOL     OW76684  10.284   1.968   2.559 -0.2870 -0.0439 -0.0071
24299SOL    HW176685  10.226   2.041   2.580  1.0396  0.9340  0.4084
24299SOL    HW276686  10.281   1.912   2.637  0.7646  0.9938  0.8169
24300SOL     OW76687   5.437   1.191   6.344  0.6465  0.0730  0.3098
24300SOL    HW176688   5.400   1.218   6.259 -3.8547  1.1741  2.3357
24300SOL    HW276689   5.440   1.096   6.340 -0.0979  0.0778 -0.9109
24301SOL     OW76690   5.281   4.752   0.561 -0.9038 -0.0038  0.2570
24301SOL    HW176691   5.315   4.743   0.650  0.7078 -0.9487 -0.3964
24301SOL    HW276692   5.224   4.677   0.549 -0.5514 -0.2789  0.2748
24302SOL     OW76693   2.630   6.038   1.563 -0.0504 -0.0566  0.0619
24302SOL    HW176694   2.553   6.037   1.620 -0.6590 -0.5565 -0.7391
24302SOL    HW276695   2.604   6.093   1.489 -0.8146 -2.5515 -1.6970
24303SOL     OW76696   6.009   0.020   8.392  0.5846 -0.1607  0.1646
24303SOL    HW176697   5.963  -0.001   8.310 -0.1237 -0.6582  0.6831
24303SOL    HW276698   6.000   0.115   8.401  0.0624 -0.1968  0.0262
24304SOL     OW76699   4.005   7.938   1.844 -0.2312 -0.2079  0.4787
24304SOL    HW176700   3.936   7.887   1.888  0.3544 -0.4254  1.1773
24304SOL    HW276701   4.073   7.946   1.911  0.3058  0.2276 -0.1217
24305SOL     OW76702   5.725   8.161   1.698  0.3697  0.3549  0.3003
24305SOL    HW176703   5.698   8.138   1.609  0.8841 -0.1155  0.2605
24305SOL    HW276704   5.666   8.231   1.723  0.1145  0.3848 -0.3555
24306SOL     OW76705   8.107   7.978   7.482  0.5072 -0.2580 -0.2272
24306SOL    HW176706   8.110   7.947   7.573 -1.6397  0.0412  0.0009
24306SOL    HW276707   8.086   7.900   7.431 -2.0312  0.1703  0.0228
24307SOL     OW76708   3.448   8.917   5.526 -0.1156  0.0737  0.5040
24307SOL    HW176709   3.386   8.948   5.593 -0.2893 -2.2507  1.5035
24307SOL    HW276710   3.393   8.874   5.461  0.2828 -0.1316  0.3026
24308SOL     OW76711   6.660   3.886   7.719  0.6446  0.3517  0.4793
24308SOL    HW176712   6.629   3.974   7.697  0.4344 -0.0837 -1.1290
24308SOL    HW276713   6.584   3.829   7.709  1.5492 -0.5449 -2.3130
24309SOL     OW76714  10.152   2.784   4.272 -0.1403 -0.3779  0.5836
24309SOL    HW176715  10.061   2.760   4.292 -0.7725  2.1345  1.0956
24309SOL    HW276716  10.161   2.765   4.178 -1.5580  0.2863  0.2830
24310SOL     OW76717   0.422   1.525   3.939  0.4812 -0.1138  0.5302
24310SOL    HW176718   0.359   1.522   3.868 -0.7716  3.3726  1.2968
24310SOL    HW276719   0.399   1.450   3.995 -2.2369  0.3512  0.1592
24311SOL     OW76720   4.739   6.061   0.621  0.3611  0.2984  0.5426
24311SOL    HW176721   4.747   6.093   0.711 -0.2113  1.5014  0.1915
24311SOL    HW276722   4.721   6.139   0.569 -0.4330 -0.5196 -0.4675
24312SOL     OW76723  10.257   5.936   9.747 -0.7826 -0.4584  0.1800
24312SOL    HW176724  10.210   6.016   9.772 -0.4067  0.3179 -1.4541
24312SOL    HW276725  10.313   5.963   9.674  0.8589 -1.7789  0.8811
24313SOL     OW76726   7.001   2.487   1.192  0.2917 -0.6206  0.4437
24313SOL    HW176727   6.983   2.581   1.186  0.8392 -0.5774 -1.0579
24313SOL    HW276728   6.944   2.447   1.127  1.8726 -1.0165 -0.7669
24314SOL     OW76729   7.105   8.950   2.685 -0.0109 -0.4912 -0.1661
24314SOL    HW176730   7.141   8.929   2.772 -1.2336 -1.6689  0.0880
24314SOL    HW276731   7.056   9.030   2.699 -0.4011 -0.8046  0.2982
24315SOL     OW76732   6.750   0.073   9.110  0.4622  0.1267  0.0917
24315SOL    HW176733   6.824   0.083   9.050 -0.0601 -1.8848 -0.9894
24315SOL    HW276734   6.787   0.033   9.189  0.8704  1.1681  0.4357
24316SOL     OW76735   5.386   3.223   6.218 -0.3713  0.5800 -0.5587
24316SOL    HW176736   5.396   3.128   6.227 -0.8839  0.0846 -3.8551
24316SOL    HW276737   5.476   3.255   6.207 -0.3367  0.0399 -2.1284
24317SOL     OW76738   9.383   0.427   3.965 -0.3017  0.3016  0.7525
24317SOL    HW176739   9.467   0.391   3.936 -0.3041  0.4401  0.5768
24317SOL    HW276740   9.394   0.438   4.060 -0.6797 -1.2026  1.0002
24318SOL     OW76741   1.425   4.151   3.195 -0.4007  0.0845  0.6893
24318SOL    HW176742   1.477   4.095   3.253 -1.0310 -1.6146 -0.3345
24318SOL    HW276743   1.347   4.171   3.246  0.2951  0.9760  1.4618
24319SOL     OW76744   2.553   6.189   6.993  0.0174  0.0496 -0.3743
24319SOL    HW176745   2.559   6.258   6.927 -2.0534 -0.7954 -1.5339
24319SOL    HW276746   2.512   6.233   7.068  0.9903  0.6380 -0.1596
24320SOL     OW76747   9.132   2.788  10.049 -0.2599  0.2289  0.2094
24320SOL    HW176748   9.199   2.856  10.045 -1.4717  1.3925 -1.8434
24320SOL    HW276749   9.091   2.799  10.135 -1.3228  3.0421 -0.5763
24321SOL     OW76750   8.499   2.899   5.815  0.1639 -0.4459  0.3904
24321SOL    HW176751   8.481   2.946   5.896 -0.9051 -0.7584  0.3483
24321SOL    HW276752   8.584   2.857   5.830  1.5795  2.1146  0.1122
24322SOL     OW76753   8.773   9.403   7.926 -0.0340  0.3309 -0.6796
24322SOL    HW176754   8.864   9.397   7.955 -0.0917  1.5649 -0.2003
24322SOL    HW276755   8.723   9.418   8.006 -0.5929  0.3351 -1.0224
24323SOL     OW76756   0.680   6.644   7.036  0.2080 -0.2545  0.4569
24323SOL    HW176757   0.627   6.661   6.959  0.3034 -0.6232  0.3075
24323SOL    HW276758   0.703   6.731   7.069 -0.4587 -0.0921  0.5079
24324SOL     OW76759   9.200   3.441   6.772 -0.4660 -0.1856  0.9002
24324SOL    HW176760   9.122   3.476   6.730 -0.7425 -1.5245  0.2453
24324SOL    HW276761   9.259   3.418   6.700 -0.0068 -0.4037  1.3302
24325SOL     OW76762   6.544   1.018   0.266 -0.0592  0.1443 -0.2854
24325SOL    HW176763   6.581   1.069   0.337  1.3694  0.1934 -1.0217
24325SOL    HW276764   6.568   1.065   0.186  0.4073 -1.1166 -0.9287
24326SOL     OW76765   3.005   5.918   3.157 -0.4185 -0.2136  0.0388
24326SOL    HW176766   2.962   5.999   3.183 -0.5543 -0.1510 -0.3726
24326SOL    HW276767   3.067   5.944   3.088 -0.6963 -0.5026 -0.3245
24327SOL     OW76768   8.341   7.372   3.170  0.8915  0.3086  0.5105
24327SOL    HW176769   8.325   7.414   3.086 -1.7438 -1.8561 -0.1677
24327SOL    HW276770   8.436   7.356   3.171  0.7884 -1.5108 -3.0547
24328SOL     OW76771   8.377   0.184   0.164 -0.1737  0.0446 -0.2597
24328SOL    HW176772   8.397   0.095   0.193 -1.0466 -0.1668 -0.2867
24328SOL    HW276773   8.371   0.235   0.244 -0.2971 -0.0530 -0.2070
24329SOL     OW76774   8.512   2.942   2.053 -0.0804  0.0151 -0.0418
24329SOL    HW176775   8.480   3.032   2.050  0.3318  0.2066  0.9127
24329SOL    HW276776   8.598   2.948   2.094 -0.7527 -0.9889  1.6111
24330SOL     OW76777   0.129   1.630   4.978 -0.5896  0.1766  0.4639
24330SOL    HW176778   0.180   1.550   4.985 -1.2912 -0.2370  0.9682
24330SOL    HW276779   0.149   1.678   5.059 -0.1595  0.5272  0.1564
24331SOL     OW76780   4.628   4.706   3.465 -0.1265  0.3020  0.2333
24331SOL    HW176781   4.547   4.705   3.415 -0.6550 -0.3199  1.0560
24331SOL    HW276782   4.689   4.759   3.414 -0.8934  0.3445 -0.6463
24332SOL     OW76783   4.493   3.984   6.028  0.6577  0.4271  0.1890
24332SOL    HW176784   4.449   3.917   5.977  2.2802  0.2423 -1.0625
24332SOL    HW276785   4.494   4.061   5.971  0.0713  1.0808  1.0432
24333SOL     OW76786   8.644   5.440   2.070 -0.0109  0.2628  0.6971
24333SOL    HW176787   8.599   5.490   2.137 -0.2826 -1.4532  1.8704
24333SOL    HW276788   8.576   5.415   2.008  0.0877  1.1089  0.2288
24334SOL     OW76789   5.735   1.687   8.381 -0.7123 -0.2738 -0.5813
24334SOL    HW176790   5.721   1.709   8.473  2.1212 -0.8112  0.0713
24334SOL    HW276791   5.694   1.760   8.333  0.5285  1.7389  1.2279
24335SOL     OW76792   3.514   9.536   4.521  0.2805  0.0826 -0.8881
24335SOL    HW176793   3.550   9.467   4.576 -1.5615  0.1552  0.5280
24335SOL    HW276794   3.532   9.617   4.569 -0.3897  0.2532 -0.9034
24336SOL     OW76795  10.014   3.606   6.673  0.4887 -0.1851 -0.2279
24336SOL    HW176796  10.088   3.583   6.729 -0.3571 -1.1207  0.5492
24336SOL    HW276797  10.050   3.605   6.584  1.5319 -0.0471  0.1775
24337SOL     OW76798   6.983   9.963   4.093  0.4218 -0.0819  0.4415
24337SOL    HW176799   6.947   9.874   4.101 -0.2701  0.0946 -0.5336
24337SOL    HW276800   6.914  10.020   4.126 -0.5276  0.3020 -1.9692
24338SOL     OW76801   4.803   4.999   2.841 -0.5712  0.0580 -1.0341
24338SOL    HW176802   4.897   5.004   2.828 -0.1920  0.7977  1.4593
24338SOL    HW276803   4.779   4.912   2.807  1.0367 -0.2446 -1.4812
24339SOL     OW76804   1.538   0.727   5.955  0.6943 -0.2927  0.4559
24339SOL    HW176805   1.558   0.636   5.934 -1.2404 -0.7453  0.3232
24339SOL    HW276806   1.487   0.722   6.036  1.8001  0.8117  1.2418
24340SOL     OW76807   9.779   9.671   4.692  0.7754  0.0365  0.6288
24340SOL    HW176808   9.853   9.627   4.651  0.0491 -0.4610 -0.2031
24340SOL    HW276809   9.716   9.683   4.620 -0.4930 -0.7491  1.5650
24341SOL     OW76810   1.715   0.011   0.690  0.0340 -0.6257  0.1531
24341SOL    HW176811   1.752   0.075   0.630 -0.3674 -1.5663 -1.1393
24341SOL    HW276812   1.731  -0.073   0.648 -2.1653 -1.1711  0.2741
24342SOL     OW76813   1.149   3.052   4.671  0.0787  0.1916 -0.2966
24342SOL    HW176814   1.147   3.065   4.577  1.5842  0.3929 -0.3253
24342SOL    HW276815   1.196   3.128   4.706  2.0659 -1.2126  0.2919
24343SOL     OW76816   7.616   7.145   8.645  0.3564 -0.0913 -0.2541
24343SOL    HW176817   7.700   7.128   8.687 -0.2017  0.0076  0.9278
24343SOL    HW276818   7.589   7.060   8.610  0.1670 -0.4859  0.8235
24344SOL     OW76819   8.729   5.322   0.865  0.1558 -0.1286 -0.1910
24344SOL    HW176820   8.650   5.342   0.815 -1.5941 -1.8143  1.7427
24344SOL    HW276821   8.742   5.228   0.853  0.6130 -0.2706  1.2168
24345SOL     OW76822   1.174   5.060   6.879  0.1402 -0.7086 -0.1527
24345SOL    HW176823   1.180   4.972   6.840 -1.4086 -0.4821 -0.9556
24345SOL    HW276824   1.173   5.119   6.804 -1.3799 -0.1634  0.2770
24346SOL     OW76825   6.192   2.967   5.115  0.0022 -0.2572 -0.1092
24346SOL    HW176826   6.161   3.035   5.056 -0.2678 -0.4548 -0.1984
24346SOL    HW276827   6.232   2.902   5.057 -1.0614 -0.8870 -0.1763
24347SOL     OW76828   2.084   0.599   2.279  0.5588  0.0463 -0.0634
24347SOL    HW176829   2.102   0.510   2.247  0.5652  0.6320 -1.7760
24347SOL    HW276830   2.004   0.589   2.331  0.2076 -0.8800 -0.7334
24348SOL     OW76831   0.817   3.376   0.110  0.1603 -0.4018  0.3996
24348SOL    HW176832   0.846   3.305   0.166 -0.6088 -0.5133  0.6760
24348SOL    HW276833   0.722   3.366   0.106 -0.0380  1.0092  0.9928
24349SOL     OW76834   1.327   8.576   2.318  0.1308 -0.0228  0.4120
24349SOL    HW176835   1.275   8.656   2.311 -0.5500 -0.4720  0.1773
24349SOL    HW276836   1.304   8.526   2.239  0.1072 -0.6991  0.8369
24350SOL     OW76837   9.883   5.711   4.501  0.4838 -0.2175 -0.0867
24350SOL    HW176838   9.833   5.657   4.441 -0.4687  1.0010 -0.4292
24350SOL    HW276839   9.944   5.650   4.543 -0.9733 -1.6777  0.0225
24351SOL     OW76840   2.356   5.323   6.477 -0.3457 -0.3673 -0.1576
24351SOL    HW176841   2.409   5.245   6.464 -2.0633 -1.6066 -0.0716
24351SOL    HW276842   2.330   5.350   6.389 -0.9948 -0.8147 -0.1111
24352SOL     OW76843   9.443   2.822   5.141  0.2354  0.2638  0.2189
24352SOL    HW176844   9.398   2.760   5.084  1.2968  0.5967 -1.0354
24352SOL    HW276845   9.525   2.778   5.163  1.1810  1.3387 -1.0171
24353SOL     OW76846   7.699   4.200   5.434  0.2692  0.3129 -0.4161
24353SOL    HW176847   7.607   4.224   5.438  0.2084  0.7185 -2.9335
24353SOL    HW276848   7.739   4.251   5.505 -1.2347  1.1255 -0.1061
24354SOL     OW76849   8.023   1.292   0.837 -0.1400  0.1360 -0.6651
24354SOL    HW176850   8.104   1.329   0.873 -0.3990  0.8969 -0.8609
24354SOL    HW276851   7.976   1.367   0.800 -1.2159 -0.1927 -0.0195
24355SOL     OW76852   5.013   7.993   9.956 -0.1304  0.3441  0.5280
24355SOL    HW176853   4.941   8.052   9.931  0.1862 -0.0574 -1.4789
24355SOL    HW276854   5.017   8.000  10.052  0.4035  4.2189  0.3832
24356SOL     OW76855   9.568   9.545  10.071 -0.1528 -0.4930  0.2460
24356SOL    HW176856   9.604   9.458  10.083 -1.8505 -1.1063  1.2168
24356SOL    HW276857   9.506   9.536   9.998  1.7708  0.6357 -1.6729
24357SOL     OW76858   4.925   5.022   5.895  0.3385  0.4713 -0.2169
24357SOL    HW176859   4.866   4.946   5.900  0.0143  0.6903 -0.6375
24357SOL    HW276860   4.888   5.076   5.825  1.1631  0.5113 -0.6372
24358SOL     OW76861   8.991   6.733   9.894 -0.1039 -0.0305 -0.0146
24358SOL    HW176862   8.971   6.688   9.812  1.0797 -1.2153  0.3280
24358SOL    HW276863   8.953   6.678   9.962 -1.6972  1.2967  0.2483
24359SOL     OW76864   5.854   0.752   5.674 -0.0434  0.2230  0.0608
24359SOL    HW176865   5.822   0.838   5.702 -1.9861  0.0335 -1.3589
24359SOL    HW276866   5.902   0.718   5.749  0.2860  2.3004  0.8501
24360SOL     OW76867   4.929   3.430   3.021  0.2644  0.2178 -0.0500
24360SOL    HW176868   4.879   3.465   3.094 -3.1074 -2.1141 -0.9651
24360SOL    HW276869   4.973   3.505   2.982 -0.9313  2.1304  2.0994
24361SOL     OW76870   3.463   6.258   0.743  0.1796  0.4344 -0.1119
24361SOL    HW176871   3.429   6.256   0.653 -0.2910 -0.4052  0.0731
24361SOL    HW276872   3.499   6.346   0.753  3.6813 -0.5509 -2.3653
24362SOL     OW76873   8.858   3.008   3.387 -0.9004 -0.4602  0.3796
24362SOL    HW176874   8.854   3.005   3.291  0.1933 -1.4366  0.3537
24362SOL    HW276875   8.928   3.069   3.407  0.5097 -2.0602  0.5024
24363SOL     OW76876   9.759   8.061   9.744  0.3089 -0.4266  0.0847
24363SOL    HW176877   9.761   8.052   9.649  2.4907 -1.4954  0.1867
24363SOL    HW276878   9.828   8.125   9.763  0.4380 -0.8217  0.9866
24364SOL     OW76879   7.863   7.315   4.139  0.0209  0.0226  0.1420
24364SOL    HW176880   7.886   7.241   4.084 -0.8668 -0.4259  0.3611
24364SOL    HW276881   7.905   7.390   4.097 -1.4681 -0.1338 -1.7522
24365SOL     OW76882   2.293   2.004   3.930  0.1095  0.3733 -0.0735
24365SOL    HW176883   2.213   1.989   3.880 -0.7475  3.5121  0.1372
24365SOL    HW276884   2.279   2.088   3.974  2.9344  0.3076  1.2070
24366SOL     OW76885   7.770   7.662   5.568  0.0786  0.3072  0.2375
24366SOL    HW176886   7.803   7.700   5.486 -1.2268  2.4423  0.6292
24366SOL    HW276887   7.819   7.708   5.637  0.3492 -0.6425  0.6911
24367SOL     OW76888   5.800   2.390   2.956 -0.0146  0.1424  0.2540
24367SOL    HW176889   5.713   2.400   2.993 -1.3749 -1.1391 -2.3751
24367SOL    HW276890   5.814   2.295   2.951 -0.0834  0.2072 -2.7010
24368SOL     OW76891   1.670   3.415   1.483 -0.6778  0.1765 -0.5017
24368SOL    HW176892   1.671   3.504   1.448 -2.0696 -0.3839 -2.0469
24368SOL    HW276893   1.591   3.411   1.537 -0.7299 -0.1972 -0.6032
24369SOL     OW76894   7.235   3.500   3.299  0.1977  0.1712  0.2070
24369SOL    HW176895   7.196   3.569   3.246 -1.6843 -0.2066  0.9972
24369SOL    HW276896   7.165   3.475   3.360  0.6191 -2.7606 -0.3736
24370SOL     OW76897   3.256   5.050   0.887  0.2526 -0.0530  0.0082
24370SOL    HW176898   3.266   5.132   0.838  0.5706 -0.8280 -1.2667
24370SOL    HW276899   3.235   5.078   0.977  2.1054  1.4455  0.0267
24371SOL     OW76900   0.487   0.399   8.630 -0.2969 -0.1774 -0.5026
24371SOL    HW176901   0.519   0.406   8.540  0.9368  0.6287 -0.0188
24371SOL    HW276902   0.546   0.336   8.671 -0.3102  0.1150 -0.0309
24372SOL     OW76903   4.165   0.967   7.556 -0.1238  0.1051  0.1410
24372SOL    HW176904   4.194   0.998   7.641 -2.7888 -0.9032  1.5512
24372SOL    HW276905   4.220   0.891   7.537  0.7195  0.5398  0.8098
24373SOL     OW76906   9.880   6.428   0.393  0.1378  0.0283 -0.7152
24373SOL    HW176907   9.797   6.435   0.441  1.6069 -0.7396  2.1731
24373SOL    HW276908   9.906   6.518   0.376 -0.6668  0.3144 -0.5000
24374SOL     OW76909  10.167   2.629   1.987  0.5221 -0.8184 -0.5586
24374SOL    HW176910  10.135   2.695   2.049  2.0670 -0.4893 -0.0602
24374SOL    HW276911  10.118   2.646   1.907  1.9193  1.9673 -0.9180
24375SOL     OW76912   9.794  10.281   7.496  0.4433  0.0546 -0.5743
24375SOL    HW176913   9.816  10.300   7.405  0.0382  0.6188 -0.5570
24375SOL    HW276914   9.703  10.309   7.506  0.5091  0.0759  0.0214
24376SOL     OW76915   7.817   5.770   2.714 -0.2764  0.6446 -0.3013
24376SOL    HW176916   7.748   5.720   2.758  0.4814  1.0639  1.4682
24376SOL    HW276917   7.872   5.705   2.672 -0.0646  0.0580  0.8444
24377SOL     OW76918   4.665   6.738   9.656 -0.9102 -0.2287 -0.2315
24377SOL    HW176919   4.708   6.732   9.571  3.0321 -0.0072  1.4883
24377SOL    HW276920   4.697   6.821   9.692 -1.9316 -0.6324  1.7352
24378SOL     OW76921   4.694   1.179   3.039  0.1935 -0.0203 -1.5186
24378SOL    HW176922   4.780   1.146   3.015  0.3712 -1.6568  0.9201
24378SOL    HW276923   4.633   1.110   3.012  0.1445 -0.7226  0.2462
24379SOL     OW76924   8.743   2.776   5.911  0.6030 -0.2512  0.4880
24379SOL    HW176925   8.772   2.692   5.876  0.2616  0.5033 -1.7956
24379SOL    HW276926   8.703   2.755   5.995 -0.0103 -2.4621 -0.2915
24380SOL     OW76927   0.002   5.991   8.175 -0.3766  0.1423  0.3258
24380SOL    HW176928   0.032   6.025   8.091 -0.0404  1.4981  0.9654
24380SOL    HW276929   0.080   5.954   8.217 -0.6171 -0.8848 -0.0926
24381SOL     OW76930   6.918   3.878   2.859  0.3269 -0.0906  0.4140
24381SOL    HW176931   6.898   3.927   2.939  2.8072  0.4305  0.8065
24381SOL    HW276932   6.832   3.855   2.822 -0.8823  1.2111  2.2539
24382SOL     OW76933   7.346   9.827   1.899  0.5553 -0.5528  0.1564
24382SOL    HW176934   7.272   9.845   1.842  0.7237  0.0513  0.1229
24382SOL    HW276935   7.333   9.737   1.929 -0.7898 -0.0902  1.0420
24383SOL     OW76936   9.337   6.710   7.860  0.5253 -0.3661 -0.6440
24383SOL    HW176937   9.417   6.756   7.884  0.0914  0.2386 -0.3430
24383SOL    HW276938   9.310   6.750   7.777 -0.5070  0.7903  0.2141
24384SOL     OW76939   3.594   2.707   0.524  0.0559  0.0210  0.3003
24384SOL    HW176940   3.680   2.695   0.564  0.6029 -0.1494 -0.8620
24384SOL    HW276941   3.608   2.685   0.432 -1.6050 -1.6237  0.3837
24385SOL     OW76942   4.664   4.296   5.327  0.0203 -0.0298 -0.6941
24385SOL    HW176943   4.655   4.240   5.404  0.7367  0.1395 -0.4893
24385SOL    HW276944   4.577   4.293   5.286  0.2031 -1.7935 -1.0363
24386SOL     OW76945   2.406   3.994   7.662 -0.0729 -0.0919 -0.0151
24386SOL    HW176946   2.334   4.047   7.628 -0.7156 -1.8208 -1.4543
24386SOL    HW276947   2.457   3.970   7.585  1.9677  0.9054  0.9482
24387SOL     OW76948   8.823   2.584   3.774  0.3709 -0.4644 -0.8808
24387SOL    HW176949   8.884   2.602   3.702  2.2343  0.7582  0.8970
24387SOL    HW276950   8.843   2.494   3.800  2.2557  0.2534  0.3536
24388SOL     OW76951   1.583   1.783   7.040 -0.1576  0.1201  0.2334
24388SOL    HW176952   1.502   1.821   7.006  0.1466  0.6563  0.0933
24388SOL    HW276953   1.618   1.849   7.099 -0.4697 -0.6337  1.2988
24389SOL     OW76954   1.819   5.231   4.388 -0.1796 -0.6420  0.3629
24389SOL    HW176955   1.753   5.201   4.325  0.0602  0.5196 -0.4831
24389SOL    HW276956   1.768   5.260   4.464 -0.8522  1.7031 -0.8733
24390SOL     OW76957   1.600   5.412   6.937  0.6857  0.4982 -0.2035
24390SOL    HW176958   1.577   5.446   6.850 -2.8953  1.1566  0.8344
24390SOL    HW276959   1.617   5.319   6.923  3.4583  1.1706 -2.0123
24391SOL     OW76960   6.233   8.273   4.188 -0.0151  0.3286  0.0852
24391SOL    HW176961   6.261   8.356   4.225  0.5738  1.4396 -2.6560
24391SOL    HW276962   6.142   8.288   4.161  0.1963  0.2159 -0.7184
24392SOL     OW76963   8.631  10.263   3.879  0.3304 -0.3045 -0.3884
24392SOL    HW176964   8.557  10.323   3.882  0.8252  0.2838  0.3728
24392SOL    HW276965   8.636  10.227   3.968  1.5154  0.3734 -0.1574
24393SOL     OW76966   7.823   6.811   0.833 -0.5669 -0.0356  0.1013
24393SOL    HW176967   7.807   6.723   0.867 -0.5828 -1.5625 -3.3933
24393SOL    HW276968   7.918   6.813   0.816 -0.7971 -0.0776 -1.3607
24394SOL     OW76969   6.517   6.952   8.239 -0.0465 -0.5064  0.1899
24394SOL    HW176970   6.574   6.876   8.233 -0.1469 -0.5010 -0.8961
24394SOL    HW276971   6.571   7.020   8.281  0.8084 -0.4527 -0.9573
24395SOL     OW76972   9.845   0.788   8.491  0.1661  0.2123 -0.2251
24395SOL    HW176973   9.790   0.734   8.435 -2.1264  0.6395  1.4516
24395SOL    HW276974   9.895   0.725   8.543  2.5268 -0.1865 -2.7852
24396SOL     OW76975   7.275   1.623   2.979  0.2683  0.4386 -0.4219
24396SOL    HW176976   7.319   1.648   3.060  2.2530  1.4496 -1.7260
24396SOL    HW276977   7.195   1.579   3.008  0.3949  1.6300  2.0580
24397SOL     OW76978   7.668   7.159   0.567  0.0605  0.2345  0.1463
24397SOL    HW176979   7.619   7.093   0.517 -0.5429 -1.0349  2.3143
24397SOL    HW276980   7.656   7.240   0.517 -0.7099 -0.8950 -1.6085
24398SOL     OW76981   9.775   9.893   1.819  0.1696 -0.1337 -0.0158
24398SOL    HW176982   9.729   9.852   1.893  0.5441 -0.8318 -0.1641
24398SOL    HW276983   9.705   9.931   1.766 -0.0197  1.6069  1.4053
24399SOL     OW76984   3.743   8.459   0.118 -0.4142 -0.6151 -0.5602
24399SOL    HW176985   3.649   8.478   0.122 -0.0828  1.0165  2.7704
24399SOL    HW276986   3.757   8.396   0.188  1.1760  0.3839  0.0725
24400SOL     OW76987   8.323   6.953   9.693 -0.0578  0.0182 -0.9657
24400SOL    HW176988   8.354   6.903   9.618  3.0501  0.6543 -0.2416
24400SOL    HW276989   8.363   7.039   9.684 -1.0309  0.6838  0.5228
24401SOL     OW76990  10.124   8.631   6.582 -0.2695  0.3367  0.2532
24401SOL    HW176991  10.163   8.611   6.667 -0.0565 -0.4511 -0.0213
24401SOL    HW276992  10.179   8.701   6.547  1.1089 -0.9477 -0.2478
24402SOL     OW76993   7.851   6.882   0.536  0.1590 -0.1026 -0.5044
24402SOL    HW176994   7.759   6.903   0.519  0.4042  0.5479 -1.0151
24402SOL    HW276995   7.856   6.878   0.632 -0.1832  0.8327 -0.4430
24403SOL     OW76996   6.476   5.599   3.848  0.1679  0.0111  0.1635
24403SOL    HW176997   6.462   5.514   3.806  0.7899 -0.1007  0.1704
24403SOL    HW276998   6.563   5.626   3.818 -0.1470  0.7914 -0.0847
24404SOL     OW76999   7.861   7.710   3.196  0.0894 -0.6949  0.4054
24404SOL    HW177000   7.868   7.779   3.130 -1.1155 -0.0693  0.8908
24404SOL    HW277001   7.767   7.698   3.208  0.2209  0.4454  3.2383
24405SOL     OW77002   8.380   7.288   1.471 -0.4789  0.1798  0.0266
24405SOL    HW177003   8.383   7.316   1.380  0.2075  1.1117  0.3140
24405SOL    HW277004   8.289   7.263   1.486 -0.1143 -2.3622 -1.5667
24406SOL     OW77005   2.701   9.787   9.461 -0.0272  0.5434 -0.1074
24406SOL    HW177006   2.747   9.870   9.449  2.5687 -0.7696  0.1349
24406SOL    HW277007   2.679   9.759   9.372  3.2909 -0.6504 -0.7027
24407SOL     OW77008   7.495   6.095   1.140 -0.2187 -0.3661 -0.0041
24407SOL    HW177009   7.547   6.169   1.109  0.6865 -0.8255  0.4084
24407SOL    HW277010   7.426   6.136   1.193 -0.4448  0.2581 -0.7523
24408SOL     OW77011   5.894   0.175   7.983 -0.2299 -0.2172 -0.2045
24408SOL    HW177012   5.919   0.268   7.976 -1.8742  0.2140 -0.7314
24408SOL    HW277013   5.839   0.159   7.907  0.0364 -1.6568 -0.1259
24409SOL     OW77014   7.458   9.136   9.879 -0.3196 -0.0869  0.0829
24409SOL    HW177015   7.527   9.178   9.828 -0.5786  0.4683  0.1855
24409SOL    HW277016   7.465   9.175   9.966 -0.7819 -0.0095  0.0859
24410SOL     OW77017   2.315   0.170   3.980 -0.0182  0.8710  0.0039
24410SOL    HW177018   2.294   0.080   3.955  0.5503  0.6477  0.3126
24410SOL    HW277019   2.373   0.162   4.056 -1.7831  1.5409  1.4865
24411SOL     OW77020   3.710   4.454   8.041 -0.2400  0.0354 -0.0269
24411SOL    HW177021   3.721   4.364   8.011  0.0252  0.2765 -0.6628
24411SOL    HW277022   3.799   4.488   8.050 -0.3113 -0.0721  1.1709
24412SOL     OW77023   6.021   6.228   6.446  0.3796  0.0423  0.2827
24412SOL    HW177024   6.082   6.177   6.392 -1.4443 -2.4240  0.3553
24412SOL    HW277025   5.948   6.247   6.387  0.2154  1.0293  0.7824
24413SOL     OW77026   6.827   4.957   3.676 -0.7870  0.2586  0.2150
24413SOL    HW177027   6.872   4.878   3.649 -0.7279  0.0018  1.0288
24413SOL    HW277028   6.869   4.982   3.759 -1.4341  0.5998  0.4525
24414SOL     OW77029   4.664   0.369   0.171 -0.0669  0.3169  0.1790
24414SOL    HW177030   4.595   0.352   0.107 -1.1452  0.6257  1.2213
24414SOL    HW277031   4.735   0.311   0.146 -1.1144 -0.7930 -0.2987
24415SOL     OW77032  10.250   6.347   2.706  1.0375 -0.1879 -0.1939
24415SOL    HW177033  10.290   6.278   2.654  0.6932 -0.8275  0.3672
24415SOL    HW277034  10.251   6.313   2.796  0.4290  0.3346  0.0209
24416SOL     OW77035   7.907   9.962   7.126 -0.1251  0.2704  0.6592
24416SOL    HW177036   7.978   9.955   7.190  1.3751  0.5211 -0.9225
24416SOL    HW277037   7.912  10.052   7.095 -1.2738  0.3445  0.6300
24417SOL     OW77038   6.064   6.245   0.531 -0.0510  0.3449 -0.3854
24417SOL    HW177039   6.108   6.330   0.522  0.5820  0.1480  0.6915
24417SOL    HW277040   6.055   6.214   0.441  0.3319  1.2392 -0.7510
24418SOL     OW77041   9.345   4.026   4.266  0.7644  0.2558  0.0382
24418SOL    HW177042   9.288   4.054   4.338 -0.1424  1.5991 -1.1575
24418SOL    HW277043   9.375   3.939   4.292 -1.1413 -0.1376  1.1337
24419SOL     OW77044   7.504   0.007   1.246  0.1611  0.6210  0.4099
24419SOL    HW177045   7.533   0.031   1.158 -2.5072 -0.9814 -1.0349
24419SOL    HW277046   7.578  -0.040   1.284  1.6966  2.1258 -0.5733
24420SOL     OW77047   0.530   9.161   8.496 -0.4710  0.2999 -0.0281
24420SOL    HW177048   0.471   9.117   8.556 -1.9758  0.2260 -1.5061
24420SOL    HW277049   0.613   9.115   8.506 -1.4419 -1.5291 -0.0275
24421SOL     OW77050   1.730   7.104   7.428 -0.2300  0.2527  0.2510
24421SOL    HW177051   1.745   7.151   7.509 -1.6372  0.1937  0.5671
24421SOL    HW277052   1.746   7.169   7.359 -1.4610  1.0256  0.6610
24422SOL     OW77053   8.110   0.842   0.045  0.5219 -0.3958  0.3878
24422SOL    HW177054   8.118   0.874   0.135 -0.8134 -0.3065  0.4970
24422SOL    HW277055   8.168   0.898  -0.006 -0.0745  0.7597  0.9328
24423SOL     OW77056   2.285   6.464   9.834  0.2713 -0.0931 -1.0534
24423SOL    HW177057   2.355   6.465   9.769  0.4395  0.8579 -0.8744
24423SOL    HW277058   2.307   6.391   9.892  1.5734  0.6844 -0.5243
24424SOL     OW77059   8.229   6.075   6.458  0.1507  0.1172  0.0608
24424SOL    HW177060   8.195   6.037   6.539  0.2233  0.4230  0.2341
24424SOL    HW277061   8.161   6.058   6.394  0.0347 -0.0087  0.2150
24425SOL     OW77062   3.022   5.256   7.849  0.3192 -0.4229 -0.6687
24425SOL    HW177063   2.930   5.253   7.825 -0.3135  1.9348  1.0861
24425SOL    HW277064   3.049   5.164   7.855 -1.5948 -1.1441 -2.1863
24426SOL     OW77065   1.709   0.276   4.218 -0.3336 -0.3351 -0.0206
24426SOL    HW177066   1.792   0.323   4.213 -0.0292 -0.9565 -1.1629
24426SOL    HW277067   1.644   0.343   4.240  0.4599  0.1475  0.9557
24427SOL     OW77068   7.932   0.981   8.165  0.0055  0.2367  0.2487
24427SOL    HW177069   7.969   1.004   8.080  1.7614 -1.2796  0.5311
24427SOL    HW277070   7.896   1.063   8.199  1.6193  1.4505 -0.8342
24428SOL     OW77071   6.684   2.005   5.985 -0.0635  0.5637  0.6842
24428SOL    HW177072   6.638   2.066   5.927 -0.8175  0.0883  0.7755
24428SOL    HW277073   6.659   2.032   6.073 -0.1490  0.3153  0.7360
24429SOL     OW77074   3.515   5.433   6.465 -0.1961 -0.2592  0.0367
24429SOL    HW177075   3.548   5.413   6.377 -0.5179 -1.1244  0.1008
24429SOL    HW277076   3.589   5.475   6.509 -0.4710  1.4993 -1.0750
24430SOL     OW77077   5.741   4.382   1.915 -0.2505 -0.3825  0.3515
24430SOL    HW177078   5.729   4.331   1.835 -1.3434  0.1532  0.1552
24430SOL    HW277079   5.766   4.469   1.884  2.8021 -0.9880  0.6997
24431SOL     OW77080   7.372  10.006  10.117 -0.5777  0.5846  0.2099
24431SOL    HW177081   7.311   9.976  10.049 -0.1398  1.9950 -0.8504
24431SOL    HW277082   7.395  10.095  10.091  0.5256  0.7373  1.5922
24432SOL     OW77083   9.291   4.458   1.478 -0.3232  0.4834  0.1414
24432SOL    HW177084   9.223   4.515   1.514  1.0821  1.9952  0.5347
24432SOL    HW277085   9.250   4.417   1.402 -2.6473 -1.1069  2.1511
24433SOL     OW77086   8.326   6.027   3.533  0.0927 -0.7946  0.2405
24433SOL    HW177087   8.244   6.073   3.516  0.4148  0.3127  1.5575
24433SOL    HW277088   8.302   5.934   3.532 -1.2243 -0.4874  0.8542
24434SOL     OW77089   4.649   2.746   1.186 -0.1802  0.3201 -0.2561
24434SOL    HW177090   4.702   2.770   1.110 -2.0825  2.0648 -1.1385
24434SOL    HW277091   4.609   2.828   1.214 -2.1676 -0.8423  0.5192
24435SOL     OW77092   1.438   6.749   3.911  0.2091 -1.0392 -0.4504
24435SOL    HW177093   1.455   6.771   4.003  1.3505 -0.5798 -0.7436
24435SOL    HW277094   1.361   6.693   3.913  0.1669 -0.9627  0.7833
24436SOL     OW77095   6.136   7.283  10.203 -0.3856 -0.6749 -0.1336
24436SOL    HW177096   6.168   7.321  10.285  0.3252 -1.3094 -0.1075
24436SOL    HW277097   6.099   7.198  10.229 -1.0381 -0.4591 -0.3355
24437SOL     OW77098   2.247   8.844   9.221 -0.7088  0.6291 -0.3200
24437SOL    HW177099   2.253   8.895   9.140 -0.6605  1.4723  0.1984
24437SOL    HW277100   2.160   8.864   9.256 -0.8634  0.0014 -0.3348
24438SOL     OW77101   2.752   5.543   9.528 -0.2605 -0.8109 -0.7147
24438SOL    HW177102   2.845   5.523   9.524 -0.1940 -0.3453 -1.9992
24438SOL    HW277103   2.730   5.573   9.440 -1.5245 -0.4741 -0.3093
24439SOL     OW77104   3.522   8.259   1.031  0.1973  0.1296  0.0940
24439SOL    HW177105   3.553   8.305   0.953 -0.8365 -0.7846 -0.8937
24439SOL    HW277106   3.463   8.320   1.074 -0.7519 -0.0611 -0.9146
24440SOL     OW77107   8.251   1.656  10.080  0.3923 -0.3696  0.0610
24440SOL    HW177108   8.168   1.623  10.114 -0.8702 -0.2785 -2.6882
24440SOL    HW277109   8.293   1.579  10.041  0.6568 -0.0216 -0.3433
24441SOL     OW77110   2.575   1.309   5.022  0.0371 -0.0999  0.0685
24441SOL    HW177111   2.560   1.255   4.945 -0.8462  0.4330 -0.1482
24441SOL    HW277112   2.491   1.351   5.039  0.3978  0.3052  0.9247
24442SOL     OW77113   4.341   0.955   9.268 -0.5646  0.7236  0.0699
24442SOL    HW177114   4.255   0.996   9.257 -0.9940 -0.2750 -0.4681
24442SOL    HW277115   4.326   0.885   9.332 -0.1660  0.5179 -0.0582
24443SOL     OW77116   7.329   8.332   2.709  0.1868  0.5773  0.0053
24443SOL    HW177117   7.312   8.259   2.649 -0.2700 -1.3051  2.3109
24443SOL    HW277118   7.423   8.333   2.721  0.1683  0.1999  0.1735
24444SOL     OW77119   8.346   3.934   6.969  0.2607 -0.4865  0.5955
24444SOL    HW177120   8.320   3.851   7.009 -0.2778 -0.0402  1.1941
24444SOL    HW277121   8.387   3.983   7.040 -0.6042  0.2713  0.6016
24445SOL     OW77122   1.097   3.383   7.989  0.0952 -0.0594 -0.1965
24445SOL    HW177123   1.004   3.361   7.980  0.3223 -2.1687  1.6097
24445SOL    HW277124   1.098   3.478   7.999 -1.5261  0.4208 -3.3224
24446SOL     OW77125   2.481   6.519   8.551  0.0907 -0.5003 -0.0070
24446SOL    HW177126   2.512   6.608   8.535  0.3084 -0.7764 -1.2216
24446SOL    HW277127   2.549   6.463   8.515 -0.8330 -1.1307 -0.8267
24447SOL     OW77128   9.188   3.384   1.347 -0.0573 -0.0896  0.3090
24447SOL    HW177129   9.222   3.386   1.436  0.3263 -3.7691  0.3884
24447SOL    HW277130   9.264   3.359   1.293 -0.2078  2.3341 -1.2049
24448SOL     OW77131   7.800   2.872   9.665  0.2576 -0.0577 -0.7650
24448SOL    HW177132   7.710   2.844   9.647  0.3198 -1.0259  0.3411
24448SOL    HW277133   7.813   2.947   9.607 -1.6459  0.8009 -0.1874
24449SOL     OW77134   9.002   1.489   5.602 -0.5704  0.4457 -0.3679
24449SOL    HW177135   8.936   1.460   5.664 -0.0243  0.4922  0.2466
24449SOL    HW277136   8.953   1.518   5.525 -1.2572  0.5417  0.1077
24450SOL     OW77137   2.080   9.278   3.974 -0.8439 -0.4107  0.3537
24450SOL    HW177138   2.084   9.324   4.058 -1.2952 -0.4482  0.3990
24450SOL    HW277139   1.986   9.270   3.956 -0.7467 -0.0590 -0.3474
24451SOL     OW77140   6.252   0.014   4.518  0.3420  0.9208 -0.6901
24451SOL    HW177141   6.266  -0.025   4.431  0.5430 -1.0143  0.1529
24451SOL    HW277142   6.158   0.030   4.522 -0.0121 -0.9786 -0.5157
24452SOL     OW77143   5.247   1.647   7.957 -0.1552 -0.0216  0.1009
24452SOL    HW177144   5.192   1.713   8.000  2.5095  2.5130 -0.0447
24452SOL    HW277145   5.260   1.579   8.023 -1.1137  0.7236  1.0955
24453SOL     OW77146   9.303   3.877   1.511 -0.5005  0.0511 -0.0235
24453SOL    HW177147   9.333   3.967   1.521 -0.5368  0.1346 -0.6390
24453SOL    HW277148   9.224   3.872   1.564 -0.9379  0.6014 -0.6159
24454SOL     OW77149   0.805   1.185   1.327 -0.0890 -1.0018 -0.3024
24454SOL    HW177150   0.724   1.225   1.360  0.4212 -1.0151  1.0126
24454SOL    HW277151   0.776   1.107   1.280 -1.0491  0.4486 -2.2594
24455SOL     OW77152  10.216   2.594   7.527 -0.0807 -0.2204  0.7505
24455SOL    HW177153  10.291   2.534   7.526  1.1115  1.2022 -0.1535
24455SOL    HW277154  10.150   2.551   7.472  0.9302 -0.5373 -0.2624
24456SOL     OW77155   4.413   1.970   9.524  0.0738  0.0495 -0.2428
24456SOL    HW177156   4.464   1.899   9.563  2.1180  2.1001  1.1242
24456SOL    HW277157   4.357   2.002   9.595 -0.8043 -0.1387 -0.8345
24457SOL     OW77158   4.934   1.726   3.504 -0.4021  0.5157  0.2882
24457SOL    HW177159   4.980   1.646   3.530 -0.0122  0.0512 -1.6754
24457SOL    HW277160   4.882   1.700   3.428  0.0671  2.2089 -0.6751
24458SOL     OW77161   1.485   4.820   3.364  0.0633 -0.2433  0.1852
24458SOL    HW177162   1.561   4.768   3.391  0.1321  0.2612  0.9999
24458SOL    HW277163   1.409   4.767   3.391  0.0785 -1.2479 -1.5820
24459SOL     OW77164   5.231  10.077   5.423 -0.0880 -0.1942  0.1087
24459SOL    HW177165   5.251  10.003   5.365 -1.4514 -0.1443 -0.4748
24459SOL    HW277166   5.147  10.110   5.391 -1.3241 -0.6760  2.6017
24460SOL     OW77167   6.757   8.638   6.961  0.1231  0.2036 -0.2996
24460SOL    HW177168   6.844   8.613   6.991 -0.2232 -1.2834 -0.4432
24460SOL    HW277169   6.712   8.669   7.040  0.2945 -0.4778  0.0689
24461SOL     OW77170   8.409   7.172   6.617  0.6117  0.2397  0.0909
24461SOL    HW177171   8.475   7.152   6.551  0.8103 -1.5548  0.7804
24461SOL    HW277172   8.337   7.211   6.567  1.1741 -0.1102 -1.0365
24462SOL     OW77173   2.574   3.652   3.053 -0.4494 -0.1213 -0.0235
24462SOL    HW177174   2.589   3.722   2.990 -1.4176  0.4875  0.4132
24462SOL    HW277175   2.597   3.572   3.005  0.0909  0.4313 -0.7125
24463SOL     OW77176   8.427   5.551   6.229  0.2657 -0.3408  0.4594
24463SOL    HW177177   8.428   5.464   6.189 -1.2183 -0.9953  1.7513
24463SOL    HW277178   8.514   5.561   6.269  0.4504 -1.2108  0.2841
24464SOL     OW77179   0.699   4.580   4.360 -0.1842  0.5770  0.7744
24464SOL    HW177180   0.745   4.638   4.299  3.0842  0.1160  2.5282
24464SOL    HW277181   0.666   4.639   4.428  1.5516  0.6530  1.6181
24465SOL     OW77182   2.603   8.212   1.138  0.5226  0.7833 -0.3320
24465SOL    HW177183   2.687   8.255   1.153  0.0719  1.6175 -0.1746
24465SOL    HW277184   2.570   8.194   1.226  0.5917  0.3395 -0.3947
24466SOL     OW77185   9.274   7.341   8.610  0.1339  0.7455  0.0510
24466SOL    HW177186   9.219   7.293   8.548 -0.8247  1.3309  0.4110
24466SOL    HW277187   9.361   7.303   8.601 -0.4085 -0.4655 -0.2814
24467SOL     OW77188   7.082   8.120   5.333  0.1052  0.2441 -0.0291
24467SOL    HW177189   7.006   8.115   5.392  0.4817 -0.0914  0.4404
24467SOL    HW277190   7.120   8.206   5.351  0.6380 -0.1403  0.7654
24468SOL     OW77191   0.775   1.897   2.038  0.0113 -0.3506  0.0397
24468SOL    HW177192   0.772   1.956   1.963 -2.9824  1.6963  1.5847
24468SOL    HW277193   0.700   1.839   2.026 -1.0752  0.6104  1.8389
24469SOL     OW77194   2.559   4.388   2.743 -0.3121 -0.5975  0.6817
24469SOL    HW177195   2.648   4.352   2.756  0.4661  1.4222  1.2634
24469SOL    HW277196   2.506   4.344   2.810  0.4578 -1.1471  0.9514
24470SOL     OW77197   2.384   4.348   7.640 -0.2824  0.1401  0.4767
24470SOL    HW177198   2.446   4.341   7.568 -0.4687 -3.2690  0.4731
24470SOL    HW277199   2.436   4.330   7.719 -0.5050  1.6413  1.0025
24471SOL     OW77200   4.978   4.609   8.018 -0.1447 -0.1244 -0.8279
24471SOL    HW177201   4.898   4.604   8.071  0.3801 -0.9318 -0.0703
24471SOL    HW277202   4.968   4.538   7.954 -0.4195  0.3333 -1.2935
24472SOL     OW77203   9.556   8.609   6.150 -0.3218 -0.0548 -0.0286
24472SOL    HW177204   9.618   8.564   6.093 -0.5048  1.2920 -1.3549
24472SOL    HW277205   9.588   8.591   6.238  0.6162 -1.2821 -0.5781
24473SOL     OW77206   7.876   6.192   1.610  0.6098  0.4337 -0.2995
24473SOL    HW177207   7.867   6.110   1.561 -0.6995 -0.6173  1.5702
24473SOL    HW277208   7.940   6.173   1.678  1.5891  1.5388 -0.8690
24474SOL     OW77209   7.955   1.784   1.972  0.3303  0.3522  0.0929
24474SOL    HW177210   7.887   1.798   2.038 -1.2879 -2.1255 -0.9057
24474SOL    HW277211   8.022   1.734   2.017  0.3145  0.6150  0.4182
24475SOL     OW77212   7.498   2.214   0.468 -0.3673 -0.2152  0.1415
24475SOL    HW177213   7.539   2.127   0.475 -1.3418 -0.6913  0.0892
24475SOL    HW277214   7.405   2.196   0.459 -0.4538  0.7949 -1.2449
24476SOL     OW77215   2.256   0.264   1.672 -0.6583  0.0214 -0.5345
24476SOL    HW177216   2.269   0.281   1.579  1.0522  0.5457 -0.2311
24476SOL    HW277217   2.188   0.326   1.698 -0.8016  0.2059 -1.3238
24477SOL     OW77218   1.045   8.908   2.507 -0.9148 -0.4508 -0.0116
24477SOL    HW177219   1.099   8.864   2.441 -0.2305 -1.2511  1.0390
24477SOL    HW277220   1.038   8.844   2.578  0.1473  1.1233  1.5956
24478SOL     OW77221   7.058   6.011   6.723  0.0412  0.2965  0.6101
24478SOL    HW177222   6.979   6.015   6.668  0.9775 -0.8061 -0.8619
24478SOL    HW277223   7.131   6.009   6.662  1.0776 -3.1596  1.7599
24479SOL     OW77224   5.479   5.635   9.792  0.4225 -0.4835 -0.1628
24479SOL    HW177225   5.477   5.544   9.824  3.6979 -0.5448  0.2089
24479SOL    HW277226   5.389   5.652   9.765 -0.5782 -3.4528  0.7953
24480SOL     OW77227   1.390  10.184   8.191 -0.4136 -0.5420 -0.1249
24480SOL    HW177228   1.356  10.112   8.137 -0.0668 -0.2421 -0.7641
24480SOL    HW277229   1.389  10.260   8.132  1.8116 -0.6177 -0.3400
24481SOL     OW77230   3.312   3.978   8.119 -0.3143  0.3666  0.1995
24481SOL    HW177231   3.402   3.980   8.089  0.2687  1.6173  1.8902
24481SOL    HW277232   3.277   3.896   8.083  1.1199  0.4149 -1.4305
24482SOL     OW77233   1.320   0.548   3.372 -0.1511 -0.4952 -0.8210
24482SOL    HW177234   1.341   0.476   3.432 -0.0419 -0.5084 -0.8755
24482SOL    HW277235   1.367   0.623   3.408  1.5299 -0.9407 -1.9851
24483SOL     OW77236   1.448   4.989   8.167 -0.1094 -0.2804 -0.0447
24483SOL    HW177237   1.395   4.976   8.246  0.3311 -0.6743  0.1958
24483SOL    HW277238   1.398   5.051   8.114 -1.2970 -1.3903 -0.2721
24484SOL     OW77239   4.206   4.201   4.593 -0.3033  0.0427  0.3654
24484SOL    HW177240   4.123   4.162   4.565 -0.2841  0.9822 -1.0757
24484SOL    HW277241   4.271   4.132   4.577 -0.6256 -0.2605  0.3327
24485SOL     OW77242   3.849   0.616   1.952 -0.2004 -0.1619  0.2734
24485SOL    HW177243   3.868   0.678   2.023  1.3392  0.5219 -0.6869
24485SOL    HW277244   3.927   0.562   1.945 -0.7744 -0.9649 -0.1837
24486SOL     OW77245   9.060   2.660   3.582  0.2946 -0.0414  0.1913
24486SOL    HW177246   9.105   2.591   3.533 -2.3619 -1.3416 -0.5870
24486SOL    HW277247   9.096   2.742   3.547  0.2238 -0.9636 -2.2525
24487SOL     OW77248   6.234   0.992   5.613 -0.3790 -0.0764 -0.0774
24487SOL    HW177249   6.173   0.981   5.686  0.6297 -1.4830  0.6136
24487SOL    HW277250   6.248   0.903   5.580 -0.4042  0.4761 -1.6656
24488SOL     OW77251   2.719   8.328   1.676 -0.3832  0.4260  0.9178
24488SOL    HW177252   2.814   8.342   1.670 -0.3715 -0.0772 -0.4849
24488SOL    HW277253   2.705   8.240   1.641 -1.4557  0.8695  0.1577
24489SOL     OW77254   4.862   1.277   7.270  0.0844 -0.1833  0.3445
24489SOL    HW177255   4.936   1.308   7.219 -0.5360  0.9204  0.0718
24489SOL    HW277256   4.807   1.230   7.206 -0.2384  0.3992  0.1885
24490SOL     OW77257   9.038   7.294   6.475 -0.0856 -0.2766  0.6923
24490SOL    HW177258   8.986   7.248   6.410 -0.1677  1.2503 -0.3823
24490SOL    HW277259   9.114   7.237   6.490  1.0873  0.2364 -2.4324
24491SOL     OW77260   2.200   2.514   7.548 -0.1998 -0.1509  0.1064
24491SOL    HW177261   2.148   2.586   7.582 -0.8686 -0.3103 -0.5444
24491SOL    HW277262   2.274   2.506   7.608 -1.2041 -0.2732  1.3527
24492SOL     OW77263   2.015   2.094   8.551  0.0637  0.2948 -0.2284
24492SOL    HW177264   2.067   2.014   8.560  0.0325  0.2471 -0.4547
24492SOL    HW277265   1.925   2.064   8.539  0.0521  0.3628 -0.3188
24493SOL     OW77266   6.081   7.760   2.344  0.2989  0.3228  0.4474
24493SOL    HW177267   6.016   7.831   2.344 -0.5056 -0.3941  1.0955
24493SOL    HW277268   6.165   7.805   2.347 -0.2131  1.2591  1.6792
24494SOL     OW77269   2.104   7.020   0.647 -0.7354 -0.1397 -0.0278
24494SOL    HW177270   2.167   7.035   0.577  0.4395  1.7021  1.3153
24494SOL    HW277271   2.092   6.925   0.649  0.4395 -0.3591 -1.6434
24495SOL     OW77272  10.322   2.476   7.789 -0.2506  0.2293  0.6322
24495SOL    HW177273  10.230   2.501   7.776  0.1227  1.4324  0.2092
24495SOL    HW277274  10.369   2.520   7.718  0.6450 -0.4457  0.7974
24496SOL     OW77275   1.959   5.407   9.166  0.3664 -0.0934 -0.0196
24496SOL    HW177276   2.036   5.456   9.193 -0.4559  0.3413  1.7446
24496SOL    HW277277   1.968   5.396   9.072  2.2790  0.4337  0.0713
24497SOL     OW77278   8.399   4.447   1.365 -0.1217 -0.1381 -0.1264
24497SOL    HW177279   8.433   4.358   1.354  0.6186  0.2398 -0.9928
24497SOL    HW277280   8.348   4.443   1.447 -3.0101 -2.2570 -1.8062
24498SOL     OW77281   6.216   6.477   5.520  0.0287 -0.4101  0.3518
24498SOL    HW177282   6.185   6.565   5.500  1.1059  0.1825  1.1734
24498SOL    HW277283   6.309   6.480   5.499 -0.2238 -1.8391 -1.1206
24499SOL     OW77284   1.446   9.019   0.779  0.1570 -0.3832 -0.5507
24499SOL    HW177285   1.433   9.079   0.706 -1.1279  0.0342 -0.0091
24499SOL    HW277286   1.498   8.947   0.743 -0.5273 -0.2254 -1.8845
24500SOL     OW77287   7.329   0.145   0.303  0.2054  0.3319 -0.7544
24500SOL    HW177288   7.257   0.124   0.363 -0.1632  1.6993 -0.6913
24500SOL    HW277289   7.326   0.240   0.294  2.2947  0.4782 -0.4022
24501SOL     OW77290   8.352   6.445   9.882 -0.1227 -1.1600 -0.0366
24501SOL    HW177291   8.396   6.527   9.862 -1.3344  0.2527  2.5452
24501SOL    HW277292   8.423   6.381   9.890  0.8596 -0.3751 -1.8730
24502SOL     OW77293   6.738   5.963   6.309 -0.7471 -0.2622  0.4969
24502SOL    HW177294   6.702   5.880   6.339  0.0448 -1.2594 -1.1214
24502SOL    HW277295   6.682   5.988   6.236  0.3682 -0.6175 -0.5230
24503SOL     OW77296   8.824   9.515   3.575  0.0255  0.3926 -0.1003
24503SOL    HW177297   8.782   9.529   3.661 -2.9276 -1.3319 -1.1280
24503SOL    HW277298   8.812   9.598   3.530  1.8966  1.4340  1.1795
24504SOL     OW77299   7.125   6.149   5.738 -0.3305  0.6878 -0.3328
24504SOL    HW177300   7.148   6.240   5.718 -0.4834  0.6230 -0.8073
24504SOL    HW277301   7.190   6.122   5.803 -0.1694  1.0759 -0.3266
24505SOL     OW77302   4.855   8.429   9.815 -0.2283 -0.1483 -0.2109
24505SOL    HW177303   4.773   8.410   9.769 -0.1438 -2.5598  0.4640
24505SOL    HW277304   4.921   8.432   9.747 -0.6600  0.4185 -0.6199
24506SOL     OW77305   4.999  10.169   4.272  0.6187  0.7205  0.6503
24506SOL    HW177306   4.971  10.222   4.197  0.3643 -0.4639 -0.1207
24506SOL    HW277307   5.071  10.116   4.238  0.2839 -0.0696  1.1512
24507SOL     OW77308  10.095   2.440   4.287  0.1805  0.5216  0.1319
24507SOL    HW177309  10.043   2.502   4.338 -0.2149 -0.8185  1.4050
24507SOL    HW277310  10.058   2.446   4.199 -0.0735  1.8268  0.2992
24508SOL     OW77311   9.608   1.239  10.185 -0.2005 -0.3623 -0.2316
24508SOL    HW177312   9.614   1.187  10.265  0.0705  0.5701  0.3688
24508SOL    HW277313   9.624   1.177  10.115 -0.3621 -1.1842  0.4413
24509SOL     OW77314   7.893   1.377   4.026  0.0018 -0.0573 -0.4894
24509SOL    HW177315   7.896   1.294   4.074  1.2087  0.8588  1.1286
24509SOL    HW277316   7.806   1.413   4.046  0.4028  0.2040  0.8858
24510SOL     OW77317   0.712   2.959   7.022 -0.4161 -0.2805 -0.1368
24510SOL    HW177318   0.731   3.051   7.040 -1.0822 -0.0656 -0.4863
24510SOL    HW277319   0.724   2.950   6.927  0.6299 -0.7995  0.0341
24511SOL     OW77320   4.418   6.422   2.422 -0.2418  0.3630 -0.2949
24511SOL    HW177321   4.452   6.422   2.512  1.5772 -0.9141 -0.9275
24511SOL    HW277322   4.382   6.334   2.410  0.5422  0.1436 -1.1566
24512SOL     OW77323   2.135   2.184   7.596 -0.1560  0.1087  1.0071
24512SOL    HW177324   2.206   2.204   7.535  0.6737  1.0046  2.1988
24512SOL    HW277325   2.180   2.156   7.676 -1.2201 -1.6500  1.0470
24513SOL     OW77326   7.655   2.635   9.083 -0.1660  0.5495  0.1113
24513SOL    HW177327   7.648   2.560   9.024  0.7158  0.6257 -0.1008
24513SOL    HW277328   7.564   2.662   9.098 -0.3962  0.8045 -1.5628
24514SOL     OW77329   1.506  10.049   9.740 -0.2474  0.1578 -0.5389
24514SOL    HW177330   1.564   9.973   9.751  1.1101  0.9494 -1.8496
24514SOL    HW277331   1.480  10.072   9.829 -0.3178 -1.5326 -0.0746
24515SOL     OW77332  10.285   3.626   2.811 -0.6576  0.6595 -0.1262
24515SOL    HW177333  10.264   3.537   2.838  0.4196  0.8694  1.5225
24515SOL    HW277334  10.232   3.682   2.867  0.5018  1.0796  0.5911
24516SOL     OW77335   8.140   5.294   0.232 -0.5873  0.0237  0.1518
24516SOL    HW177336   8.177   5.331   0.313 -1.5818 -0.8499  1.0372
24516SOL    HW277337   8.063   5.245   0.261  0.2204 -2.1054 -1.0443
24517SOL     OW77338   9.043   0.820   3.100 -0.3904 -0.2714  0.2995
24517SOL    HW177339   8.967   0.789   3.149 -0.1237  1.2986  1.8011
24517SOL    HW277340   9.023   0.911   3.080  0.2031 -0.4337 -1.1756
24518SOL     OW77341   2.896   9.592   7.156  0.2639  0.2541  0.2134
24518SOL    HW177342   2.904   9.651   7.231 -1.0255 -0.2657  0.7975
24518SOL    HW277343   2.808   9.555   7.165 -0.0765  0.4882 -1.7918
24519SOL     OW77344   9.992   4.360   6.847  0.6419  0.6017 -0.3526
24519SOL    HW177345  10.019   4.384   6.935 -0.6714 -0.1841  0.3009
24519SOL    HW277346  10.051   4.289   6.822  0.5999  0.3795  0.1700
24520SOL     OW77347   5.249   5.273   3.884 -0.5963  0.1137  0.1271
24520SOL    HW177348   5.178   5.338   3.889 -0.1267  0.6173  0.2812
24520SOL    HW277349   5.288   5.274   3.972 -0.1510  0.1231 -0.0706
24521SOL     OW77350   8.551   5.475   8.272 -0.0751 -0.1236 -0.0082
24521SOL    HW177351   8.592   5.419   8.338  1.0201 -0.8825 -1.2845
24521SOL    HW277352   8.585   5.563   8.291  0.2590 -0.3392  0.4175
24522SOL     OW77353   7.455  10.056   1.004  0.1890 -0.4629  0.2946
24522SOL    HW177354   7.431  10.126   0.943 -1.0927  0.8250  2.1993
24522SOL    HW277355   7.548  10.073   1.023  0.6303 -0.9207 -1.2835
24523SOL     OW77356   9.671   6.372   2.589  0.0575 -0.1638 -0.1233
24523SOL    HW177357   9.667   6.364   2.685  2.7864 -0.8025  0.0329
24523SOL    HW277358   9.646   6.462   2.572  0.0789  0.1392  1.2630
24524SOL     OW77359  10.347   1.830   6.564  0.0311 -0.1237 -0.1913
24524SOL    HW177360  10.396   1.753   6.591  0.3930  0.0210 -0.4233
24524SOL    HW277361  10.413   1.898   6.554 -0.4384  0.5739  1.2548
24525SOL     OW77362   2.397   2.556   5.651 -0.6061  0.1280 -0.1325
24525SOL    HW177363   2.455   2.536   5.577  0.1329  0.4407  0.3567
24525SOL    HW277364   2.347   2.632   5.622 -1.0717 -0.3946 -0.7176
24526SOL     OW77365   8.208   8.217   4.424  0.2736  0.0323 -0.5493
24526SOL    HW177366   8.197   8.185   4.334  0.1279 -2.0723  0.1646
24526SOL    HW277367   8.134   8.277   4.437 -1.0111 -1.3561 -1.1439
24527SOL     OW77368   1.442   7.708   8.764  0.6237 -0.7012  0.4045
24527SOL    HW177369   1.481   7.710   8.676 -0.5781 -0.3074 -0.1326
24527SOL    HW277370   1.366   7.765   8.758 -0.5836 -2.1704  1.1789
24528SOL     OW77371   7.120   6.830   5.331 -0.1325  0.2051 -0.5824
24528SOL    HW177372   7.077   6.908   5.367  1.0273  0.7649 -0.3878
24528SOL    HW277373   7.099   6.760   5.394 -0.7183  0.4664 -0.4763
24529SOL     OW77374   7.124   7.034   0.440 -0.3933 -0.4714 -1.1269
24529SOL    HW177375   7.142   7.017   0.347  1.6007 -4.2432 -0.2963
24529SOL    HW277376   7.209   7.023   0.483 -1.4261  0.2094  1.2651
24530SOL     OW77377   4.220   8.960   4.182 -0.5239 -0.2184  0.2143
24530SOL    HW177378   4.288   8.919   4.235  1.4887  1.1489 -1.1869
24530SOL    HW277379   4.220   8.910   4.100 -0.8381  0.1211  0.0055
24531SOL     OW77380   1.680   2.702   1.323 -0.8276  0.7505 -0.1232
24531SOL    HW177381   1.721   2.789   1.318  1.3959  0.0166  2.6025
24531SOL    HW277382   1.602   2.716   1.376 -0.4320  1.0908  0.3796
24532SOL     OW77383   0.543   5.646   7.092 -0.7007  0.0855  0.5864
24532SOL    HW177384   0.575   5.556   7.094 -2.5742 -0.6890 -1.0096
24532SOL    HW277385   0.571   5.683   7.176 -0.4685 -2.1785  1.5868
24533SOL     OW77386   4.634  10.121   7.348  0.0075 -0.2729  0.3050
24533SOL    HW177387   4.706  10.152   7.402 -0.2116  0.1733  0.3481
24533SOL    HW277388   4.607  10.197   7.297 -1.1122 -0.1384  1.0493
24534SOL     OW77389   9.519   9.304   6.550 -0.1172 -0.5946 -0.1215
24534SOL    HW177390   9.548   9.322   6.639 -0.4278 -1.0509  0.0739
24534SOL    HW277391   9.576   9.358   6.495 -0.1062 -0.1042  0.3662
24535SOL     OW77392   3.518   1.767   8.181 -0.4535  0.0299 -0.6529
24535SOL    HW177393   3.555   1.854   8.195  0.3517 -0.5211  0.8074
24535SOL    HW277394   3.437   1.784   8.132 -0.1548  1.5600 -0.6869
24536SOL     OW77395   2.677   4.086   8.165  0.7149  0.2251  0.7297
24536SOL    HW177396   2.743   4.117   8.103  0.3350 -1.6997 -0.7268
24536SOL    HW277397   2.605   4.055   8.110 -0.0920 -0.5746  2.1741
24537SOL     OW77398   1.426   1.106   6.578 -0.3591 -0.2030  1.2990
24537SOL    HW177399   1.470   1.075   6.658  1.6454  0.0210  0.3620
24537SOL    HW277400   1.414   1.200   6.592 -1.4437 -0.4200  1.9381
24538SOL     OW77401   7.450   8.982   7.430  0.1546  0.0559  0.7376
24538SOL    HW177402   7.534   9.027   7.433  0.3509 -0.2072 -0.5358
24538SOL    HW277403   7.435   8.955   7.521  1.2835  0.3752  1.0389
24539SOL     OW77404   0.456   4.632   3.981  0.1694  0.2887  0.0986
24539SOL    HW177405   0.538   4.653   3.936  1.2510 -3.0446  0.2054
24539SOL    HW277406   0.389   4.636   3.913  1.1982 -1.0908 -1.0582
24540SOL     OW77407   1.070   1.044   5.884 -0.4902 -0.4547  0.1592
24540SOL    HW177408   1.082   1.095   5.963 -0.3344 -2.5607  1.5816
24540SOL    HW277409   1.066   0.953   5.914 -2.6672 -1.1905 -2.0084
24541SOL     OW77410   6.287   3.210   1.448 -0.1542 -0.4915 -0.3450
24541SOL    HW177411   6.222   3.164   1.394 -1.3333  0.3231  0.3248
24541SOL    HW277412   6.371   3.180   1.414 -0.8576 -2.2588 -0.6878
24542SOL     OW77413   5.213   0.426   3.596 -0.1430 -0.4818 -0.6216
24542SOL    HW177414   5.219   0.403   3.503  1.0237  3.4419 -1.7019
24542SOL    HW277415   5.304   0.430   3.626 -0.5327 -3.2719  1.2706
24543SOL     OW77416   4.758   3.426   8.351 -0.4911  0.3023 -0.3672
24543SOL    HW177417   4.703   3.395   8.279 -0.9768  2.8813 -1.2104
24543SOL    HW277418   4.697   3.455   8.417 -0.0566 -0.4019  0.3623
24544SOL     OW77419   7.120   4.717   4.582 -0.8656  0.5931  0.5768
24544SOL    HW177420   7.161   4.756   4.505  0.2464 -3.6715 -1.2776
24544SOL    HW277421   7.193   4.704   4.643 -1.0336  0.5277  0.7647
24545SOL     OW77422   7.784   4.539   4.529 -0.4202  0.0381 -0.1389
24545SOL    HW177423   7.715   4.475   4.508 -0.0555  0.0750 -1.5256
24545SOL    HW277424   7.794   4.590   4.449 -1.3498  2.4895  1.2044
24546SOL     OW77425   1.690  10.312   3.680 -0.4361 -0.8347 -0.2597
24546SOL    HW177426   1.628  10.384   3.694  0.0174 -0.7829  1.8163
24546SOL    HW277427   1.758  10.349   3.624  0.3962  0.7942  1.7072
24547SOL     OW77428   2.713   7.148   8.469 -0.5723 -0.0550 -0.5899
24547SOL    HW177429   2.626   7.111   8.480 -0.6142 -0.1658 -1.2281
24547SOL    HW277430   2.728   7.200   8.548 -1.4018  0.3454 -0.6889
24548SOL     OW77431   5.262   9.133  10.105 -0.1766 -0.5146  0.4178
24548SOL    HW177432   5.353   9.114  10.127  0.5245  2.8741  1.0532
24548SOL    HW277433   5.265   9.164  10.015 -1.0314 -2.0936 -0.1811
24549SOL     OW77434   1.684   6.126   8.007  0.2621 -0.9264  0.0375
24549SOL    HW177435   1.669   6.118   7.913 -0.7324 -1.9495  0.2547
24549SOL    HW277436   1.779   6.124   8.017  0.3772 -0.9207 -0.9336
24550SOL     OW77437   2.044   0.866   2.841  0.3435 -0.1216 -0.4878
24550SOL    HW177438   2.090   0.822   2.770 -0.5150  0.1475 -1.2263
24550SOL    HW277439   2.028   0.797   2.906  0.5897 -0.5056 -0.8370
24551SOL     OW77440   6.773   8.627   6.580  0.3017  0.5087 -0.2783
24551SOL    HW177441   6.743   8.571   6.651 -0.9138  1.0990 -0.3052
24551SOL    HW277442   6.697   8.637   6.523  1.3855 -0.3643 -1.9697
24552SOL     OW77443   5.528   5.621   4.372  0.4436  0.1048 -0.2688
24552SOL    HW177444   5.608   5.635   4.422  0.0298 -0.3777  0.5559
24552SOL    HW277445   5.533   5.684   4.300  1.9603 -0.4983 -0.7408
24553SOL     OW77446   9.204   1.985   1.736 -0.1324 -0.2048  0.1778
24553SOL    HW177447   9.250   1.962   1.655  0.7271  2.1192 -0.0767
24553SOL    HW277448   9.116   2.010   1.709  1.6343  6.2531 -1.1949
24554SOL     OW77449   2.332   2.721   4.350  0.4582  0.0674 -0.5698
24554SOL    HW177450   2.414   2.701   4.394  1.2431 -0.3191 -2.1285
24554SOL    HW277451   2.328   2.659   4.277 -0.5700  0.9502 -1.2933
24555SOL     OW77452   8.847   9.264   2.248  0.4493 -0.5203 -0.2031
24555SOL    HW177453   8.809   9.184   2.213 -0.2018  0.4213 -1.7679
24555SOL    HW277454   8.810   9.271   2.336  0.5491 -1.9301 -0.0227
24556SOL     OW77455   1.663   3.198   2.389 -0.1780 -0.0515  0.2665
24556SOL    HW177456   1.617   3.115   2.388  0.5581 -0.4686  0.4671
24556SOL    HW277457   1.746   3.179   2.432  0.4572  0.5388 -0.6704
24557SOL     OW77458   2.611   8.219   6.815  0.3791  1.1241  0.1009
24557SOL    HW177459   2.659   8.145   6.779  0.9791  1.6687 -0.2432
24557SOL    HW277460   2.519   8.197   6.803  0.5470  0.3028  0.2834
24558SOL     OW77461   2.284  10.278   3.875 -0.5654 -0.1272  0.1308
24558SOL    HW177462   2.285  10.328   3.793 -0.1769 -0.0182  0.2012
24558SOL    HW277463   2.313  10.190   3.851 -1.4550 -0.3894 -0.0322
24559SOL     OW77464   0.779   8.172   9.370 -0.3728 -0.0576 -0.0169
24559SOL    HW177465   0.769   8.166   9.465 -1.4737 -0.8032 -0.1530
24559SOL    HW277466   0.871   8.193   9.356 -0.1446 -0.1860  1.2090
24560SOL     OW77467   0.484   4.954   0.289  0.2247 -0.0290  0.2863
24560SOL    HW177468   0.416   4.886   0.291  1.0160 -0.8500 -0.2436
24560SOL    HW277469   0.478   4.991   0.201  0.5682 -0.2179  0.1814
24561SOL     OW77470   7.796   7.280   6.855  0.1744  0.6846  0.2020
24561SOL    HW177471   7.723   7.248   6.908  0.0417  0.2196 -0.2467
24561SOL    HW277472   7.829   7.202   6.810  0.7512  0.9460  0.1625
24562SOL     OW77473   9.107   6.402   3.001  0.3862  0.3722  0.3378
24562SOL    HW177474   9.142   6.383   2.914 -0.3444 -0.8012  0.2770
24562SOL    HW277475   9.182   6.439   3.049  1.3142 -0.6619 -0.2518
24563SOL     OW77476   5.283   5.769   2.657  0.1182 -0.6222 -0.5846
24563SOL    HW177477   5.349   5.792   2.591 -1.0759  1.4234 -1.1511
24563SOL    HW277478   5.218   5.719   2.609  0.9940 -2.2787 -0.1144
24564SOL     OW77479   3.249   3.415   4.991  0.2440  0.7812  0.4061
24564SOL    HW177480   3.277   3.390   5.079  1.0531  1.8655  0.4763
24564SOL    HW277481   3.199   3.340   4.959  0.5327  0.0988  1.5240
24565SOL     OW77482   1.540   3.634   1.935  0.0118 -0.0729 -0.5183
24565SOL    HW177483   1.452   3.639   1.898  0.4272 -2.3697 -1.9947
24565SOL    HW277484   1.598   3.642   1.860  0.9412 -2.2174 -0.0729
24566SOL     OW77485   9.739   2.026   0.521 -0.5911  0.4432  0.0546
24566SOL    HW177486   9.683   2.045   0.596 -0.4704  1.7009 -0.1362
24566SOL    HW277487   9.709   1.942   0.488 -1.0503  0.1671  1.1359
24567SOL     OW77488   5.067   4.991   8.245 -0.2322 -0.3868  0.4109
24567SOL    HW177489   5.036   4.978   8.334  1.4235 -2.6020  0.7484
24567SOL    HW277490   5.144   5.047   8.254 -2.3226  2.9376 -0.1810
24568SOL     OW77491   9.556   9.536   1.435 -0.1393  0.4489 -0.0996
24568SOL    HW177492   9.597   9.507   1.517  1.9253  1.7592 -0.5807
24568SOL    HW277493   9.507   9.614   1.459 -0.0397  0.4854 -0.0142
24569SOL     OW77494   5.420   6.007   9.198 -0.4440  0.0341  0.4943
24569SOL    HW177495   5.413   6.055   9.280  0.0898  0.3506  0.3568
24569SOL    HW277496   5.333   6.016   9.158 -0.8999 -0.6512  1.3016
24570SOL     OW77497   8.365   1.084   3.177  0.1514 -1.3796  0.0790
24570SOL    HW177498   8.354   1.178   3.193  0.7746 -1.5933  2.0287
24570SOL    HW277499   8.458   1.073   3.161  0.2957 -1.7810  1.0750
24571SOL     OW77500   4.590   0.288   4.494  0.2518  0.7584  0.1621
24571SOL    HW177501   4.548   0.283   4.408 -0.7353  2.3304  0.5049
24571SOL    HW277502   4.618   0.199   4.512 -0.0229  0.2892 -1.5436
24572SOL     OW77503   2.580   4.265   2.007 -0.3576 -0.1888  0.2523
24572SOL    HW177504   2.571   4.306   2.093  0.3447  0.7961 -0.1202
24572SOL    HW277505   2.672   4.280   1.983 -0.7731  0.3854 -1.0651
24573SOL     OW77506   7.650   2.972   0.528 -0.1790  0.0404 -0.6616
24573SOL    HW177507   7.617   2.935   0.610 -0.4798  0.3997 -0.6187
24573SOL    HW277508   7.640   2.901   0.464  1.1307 -0.6424 -0.1534
24574SOL     OW77509   5.006   2.348   9.868 -0.5027  0.4454 -0.1498
24574SOL    HW177510   5.088   2.303   9.886 -0.6195  0.1915 -0.2474
24574SOL    HW277511   4.982   2.391   9.950 -0.4651  0.2095 -0.0168
24575SOL     OW77512   2.130   0.914   9.177 -0.4916 -0.1002 -0.0469
24575SOL    HW177513   2.113   0.905   9.084  0.3171  2.3858 -0.5014
24575SOL    HW277514   2.215   0.870   9.190  1.7780  3.4004 -1.5288
24576SOL     OW77515   5.073   9.144   2.213  0.6000  0.3358  0.1977
24576SOL    HW177516   5.039   9.232   2.229  1.1540  1.2097 -2.8492
24576SOL    HW277517   5.138   9.131   2.282 -0.9923  1.3578  2.0142
24577SOL     OW77518   8.780   7.370   1.646  0.2963 -0.9863  0.6186
24577SOL    HW177519   8.779   7.413   1.732 -0.8187  0.0795  0.1018
24577SOL    HW277520   8.868   7.387   1.612  0.1586  0.1479  0.8032
24578SOL     OW77521   5.301   3.796   2.136 -0.1263  0.2940 -0.1536
24578SOL    HW177522   5.270   3.707   2.152  1.3378 -0.5608 -1.6877
24578SOL    HW277523   5.392   3.784   2.106  0.4872  2.3958  0.7277
24579SOL     OW77524   6.747   0.231   2.368  0.2386 -0.0549 -0.0436
24579SOL    HW177525   6.760   0.168   2.297  1.2063 -0.7535  0.7320
24579SOL    HW277526   6.694   0.300   2.329  0.7806 -0.4073 -1.4541
24580SOL     OW77527   5.161   0.602   5.043 -0.4931  0.3125 -0.4854
24580SOL    HW177528   5.093   0.535   5.047  1.1016 -1.3613  0.0071
24580SOL    HW277529   5.231   0.562   4.990  1.7026  0.3763  2.1500
24581SOL     OW77530   2.978   5.833   7.075  0.7042 -0.6000  0.4503
24581SOL    HW177531   2.965   5.895   7.003  1.6893 -0.0165  0.7733
24581SOL    HW277532   2.947   5.749   7.039  1.9694 -0.5051 -0.9815
24582SOL     OW77533   9.942   5.587   3.203 -0.0157 -0.0261 -0.5972
24582SOL    HW177534   9.853   5.599   3.234 -0.0776  0.4255 -0.9492
24582SOL    HW277535   9.955   5.492   3.204 -0.7314 -0.1365 -1.2083
24583SOL     OW77536   5.582   1.041   9.099 -0.0161  0.2441  0.6127
24583SOL    HW177537   5.645   1.064   9.168  1.4243  1.1887 -0.9157
24583SOL    HW277538   5.635   1.038   9.019 -1.3034 -2.4794 -0.2486
24584SOL     OW77539   5.687   1.327   3.065  0.8613 -0.1339 -0.4765
24584SOL    HW177540   5.723   1.407   3.027 -2.0532  1.1153 -0.8129
24584SOL    HW277541   5.596   1.348   3.084 -0.3896 -3.7283 -1.6735
24585SOL     OW77542   8.106   8.142   7.894 -0.3403 -0.2789  0.0769
24585SOL    HW177543   8.081   8.209   7.958 -1.8755 -1.1281  0.4289
24585SOL    HW277544   8.192   8.169   7.862 -1.1418  2.1415 -0.2006
24586SOL     OW77545  10.024   4.200   2.543  0.0022  0.3386 -0.1572
24586SOL    HW177546  10.068   4.196   2.458  1.2596 -1.1944  0.5114
24586SOL    HW277547   9.959   4.130   2.539 -0.4769  0.7835 -0.1422
24587SOL     OW77548   9.730   3.023   8.795  0.5324 -0.2880  0.0494
24587SOL    HW177549   9.814   3.023   8.750  0.9193 -0.8770  0.7590
24587SOL    HW277550   9.684   3.100   8.760  0.9808 -0.4885 -1.0249
24588SOL     OW77551   2.194   2.035   5.117 -0.3046 -0.3908 -0.2425
24588SOL    HW177552   2.181   2.003   5.206  1.4108 -1.4946 -0.3365
24588SOL    HW277553   2.196   2.130   5.125 -1.4062 -0.4128  0.6769
24589SOL     OW77554   5.682   7.155   0.474 -0.1676 -0.2459  0.6427
24589SOL    HW177555   5.711   7.228   0.529  1.3798 -0.2456 -0.1168
24589SOL    HW277556   5.628   7.196   0.406  0.0174  0.0801  0.6909
24590SOL     OW77557   8.376   2.519   1.592  0.4159  0.6838  0.4143
24590SOL    HW177558   8.338   2.522   1.505 -1.8453  0.6287  1.3311
24590SOL    HW277559   8.465   2.487   1.578 -0.4896 -1.1851 -1.7012
24591SOL     OW77560   0.634   9.383   5.734 -0.3494 -0.0484  0.6325
24591SOL    HW177561   0.714   9.336   5.711 -1.0020 -0.2111 -1.5451
24591SOL    HW277562   0.634   9.386   5.830  0.8710 -2.4337  0.7746
24592SOL     OW77563   9.279   8.521   6.138 -0.1687 -0.4462  0.1886
24592SOL    HW177564   9.362   8.567   6.148  0.2165 -1.3327  1.2545
24592SOL    HW277565   9.238   8.525   6.224  0.1705 -2.6089  0.4932
24593SOL     OW77566   2.876   6.954   5.536 -0.0021 -0.0940 -0.5728
24593SOL    HW177567   2.795   6.904   5.538 -0.1041  0.0328 -1.3293
24593SOL    HW277568   2.917   6.931   5.452  0.4103  0.3632 -0.5064
24594SOL     OW77569   5.025   6.660   8.027 -0.6165 -0.4959 -0.6771
24594SOL    HW177570   4.997   6.751   8.017 -0.6979 -0.2300  1.5500
24594SOL    HW277571   5.121   6.664   8.024 -0.5046  0.0514  1.6456
24595SOL     OW77572   5.432   5.378   0.649 -0.0632  0.1252  0.0517
24595SOL    HW177573   5.512   5.341   0.685  0.2107 -0.1965 -0.8632
24595SOL    HW277574   5.366   5.364   0.717  1.0593  2.1691  1.6708
24596SOL     OW77575   5.246   5.096  10.097 -0.2651  0.4992 -0.5061
24596SOL    HW177576   5.315   5.060  10.153 -1.4958 -2.3848 -0.6208
24596SOL    HW277577   5.254   5.191  10.106  0.0854  0.2569  3.9646
24597SOL     OW77578   7.052   2.072   4.382  0.0359  0.5740  0.4666
24597SOL    HW177579   6.996   2.144   4.414 -0.1790  0.6497 -0.0701
24597SOL    HW277580   7.054   2.010   4.455  0.9694  1.5329  1.2980
24598SOL     OW77581   8.963   0.397   5.774  0.3225  0.5118 -0.1064
24598SOL    HW177582   8.960   0.309   5.810 -1.1870 -0.3797 -2.1923
24598SOL    HW277583   9.056   0.415   5.760  0.7032 -0.3623  1.1199
24599SOL     OW77584   1.443   5.860   7.343  0.5275 -0.4423 -0.1834
24599SOL    HW177585   1.473   5.792   7.283 -1.0816 -1.2008 -0.1799
24599SOL    HW277586   1.382   5.815   7.402  1.8618  0.3232  1.9004
24600SOL     OW77587   8.468   8.355   6.096 -0.6606  0.1396  0.7323
24600SOL    HW177588   8.502   8.320   6.014  1.6820 -1.2669  2.2015
24600SOL    HW277589   8.440   8.444   6.074  1.6188  0.4665 -1.2316
24601SOL     OW77590   9.181   4.215   0.165  0.8460  0.3424  0.1053
24601SOL    HW177591   9.239   4.176   0.230 -0.3907 -0.9521  0.4891
24601SOL    HW277592   9.097   4.224   0.210 -0.2209 -1.1703 -1.4417
24602SOL     OW77593   7.739   6.458   4.873  0.1886 -0.3475  0.3518
24602SOL    HW177594   7.768   6.513   4.945  0.2728  0.5623 -0.3569
24602SOL    HW277595   7.756   6.368   4.902  1.3639  0.0569  0.9605
24603SOL     OW77596   3.107   1.991   9.937  0.4072  0.3788 -0.6079
24603SOL    HW177597   3.197   1.985   9.906  0.5662 -2.0671  0.0708
24603SOL    HW277598   3.078   1.900   9.943 -1.5775  1.0243  0.6990
24604SOL     OW77599   1.513   5.193   2.802 -0.7320  0.6644 -0.3590
24604SOL    HW177600   1.543   5.153   2.721 -2.1384 -0.6971 -0.2403
24604SOL    HW277601   1.561   5.146   2.871 -1.3005  0.1716 -0.2934
24605SOL     OW77602   7.767   2.394  10.044 -0.0352  0.2406  0.5971
24605SOL    HW177603   7.672   2.398  10.028  0.2811 -0.8330 -2.0368
24605SOL    HW277604   7.798   2.482  10.024 -0.2893  0.1737 -0.1076
24606SOL     OW77605   7.069   4.802   5.834  0.5055 -0.5539 -0.0782
24606SOL    HW177606   7.019   4.763   5.906  1.7342  1.1669  1.8346
24606SOL    HW277607   7.143   4.743   5.822 -0.3259 -1.4860 -0.8168
24607SOL     OW77608   0.946   2.315   2.856 -0.2236  0.3608  0.2222
24607SOL    HW177609   0.995   2.363   2.923 -0.1449 -0.4922  0.7850
24607SOL    HW277610   0.891   2.382   2.814  3.4324  2.0214 -2.4254
24608SOL     OW77611   1.841   1.024   3.155 -0.5175  0.2024  0.2028
24608SOL    HW177612   1.757   0.992   3.123 -0.3839  1.0541 -1.0895
24608SOL    HW277613   1.854   0.979   3.238 -1.9319 -0.4441  0.1033
24609SOL     OW77614   8.413   9.766   4.601  0.8084 -0.8984 -0.2283
24609SOL    HW177615   8.494   9.808   4.631  1.6816 -3.3801  1.1987
24609SOL    HW277616   8.437   9.727   4.516  0.0234  1.2329 -1.5083
24610SOL     OW77617   1.933   7.318   7.907 -0.4802 -0.0769  0.4758
24610SOL    HW177618   2.025   7.290   7.903 -0.2572  0.5306  1.1768
24610SOL    HW277619   1.893   7.263   7.973 -0.4245  0.1974  0.7388
24611SOL     OW77620   0.537   6.141   5.621 -0.2179 -0.1505  0.3446
24611SOL    HW177621   0.498   6.056   5.643  1.0849 -0.7185  0.5378
24611SOL    HW277622   0.578   6.170   5.703  1.6196 -0.6130 -0.3600
24612SOL     OW77623   5.017   1.036   5.632 -0.5775  0.2159  0.0889
24612SOL    HW177624   5.075   0.989   5.693  0.2217 -0.4056 -1.1051
24612SOL    HW277625   4.967   1.095   5.688  2.7178  2.4155  1.0091
24613SOL     OW77626   3.403   6.007   9.022  0.3222  0.1741 -0.2091
24613SOL    HW177627   3.443   5.921   9.035 -0.2684 -0.2269 -0.9633
24613SOL    HW277628   3.432   6.059   9.097  1.3728 -0.4269 -0.1748
24614SOL     OW77629  10.273   6.040  10.240 -0.2750  0.1695 -0.2686
24614SOL    HW177630  10.208   6.056  10.309 -1.3187  3.2297 -1.7734
24614SOL    HW277631  10.354   6.078  10.274 -0.6847  1.2948 -0.4917
24615SOL     OW77632   1.026   5.524   6.055 -0.8653 -0.1457  0.2725
24615SOL    HW177633   1.043   5.596   5.995  2.0065  0.2148  1.3704
24615SOL    HW277634   1.038   5.445   6.002  5.0148  0.0180  0.7019
24616SOL     OW77635   3.713   8.237   6.831 -1.0489  0.3963 -0.2434
24616SOL    HW177636   3.752   8.256   6.746 -1.8267  2.1361 -0.2654
24616SOL    HW277637   3.703   8.142   6.833  2.5264 -0.1346 -0.4956
24617SOL     OW77638   8.967   8.717   5.676 -0.1416 -0.6490  0.3936
24617SOL    HW177639   8.892   8.657   5.682 -0.6859  0.0807  1.0592
24617SOL    HW277640   9.020   8.697   5.753 -1.0404  0.6433  1.3902
24618SOL     OW77641   4.239   4.012   8.056 -0.3544  0.0111  0.0995
24618SOL    HW177642   4.150   3.992   8.028 -0.3845  1.0311 -0.6048
24618SOL    HW277643   4.294   3.986   7.981 -0.3686  2.1298 -0.7138
24619SOL     OW77644   8.391   6.042   5.091 -0.3480  0.2491  0.0932
24619SOL    HW177645   8.458   5.979   5.066  0.6215  1.4526 -0.4979
24619SOL    HW277646   8.440   6.117   5.125 -1.3612  1.2597 -0.5771
24620SOL     OW77647   5.126   7.392   6.446 -0.6014 -0.1393 -0.7005
24620SOL    HW177648   5.083   7.381   6.531  0.7823 -2.7007 -0.2369
24620SOL    HW277649   5.178   7.312   6.435  1.8749  1.5774 -2.4520
24621SOL     OW77650   2.197   8.634   3.278 -0.5937 -0.8388 -0.2805
24621SOL    HW177651   2.123   8.582   3.308 -0.2354 -1.3093 -0.1907
24621SOL    HW277652   2.231   8.587   3.202  0.8612 -1.7807  0.8882
24622SOL     OW77653   4.845   8.408   5.007  0.4393 -0.0233 -0.0005
24622SOL    HW177654   4.888   8.341   5.060  0.8944  1.8203  2.0849
24622SOL    HW277655   4.757   8.374   4.993  0.7530 -1.1943  0.7212
24623SOL     OW77656   1.159   6.468   1.653  0.5883  0.2420  0.7841
24623SOL    HW177657   1.169   6.470   1.748  0.5695 -0.6734  0.8162
24623SOL    HW277658   1.071   6.502   1.637  0.5687  0.3406  1.0924
24624SOL     OW77659   5.520   3.781   6.076  1.0761 -0.6747 -0.5079
24624SOL    HW177660   5.500   3.872   6.097  0.1193 -0.9841  0.0108
24624SOL    HW277661   5.587   3.785   6.008  2.5610  0.3964  0.9451
24625SOL     OW77662   9.483   7.504   1.317 -0.3059  0.3529  0.4189
24625SOL    HW177663   9.526   7.451   1.250 -0.7282 -1.2404  1.3825
24625SOL    HW277664   9.494   7.594   1.285  3.2149  0.0451  0.3027
24626SOL     OW77665   8.206   9.318   2.840 -0.0273  0.1573 -0.3271
24626SOL    HW177666   8.298   9.332   2.819  0.0370 -0.2233 -0.2899
24626SOL    HW277667   8.199   9.332   2.934 -0.2669  1.5872 -0.5325
24627SOL     OW77668   0.773   5.721   4.924 -0.5978  0.2902  0.4265
24627SOL    HW177669   0.785   5.804   4.877  0.3423 -0.2438 -0.3055
24627SOL    HW277670   0.695   5.682   4.883  0.1555 -0.1252 -0.6793
24628SOL     OW77671   8.050   1.267   4.389 -0.0555  0.1197 -0.5828
24628SOL    HW177672   7.965   1.262   4.433  0.9357 -1.5376  1.3376
24628SOL    HW277673   8.055   1.188   4.336 -0.6170  1.3715 -2.5879
24629SOL     OW77674   9.215   6.759   2.179  0.4709 -0.0471 -0.3880
24629SOL    HW177675   9.163   6.773   2.259  0.3648 -0.1310 -0.4418
24629SOL    HW277676   9.195   6.835   2.124  1.4598  0.6342  0.1466
24630SOL     OW77677  10.085   7.640   7.381 -0.5656  0.3412  0.5403
24630SOL    HW177678  10.139   7.561   7.384 -0.4066  0.4401  0.3167
24630SOL    HW277679  10.015   7.619   7.319 -0.2188  0.5656  0.0729
24631SOL     OW77680   8.696   3.802   9.856 -0.1510 -0.4044  0.8691
24631SOL    HW177681   8.693   3.828   9.948 -2.0712 -2.9232  1.6304
24631SOL    HW277682   8.618   3.748   9.843  0.8805 -1.4535 -1.8170
24632SOL     OW77683   3.952   7.132   0.954  0.1906  0.1172  0.7853
24632SOL    HW177684   3.948   7.220   0.918 -0.6236  0.0936  0.7945
24632SOL    HW277685   4.039   7.099   0.930 -1.0267 -0.7350 -3.1305
24633SOL     OW77686   9.209   6.562   8.050  0.5931  0.0497 -0.3333
24633SOL    HW177687   9.238   6.596   8.135  0.2453 -0.1873 -0.1164
24633SOL    HW277688   9.246   6.623   7.986 -0.1256  0.9263  0.0574
24634SOL     OW77689   8.619   9.840   4.227 -0.7090 -0.0533  0.6247
24634SOL    HW177690   8.638   9.849   4.321  2.5191 -0.7310  0.1438
24634SOL    HW277691   8.630   9.928   4.192 -1.7674  0.1714  0.8341
24635SOL     OW77692   1.864   2.859   5.296 -0.4817  0.7848 -0.0943
24635SOL    HW177693   1.902   2.906   5.221 -2.6619  1.2027 -1.0213
24635SOL    HW277694   1.774   2.890   5.300 -0.9151 -0.5548  1.6411
24636SOL     OW77695   1.997   6.915   5.089  0.3452  0.3143 -0.1481
24636SOL    HW177696   2.007   6.863   5.169 -1.1190 -1.3065 -0.9521
24636SOL    HW277697   2.027   7.002   5.113  1.0069 -0.4124  1.8373
24637SOL     OW77698   8.121   5.144   0.552  0.0242  0.3016 -0.0851
24637SOL    HW177699   8.198   5.109   0.507 -0.1728  1.1872 -1.1493
24637SOL    HW277700   8.061   5.069   0.557  0.0559  0.1632 -1.3254
24638SOL     OW77701   0.176   5.306   5.585  0.4072  0.3331  0.5008
24638SOL    HW177702   0.149   5.282   5.674  2.2096 -2.2603  0.4741
24638SOL    HW277703   0.254   5.360   5.599  0.4154  0.3203  0.5066
24639SOL     OW77704   1.929   9.030   4.174  0.6161  0.2393  0.5633
24639SOL    HW177705   2.006   9.082   4.199  2.4756 -1.3211 -1.5553
24639SOL    HW277706   1.944   8.944   4.214 -0.6898  0.2524  1.1425
24640SOL     OW77707   7.482   6.226   6.333  0.0468 -0.5245  0.0097
24640SOL    HW177708   7.418   6.185   6.274 -0.2378  1.8630 -1.4797
24640SOL    HW277709   7.565   6.221   6.286  0.4992 -1.3742  0.8491
24641SOL     OW77710   7.182   6.191   9.530  0.0655 -0.3421 -0.3038
24641SOL    HW177711   7.106   6.147   9.567 -0.2968  1.1944  0.8919
24641SOL    HW277712   7.245   6.195   9.603  0.5511  0.0482 -0.7348
24642SOL     OW77713   2.133   4.034   0.044  0.9083  0.1724 -0.9058
24642SOL    HW177714   2.161   4.045  -0.046  0.4920  0.0422 -1.0531
24642SOL    HW277715   2.043   4.068   0.047  0.7111 -0.3404 -0.6781
24643SOL     OW77716   5.788   8.496   3.966 -0.0905 -0.2394  0.2029
24643SOL    HW177717   5.737   8.471   4.043  0.9883 -0.9542  0.7162
24643SOL    HW277718   5.724   8.535   3.907 -0.6831  2.1003  2.1986
24644SOL     OW77719   2.880   8.204   3.613 -0.0578 -0.5694  0.3753
24644SOL    HW177720   2.908   8.179   3.525 -1.6014  0.7495 -0.5573
24644SOL    HW277721   2.962   8.227   3.659  0.6558  0.6266 -1.3713
24645SOL     OW77722   7.881   6.473   8.902  0.2553  0.1198  0.1271
24645SOL    HW177723   7.790   6.479   8.872  0.7228  1.0317 -1.1525
24645SOL    HW277724   7.875   6.419   8.982 -1.2872 -0.5667 -0.3985
24646SOL     OW77725   0.458   0.720   8.562  0.1086  0.0587  0.0783
24646SOL    HW177726   0.455   0.630   8.595 -0.0860 -1.1499 -2.9135
24646SOL    HW277727   0.543   0.752   8.592 -0.3652 -0.5678  2.3332
24647SOL     OW77728   0.734   4.269   7.971 -0.4328 -0.0833  0.0899
24647SOL    HW177729   0.642   4.261   7.947 -0.4383  0.1579  0.0320
24647SOL    HW277730   0.769   4.181   7.961 -0.5923 -0.1191 -0.1489
24648SOL     OW77731   3.873   6.066   3.968 -0.0317  0.2156 -0.2635
24648SOL    HW177732   3.781   6.039   3.967 -0.1157  0.5175 -1.4269
24648SOL    HW277733   3.882   6.123   3.892  0.7397  1.5237  0.7704
24649SOL     OW77734   0.983   2.153   7.992  0.1378 -0.0794 -0.0722
24649SOL    HW177735   0.956   2.119   8.078  0.8864 -2.6824 -0.7688
24649SOL    HW277736   0.975   2.248   8.000 -1.1501 -0.3070  2.4119
24650SOL     OW77737   2.317   9.350   7.533  0.1751 -0.1141  0.0742
24650SOL    HW177738   2.392   9.409   7.519  0.8131 -0.7846  0.5775
24650SOL    HW277739   2.313   9.339   7.628 -0.2049 -0.5453  0.0092
24651SOL     OW77740   6.706   9.879   1.557 -0.0273 -0.1696 -0.4584
24651SOL    HW177741   6.633   9.924   1.516 -1.1698 -1.5933 -0.0819
24651SOL    HW277742   6.699   9.788   1.526  0.9573 -0.5615  0.4035
24652SOL     OW77743   0.882   7.058   2.662 -0.7196 -0.4208  0.5507
24652SOL    HW177744   0.915   7.034   2.748 -1.0483  0.4993  0.9439
24652SOL    HW277745   0.808   6.998   2.647 -1.7650  0.5393  1.6825
24653SOL     OW77746   9.533   2.000   1.802 -0.5055  1.2145 -0.2427
24653SOL    HW177747   9.477   1.934   1.761 -0.0365  0.1275  0.7927
24653SOL    HW277748   9.485   2.025   1.882  0.0941  0.8722  0.2312
24654SOL     OW77749   2.115   2.135   0.110 -0.2453  0.4346 -0.4790
24654SOL    HW177750   2.054   2.196   0.152 -1.0919  0.4214 -1.6562
24654SOL    HW277751   2.070   2.105   0.031  1.0089 -0.1090 -1.0268
24655SOL     OW77752   7.473   3.785   5.975  0.1895 -0.2609  0.1323
24655SOL    HW177753   7.443   3.869   5.940  0.7733 -0.9891 -2.3829
24655SOL    HW277754   7.401   3.724   5.958  0.1340 -0.4616  1.0647
24656SOL     OW77755   1.459   0.716   9.518 -0.0995  0.3644 -0.1510
24656SOL    HW177756   1.369   0.691   9.494 -0.7874  0.8355  1.7185
24656SOL    HW277757   1.461   0.811   9.507 -0.1344  0.4685  0.6855
24657SOL     OW77758   9.651  10.021   1.247  0.7465 -0.4943 -0.6893
24657SOL    HW177759   9.581  10.086   1.261 -0.7002 -1.5058 -2.8155
24657SOL    HW277760   9.606   9.937   1.249  2.4410 -1.4302  0.9156
24658SOL     OW77761   4.083  10.320   9.200 -0.4106  0.3509 -0.8712
24658SOL    HW177762   4.114  10.373   9.126  0.0477 -0.3507 -1.1983
24658SOL    HW277763   3.996  10.355   9.220 -0.1636  1.1523 -1.1414
24659SOL     OW77764   6.158   1.557   0.855 -0.2148  0.0376 -0.3239
24659SOL    HW177765   6.186   1.468   0.835 -0.6233 -0.1650 -0.0190
24659SOL    HW277766   6.066   1.548   0.879 -0.3640  0.5990 -0.6812
24660SOL     OW77767   3.678   0.234   0.096  0.3491  0.1192  0.0672
24660SOL    HW177768   3.756   0.248   0.042  0.3082  0.9721  0.2073
24660SOL    HW277769   3.630   0.164   0.052  1.3088 -0.5799  0.1077
24661SOL     OW77770   6.505   1.512   4.944  0.0765  0.0989  0.1528
24661SOL    HW177771   6.458   1.526   4.861  0.4441  0.9242  0.0761
24661SOL    HW277772   6.477   1.585   4.999  2.7095  1.7692 -0.5579
24662SOL     OW77773   8.475   5.677   4.845 -0.0660  0.2439  0.1531
24662SOL    HW177774   8.386   5.677   4.880  0.5430 -1.3728  1.8541
24662SOL    HW277775   8.484   5.592   4.802  0.3265  0.8366 -0.9757
24663SOL     OW77776   5.491   2.630   3.329 -0.7911  0.2429 -0.2043
24663SOL    HW177777   5.425   2.595   3.389  0.3803  0.9708  1.5770
24663SOL    HW277778   5.506   2.720   3.359  1.6108 -0.1578  0.0091
24664SOL     OW77779   3.063   0.680   9.089 -0.0985 -0.0287  0.0530
24664SOL    HW177780   2.972   0.658   9.068  0.1612 -2.0125  0.7694
24664SOL    HW277781   3.108   0.596   9.089  1.1219  0.5289  2.6211
24665SOL     OW77782   8.473   5.246   3.376  0.1064  0.2028  0.1456
24665SOL    HW177783   8.458   5.248   3.470  1.6747 -0.7623  0.4609
24665SOL    HW277784   8.450   5.157   3.350  0.8331  0.0885 -0.1402
24666SOL     OW77785   9.479   4.234   9.697  0.3293 -0.3586 -0.2627
24666SOL    HW177786   9.429   4.274   9.625  0.7295  0.8561  0.1050
24666SOL    HW277787   9.418   4.172   9.737 -0.0451 -0.7359 -1.3692
24667SOL     OW77788   4.378   4.321   7.352 -0.1190  0.0021 -0.3868
24667SOL    HW177789   4.378   4.386   7.282 -0.7556  2.0032  1.3989
24667SOL    HW277790   4.468   4.289   7.355  0.2995  1.0872 -1.0315
24668SOL     OW77791   2.200   7.864   8.237 -0.2708  0.2856 -0.0425
24668SOL    HW177792   2.205   7.927   8.165 -0.1722 -0.1805 -0.4511
24668SOL    HW277793   2.142   7.906   8.301 -0.1224  0.8347 -0.2605
24669SOL     OW77794   4.185   1.043   4.413 -0.7200  0.3014 -0.8335
24669SOL    HW177795   4.101   0.998   4.405 -0.4246 -0.3467 -0.3673
24669SOL    HW277796   4.229   0.999   4.486  0.3741  0.0572 -1.6138
24670SOL     OW77797   3.141   1.329   8.321 -0.5710 -0.0090  0.2790
24670SOL    HW177798   3.094   1.255   8.283 -0.3708  0.6011 -1.2488
24670SOL    HW277799   3.168   1.299   8.407  0.9833 -2.3767 -0.9130
24671SOL     OW77800   3.184   8.249   9.375  0.5039  0.7381  0.6191
24671SOL    HW177801   3.188   8.243   9.470  1.2588  0.9935  0.6120
24671SOL    HW277802   3.148   8.165   9.347  2.0471 -0.0993  1.0339
24672SOL     OW77803  10.359   4.723   2.477  0.8074 -0.1427 -0.2132
24672SOL    HW177804  10.439   4.688   2.516  0.7073  1.6391  1.7920
24672SOL    HW277805  10.379   4.816   2.461  0.1963 -0.3788 -2.8164
24673SOL     OW77806   1.622   8.142   5.057 -0.3899 -0.4578 -0.3920
24673SOL    HW177807   1.649   8.203   5.126 -1.4987 -1.9439  1.4552
24673SOL    HW277808   1.686   8.155   4.987  0.3688  1.6115  0.6172
24674SOL     OW77809  10.216   5.654   0.784 -0.7201  0.1079  0.6421
24674SOL    HW177810  10.216   5.749   0.778 -2.0354  0.1234  0.6935
24674SOL    HW277811  10.169   5.624   0.706 -1.2699 -0.4425  1.1672
24675SOL     OW77812   2.032   4.537   8.735 -0.5756 -0.0161  0.4958
24675SOL    HW177813   2.101   4.582   8.686 -0.5959  1.0986  1.4360
24675SOL    HW277814   1.952   4.555   8.685 -0.1855 -1.5686 -0.7663
24676SOL     OW77815   3.325   9.097   5.027 -0.4185 -0.6928  0.0004
24676SOL    HW177816   3.283   9.121   4.945  0.2006 -0.3864 -0.2291
24676SOL    HW277817   3.352   9.006   5.015  0.1389 -0.4876 -0.3341
24677SOL     OW77818   9.765   9.637  10.321 -0.3813  0.1407 -0.4397
24677SOL    HW177819   9.803   9.698  10.258 -1.9822  0.1241 -1.4803
24677SOL    HW277820   9.684   9.606  10.279 -2.2523  1.1398  2.1406
24678SOL     OW77821   4.013   0.668   6.899 -0.0255 -0.4695 -0.0983
24678SOL    HW177822   3.990   0.727   6.828 -1.1591  0.1719  0.7616
24678SOL    HW277823   3.931   0.625   6.923 -0.0694  0.5989  1.9391
24679SOL     OW77824   7.113   9.539   9.986  0.0012  0.2758 -0.2205
24679SOL    HW177825   7.083   9.535   9.895  3.3326  0.1525 -1.4737
24679SOL    HW277826   7.197   9.492   9.986  1.1620  2.0766  2.4193
24680SOL     OW77827   7.187  10.200   4.870  0.9029  0.5992  1.0393
24680SOL    HW177828   7.111  10.240   4.912  0.2305  0.5229 -0.0703
24680SOL    HW277829   7.259  10.217   4.930  0.0344  0.7581  2.0726
24681SOL     OW77830   7.415   9.917   4.928  0.5939 -0.2663  0.2367
24681SOL    HW177831   7.405  10.009   4.955  0.2886 -0.4491  0.7541
24681SOL    HW277832   7.364   9.911   4.848  2.5967  0.6137 -1.1755
24682SOL     OW77833   9.898   3.492   4.032 -0.3486  0.3218 -0.5769
24682SOL    HW177834   9.969   3.438   4.066  0.8063  1.4289 -1.1504
24682SOL    HW277835   9.878   3.552   4.104 -1.4361 -0.6352 -0.0440
24683SOL     OW77836   8.867   0.991   4.957  0.2988 -0.3704 -0.1401
24683SOL    HW177837   8.837   0.975   5.047  0.2093 -0.3748 -0.1713
24683SOL    HW277838   8.924   0.917   4.938  2.0876  0.7098  0.7024
24684SOL     OW77839   9.628  10.217   9.311 -0.2974 -0.4437 -0.0047
24684SOL    HW177840   9.675  10.134   9.302 -0.1527 -0.5338  1.3696
24684SOL    HW277841   9.596  10.217   9.401 -0.8979  0.6822 -0.1985
24685SOL     OW77842   9.165   5.743   5.735 -0.0917 -0.2162 -0.7288
24685SOL    HW177843   9.191   5.666   5.784 -2.0914 -0.0748  0.6807
24685SOL    HW277844   9.212   5.736   5.652  0.2407 -2.5932 -0.3968
24686SOL     OW77845   4.109   9.748   2.945  0.7386  0.7026 -0.3728
24686SOL    HW177846   4.125   9.748   2.850 -0.3705  1.9616 -0.5919
24686SOL    HW277847   4.188   9.709   2.982  2.1631  2.1953 -1.6789
24687SOL     OW77848   5.382   0.285   7.285  0.0311  0.3472 -0.2364
24687SOL    HW177849   5.317   0.254   7.348 -0.1880  0.3954 -0.4359
24687SOL    HW277850   5.365   0.234   7.205  0.1790  0.4221 -0.3170
24688SOL     OW77851   7.093   3.838   9.863 -0.1640 -0.1316 -0.1924
24688SOL    HW177852   7.059   3.916   9.817  1.0008 -0.0001 -0.8599
24688SOL    HW277853   7.015   3.784   9.877 -0.8276  0.6409 -0.7269
24689SOL     OW77854   4.921   7.772   2.193  0.0439 -0.1457  0.4992
24689SOL    HW177855   4.931   7.677   2.189  0.4486 -0.0927  0.1659
24689SOL    HW277856   4.913   7.799   2.101 -3.2001 -0.1716  0.6699
24690SOL     OW77857   2.285   3.813   7.152 -0.2858  0.2679  1.2252
24690SOL    HW177858   2.217   3.810   7.219 -0.7173  0.4598  0.7992
24690SOL    HW277859   2.344   3.741   7.175  0.5844  1.4522  2.8589
24691SOL     OW77860   3.366   6.398   4.649  0.1625 -0.2589 -0.2193
24691SOL    HW177861   3.290   6.419   4.704  1.0208  1.0013  0.5476
24691SOL    HW277862   3.332   6.337   4.584 -1.4540  0.0868  0.2436
24692SOL     OW77863   4.464   2.795   4.208  0.3401 -0.0023  0.0603
24692SOL    HW177864   4.371   2.794   4.230  0.4795 -1.2723  0.6631
24692SOL    HW277865   4.506   2.740   4.274  1.2352 -1.1662 -1.4076
24693SOL     OW77866   4.495   0.160   6.803  0.2769 -0.1944  0.0612
24693SOL    HW177867   4.407   0.145   6.767 -0.2489 -1.9993  1.8764
24693SOL    HW277868   4.503   0.255   6.807 -0.5448  0.0699 -2.4636
24694SOL     OW77869   2.678   7.068   5.898 -0.3268 -0.1042 -0.3568
24694SOL    HW177870   2.744   7.013   5.941 -0.2358  1.3498  1.4970
24694SOL    HW277871   2.595   7.025   5.917 -0.0546 -1.1637 -1.4675
24695SOL     OW77872   7.835   2.561   4.978  0.8256  0.1298 -0.4702
24695SOL    HW177873   7.870   2.487   4.929 -0.6809  0.3575 -1.9819
24695SOL    HW277874   7.862   2.545   5.068 -1.0080 -3.2867 -0.3585
24696SOL     OW77875   7.522   4.831   3.075 -0.0168 -0.3340  0.5200
24696SOL    HW177876   7.609   4.858   3.103  0.8123 -0.5091 -1.6861
24696SOL    HW277877   7.491   4.773   3.145  1.4166  0.1073  1.5698
24697SOL     OW77878  10.112   9.504   2.373 -0.0884 -0.1344 -0.1511
24697SOL    HW177879  10.124   9.429   2.431 -0.4898  0.6998  1.0381
24697SOL    HW277880  10.201   9.538   2.360 -0.0888  0.2523  0.7800
24698SOL     OW77881   4.108  10.195   7.633 -0.4796 -0.0014 -0.6862
24698SOL    HW177882   4.127  10.237   7.717 -1.4288 -1.7699  0.4636
24698SOL    HW277883   4.154  10.249   7.569 -0.9269  2.2533  0.7841
24699SOL     OW77884   8.861   6.730   7.877  0.1371 -0.0751 -0.1805
24699SOL    HW177885   8.873   6.635   7.882 -1.6057 -0.3114  0.0477
24699SOL    HW277886   8.916   6.757   7.803  2.1484 -0.9420  0.9023
24700SOL     OW77887   8.372   2.607   6.917  0.3436  0.3253  0.6913
24700SOL    HW177888   8.463   2.607   6.946  1.1813 -1.5497 -1.6457
24700SOL    HW277889   8.330   2.539   6.970  0.7921 -0.1501  0.4441
24701SOL     OW77890   3.097   6.752   1.957  0.1336  0.4315  0.1588
24701SOL    HW177891   3.021   6.745   1.899 -0.9529 -1.1813  1.6720
24701SOL    HW277892   3.164   6.796   1.904 -1.0903 -0.1420 -1.9745
24702SOL     OW77893   6.380   5.915   0.721 -0.8018 -0.4964  0.1952
24702SOL    HW177894   6.468   5.950   0.738 -0.3938 -0.7537 -1.2544
24702SOL    HW277895   6.323   5.992   0.721 -0.7979 -0.4439  2.2823
24703SOL     OW77896   5.526   7.010   9.500  0.2553  0.1947 -0.6548
24703SOL    HW177897   5.570   6.957   9.566 -1.9045 -0.8792  0.0532
24703SOL    HW277898   5.506   6.948   9.429 -2.2301 -0.0332  0.1421
24704SOL     OW77899   1.247   8.274   7.866  0.5191  0.7871 -0.3748
24704SOL    HW177900   1.322   8.276   7.807  0.2656  1.3224 -0.6837
24704SOL    HW277901   1.285   8.274   7.954  0.8787  1.3627 -0.5249
24705SOL     OW77902  10.003   3.580   1.236 -0.6264  0.4531  0.4836
24705SOL    HW177903   9.942   3.507   1.228 -1.9059  1.4907  0.5186
24705SOL    HW277904  10.033   3.576   1.327 -1.4613  0.5550  0.7728
24706SOL     OW77905   8.558   0.491   3.860 -0.1861 -0.0012 -0.2364
24706SOL    HW177906   8.543   0.458   3.772  1.4935 -2.2511  0.2278
24706SOL    HW277907   8.504   0.434   3.916  2.6496 -2.1431  0.5718
24707SOL     OW77908   6.771   0.045   0.045 -0.5166 -0.5844 -0.0021
24707SOL    HW177909   6.845   0.077   0.097 -0.9246 -0.4304  0.4963
24707SOL    HW277910   6.797  -0.042   0.015  0.8175  0.3594 -1.7802
24708SOL     OW77911   4.235   5.789   6.884 -0.1594  0.1140 -0.3933
24708SOL    HW177912   4.320   5.804   6.842  0.6284 -0.5957  0.8970
24708SOL    HW277913   4.209   5.702   6.853  0.0454 -0.0730 -0.0464
24709SOL     OW77914   5.057   5.890   8.228  0.6555 -0.0690  0.3697
24709SOL    HW177915   4.985   5.905   8.289  2.1623 -0.3922  2.3662
24709SOL    HW277916   5.042   5.802   8.193 -1.1588  0.7906 -1.1508
24710SOL     OW77917   4.182   2.884   4.220  0.2589  0.8659  0.1020
24710SOL    HW177918   4.134   2.916   4.143  0.1122  2.2257  0.7364
24710SOL    HW277919   4.175   2.955   4.284  1.9646  0.5415  0.7041
24711SOL     OW77920   2.741   9.837   5.477 -0.1828 -0.1198 -0.5610
24711SOL    HW177921   2.710   9.757   5.518  1.6993 -0.4732  0.3012
24711SOL    HW277922   2.763   9.811   5.387  1.2915 -0.8481 -0.0246
24712SOL     OW77923   5.092   6.315   9.836  0.1366  0.2030  0.0337
24712SOL    HW177924   5.130   6.307   9.749 -0.8668  1.2772 -0.5303
24712SOL    HW277925   5.097   6.409   9.856 -0.7425  0.1418  0.6068
24713SOL     OW77926   8.805   8.054   1.569  0.2324  0.1373 -0.1167
24713SOL    HW177927   8.866   7.984   1.593  0.6833  0.9168  1.0922
24713SOL    HW277928   8.859   8.122   1.529 -0.3385 -0.5826 -2.2886
24714SOL     OW77929   3.448   7.851   8.482 -0.7912 -0.1448  0.0007
24714SOL    HW177930   3.429   7.920   8.545  0.4641 -1.0088  1.3841
24714SOL    HW277931   3.363   7.813   8.461 -1.2749  0.5027  0.7577
24715SOL     OW77932   7.348   3.886   0.802 -0.1012  0.1027 -0.4240
24715SOL    HW177933   7.280   3.822   0.824 -1.4473  2.0512  1.5778
24715SOL    HW277934   7.430   3.845   0.830 -0.6291 -1.5128 -1.1019
24716SOL     OW77935   5.546   8.699   0.858 -0.1354  0.2176  0.2170
24716SOL    HW177936   5.514   8.739   0.777 -0.8077 -0.0834  0.3296
24716SOL    HW277937   5.559   8.772   0.918  0.4455  0.4496 -0.1874
24717SOL     OW77938   3.009   3.374   1.683 -0.6460  0.8261  0.1430
24717SOL    HW177939   3.017   3.430   1.606 -0.5382  0.5985 -0.0147
24717SOL    HW277940   3.076   3.405   1.743 -0.7042  0.9790  0.1281
24718SOL     OW77941   5.755   6.637   8.065  0.2244 -0.1648  0.2115
24718SOL    HW177942   5.730   6.585   7.989 -1.3647 -1.6645  1.6693
24718SOL    HW277943   5.846   6.611   8.083  0.3998 -0.2593 -0.7604
24719SOL     OW77944   6.767   0.365   7.240 -0.3664 -0.3033  0.0014
24719SOL    HW177945   6.756   0.335   7.331 -1.6793  0.9019  0.2722
24719SOL    HW277946   6.833   0.435   7.246 -0.5480 -0.1355  0.0517
24720SOL     OW77947   3.501   2.626   4.205 -0.2722 -0.2232 -0.5609
24720SOL    HW177948   3.495   2.714   4.242 -0.6847 -0.8657  0.9329
24720SOL    HW277949   3.578   2.631   4.147  0.1181  0.9306  0.0102
24721SOL     OW77950   4.788   7.303   4.083 -0.9058  0.0080  0.2698
24721SOL    HW177951   4.706   7.263   4.111 -0.5492 -1.9161 -1.2411
24721SOL    HW277952   4.809   7.261   4.000  0.4193  2.1519 -0.5884
24722SOL     OW77953   7.432   3.182   0.460  0.0340 -0.5208 -0.1358
24722SOL    HW177954   7.452   3.109   0.518  1.5691  0.3521  0.4942
24722SOL    HW277955   7.501   3.179   0.394 -1.0993 -0.8759 -1.3426
24723SOL     OW77956   3.813   2.350   9.403  0.3517 -0.5171  0.9054
24723SOL    HW177957   3.874   2.284   9.436  0.1686 -0.5357  1.2108
24723SOL    HW277958   3.800   2.409   9.477 -0.5511 -0.9119  1.0760
24724SOL     OW77959   2.902   7.276   1.149 -0.5673 -0.4040 -0.3042
24724SOL    HW177960   2.940   7.293   1.063  0.4183  1.4002  0.4158
24724SOL    HW277961   2.821   7.326   1.149 -0.8711 -0.8966 -0.3963
24725SOL     OW77962   4.236   2.419   2.604  0.1817  0.0699 -0.1818
24725SOL    HW177963   4.171   2.352   2.625  0.9175 -0.1693  1.4864
24725SOL    HW277964   4.237   2.476   2.681  1.0640  0.7915 -0.7131
24726SOL     OW77965   0.299   4.230   9.189  0.1561  0.4239 -0.2229
24726SOL    HW177966   0.217   4.181   9.198  0.1887  0.2384 -0.9000
24726SOL    HW277967   0.351   4.202   9.264 -0.3686  0.4815  0.1679
24727SOL     OW77968   7.534   6.539   9.169 -0.2818 -0.6519  0.5079
24727SOL    HW177969   7.472   6.476   9.205  0.1771 -0.7319  1.1777
24727SOL    HW277970   7.611   6.487   9.146 -0.7974 -0.7008 -1.2052
24728SOL     OW77971   0.063   9.102   4.152  0.8053 -0.0861 -0.1588
24728SOL    HW177972   0.046   9.009   4.169 -0.4079  0.1483  0.0298
24728SOL    HW277973   0.064   9.142   4.239 -1.4889  0.4978 -0.3439
24729SOL     OW77974   7.367  10.299   1.781 -0.0259 -0.3568 -0.1383
24729SOL    HW177975   7.372  10.290   1.685  0.5360 -1.2924 -0.0330
24729SOL    HW277976   7.280  10.263   1.803 -0.2988  0.1765 -0.3225
24730SOL     OW77977   7.155   0.211   3.823  0.0629 -0.4190 -0.8978
24730SOL    HW177978   7.162   0.161   3.742  0.4271  1.0734 -1.8210
24730SOL    HW277979   7.133   0.300   3.795  2.6067  0.7334  0.4541
24731SOL     OW77980   1.565   7.401   5.665  0.6741 -0.4543 -0.0875
24731SOL    HW177981   1.552   7.496   5.656 -2.1889 -0.7725 -0.1560
24731SOL    HW277982   1.615   7.376   5.588 -0.6956  0.7005 -1.4151
24732SOL     OW77983   9.790  10.108   8.095 -0.0656 -0.2296  0.1848
24732SOL    HW177984   9.714  10.052   8.108  0.3416 -1.1118 -1.1203
24732SOL    HW277985   9.796  10.120   8.001 -0.2563  2.2203  0.4244
24733SOL     OW77986   8.747   7.963   5.880  0.3605 -0.3781  0.2334
24733SOL    HW177987   8.736   8.053   5.910  0.0395 -0.4875  0.4511
24733SOL    HW277988   8.827   7.964   5.828 -0.0381  0.1887 -0.3880
24734SOL     OW77989   8.036   8.008   3.146  0.3616 -0.1703  0.1391
24734SOL    HW177990   8.069   8.002   3.236  1.1707  1.7623  0.0345
24734SOL    HW277991   8.000   8.097   3.140 -1.4173 -0.9066 -0.9165
24735SOL     OW77992   4.526   8.442   0.309 -0.3703 -0.0462 -0.1904
24735SOL    HW177993   4.612   8.405   0.290 -0.7911  0.1022 -2.6982
24735SOL    HW277994   4.539   8.537   0.305 -0.7924 -0.0194 -1.6046
24736SOL     OW77995   1.221   8.442   4.798 -0.8931 -0.2017 -0.1283
24736SOL    HW177996   1.202   8.349   4.808 -0.8066 -0.2581 -0.4799
24736SOL    HW277997   1.240   8.453   4.704 -0.1644  0.0248  0.0339
24737SOL     OW77998   4.295   8.090  10.112 -0.1700  0.0696 -0.2345
24737SOL    HW177999   4.349   8.136  10.176 -1.5328  0.8718  0.3665
24737SOL    HW278000   4.265   8.011  10.157  0.0466 -0.1094 -0.3965
24738SOL     OW78001   6.429   2.408   3.538  0.5189 -0.1926  0.7490
24738SOL    HW178002   6.396   2.318   3.543 -1.6573  0.4525 -0.6478
24738SOL    HW278003   6.462   2.417   3.449 -2.2550  1.2114 -0.2836
24739SOL     OW78004   2.261   8.537   8.396 -0.3190  0.1624 -0.4928
24739SOL    HW178005   2.207   8.542   8.318 -3.7557 -2.4234  1.4468
24739SOL    HW278006   2.233   8.611   8.450 -1.6232 -0.8257  0.2498
24740SOL     OW78007   2.089   0.566   9.516  0.0417  0.3065 -0.1328
24740SOL    HW178008   2.144   0.556   9.438 -1.4803  0.5973 -1.3088
24740SOL    HW278009   2.069   0.660   9.519 -0.1262  0.2542  0.4375
24741SOL     OW78010   7.136   6.161   2.428  0.1484  0.2205 -0.0345
24741SOL    HW178011   7.152   6.073   2.393 -0.8462  0.7681 -2.0298
24741SOL    HW278012   7.042   6.176   2.413 -0.1875  0.8412  2.2404
24742SOL     OW78013   3.547   4.087   5.084 -0.1699 -0.0298 -0.3260
24742SOL    HW178014   3.564   3.999   5.118 -0.3656 -0.0634 -0.3141
24742SOL    HW278015   3.625   4.108   5.033 -0.0666 -0.1593 -0.2225
24743SOL     OW78016   5.411   0.526   5.267  0.0780 -0.3988 -0.2960
24743SOL    HW178017   5.422   0.535   5.361  2.6212 -0.2758 -0.5507
24743SOL    HW278018   5.357   0.447   5.257  0.5663 -0.9664  1.2334
24744SOL     OW78019  10.301   6.851   1.981  0.9429 -0.0468 -0.1441
24744SOL    HW178020  10.388   6.871   2.015  0.7241  0.4610  0.1186
24744SOL    HW278021  10.285   6.917   1.914  0.4631  0.3123  0.3158
24745SOL     OW78022   9.214   9.739   2.975 -0.5026  0.1975  0.1969
24745SOL    HW178023   9.293   9.792   2.965 -0.1032 -0.0906  1.5520
24745SOL    HW278024   9.179   9.731   2.887  0.7913  0.6262 -0.3855
24746SOL     OW78025   3.411   0.714   1.263 -0.3323 -0.0283  0.1979
24746SOL    HW178026   3.494   0.672   1.283 -0.3704  0.2822  1.0260
24746SOL    HW278027   3.403   0.785   1.327 -1.3720 -0.2310  0.3124
24747SOL     OW78028   2.241   4.822   3.909  0.2179 -0.0357  0.3464
24747SOL    HW178029   2.293   4.801   3.986  0.1487  1.5704  0.8794
24747SOL    HW278030   2.256   4.916   3.895 -0.3953 -0.1258 -1.1246
24748SOL     OW78031   9.154   2.053   9.896 -0.2591  0.3935 -0.4267
24748SOL    HW178032   9.062   2.046   9.870 -0.2626  2.7062 -1.2915
24748SOL    HW278033   9.166   2.146   9.915  1.2859 -0.2468  2.2098
24749SOL     OW78034   6.812  10.314   1.185 -0.0792 -0.5115 -0.0882
24749SOL    HW178035   6.871  10.325   1.260 -0.9292  0.1819  0.4993
24749SOL    HW278036   6.870  10.313   1.109  0.6454  1.0773  0.4016
24750SOL     OW78037   2.920   7.563   8.296  0.0227  0.1701 -0.2133
24750SOL    HW178038   2.975   7.641   8.301 -0.4374  0.4562  1.0673
24750SOL    HW278039   2.865   7.577   8.219  0.8212  0.4917 -0.7404
24751SOL     OW78040   8.627   7.735   9.179 -0.2604 -0.3787 -0.1586
24751SOL    HW178041   8.704   7.764   9.130 -1.3690  1.3585 -0.9840
24751SOL    HW278042   8.577   7.683   9.116 -1.1899  1.0073 -0.6117
24752SOL     OW78043  10.330   1.692   8.297  0.0906  0.4769 -0.0760
24752SOL    HW178044  10.358   1.668   8.385  1.4387 -1.6277 -1.0150
24752SOL    HW278045  10.275   1.769   8.310 -2.6728 -1.7581  2.9572
24753SOL     OW78046   9.206   4.208   3.017  0.4230  0.2156  0.6226
24753SOL    HW178047   9.157   4.182   3.096 -0.3651  1.2593  0.4944
24753SOL    HW278048   9.138   4.232   2.954  1.0682  2.7048  0.7778
24754SOL     OW78049   9.466   1.200   8.414 -0.4724 -0.0875 -0.3864
24754SOL    HW178050   9.515   1.281   8.404 -0.1040 -0.2352  0.1538
24754SOL    HW278051   9.376   1.228   8.430 -0.6084  0.1848 -1.5062
24755SOL     OW78052   2.801   0.913   9.546  0.4362 -0.2087 -0.0931
24755SOL    HW178053   2.852   0.989   9.519 -0.8626  0.6706 -0.1904
24755SOL    HW278054   2.855   0.838   9.523  0.3499  0.5302 -3.1535
24756SOL     OW78055   1.655   5.096   5.578 -0.1169  0.4745  0.6134
24756SOL    HW178056   1.670   5.024   5.516 -0.6580  2.2128 -1.6658
24756SOL    HW278057   1.576   5.070   5.626  0.7860 -1.2960  1.2600
24757SOL     OW78058   0.757   8.109   3.562 -0.2901  0.3892 -0.0199
24757SOL    HW178059   0.791   8.106   3.472 -0.1721  1.1731 -0.0091
24757SOL    HW278060   0.683   8.169   3.557  0.0366  0.8460  0.5061
24758SOL     OW78061   0.208   2.566   6.328 -0.4767  0.7229  0.1679
24758SOL    HW178062   0.190   2.633   6.261 -0.2335 -0.0277 -0.6749
24758SOL    HW278063   0.135   2.573   6.389 -1.3911  0.6071 -0.8600
24759SOL     OW78064   4.975   5.645   8.153  0.0345 -0.5139 -0.4053
24759SOL    HW178065   5.024   5.593   8.088  0.1072 -0.7210 -0.1853
24759SOL    HW278066   4.885   5.644   8.121  0.0110 -0.8798 -0.3420
24760SOL     OW78067   7.116   2.934   8.944  0.4129 -0.3725 -0.7107
24760SOL    HW178068   7.114   2.904   8.853  2.0439  0.1134 -0.9394
24760SOL    HW278069   7.183   2.880   8.986  0.5170  0.2021 -0.1176
24761SOL     OW78070   5.164  10.234   1.232  0.0444  0.0228  0.3681
24761SOL    HW178071   5.255  10.254   1.214  0.3323 -1.2781  0.3101
24761SOL    HW278072   5.137  10.175   1.162 -0.2826 -1.0687  1.3639
24762SOL     OW78073   1.516   2.484   9.136 -0.0772  0.0801  0.2767
24762SOL    HW178074   1.543   2.420   9.070  0.7832  1.1625 -0.4737
24762SOL    HW278075   1.586   2.550   9.134 -1.1042  1.2119  0.7793
24763SOL     OW78076   0.435   3.640   9.549 -0.2383 -0.4034  0.2687
24763SOL    HW178077   0.463   3.695   9.622 -1.4469  0.6655 -0.0431
24763SOL    HW278078   0.356   3.597   9.581  0.2237 -1.3203  0.2056
24764SOL     OW78079   4.294   0.292   0.720 -0.6250  0.9692 -0.1602
24764SOL    HW178080   4.264   0.363   0.777 -1.1672 -1.0296  2.2513
24764SOL    HW278081   4.387   0.282   0.741 -0.9220 -0.0532  0.8234
24765SOL     OW78082   4.336   6.613   7.579  0.1673  0.1759 -0.1375
24765SOL    HW178083   4.317   6.598   7.672  0.9237  1.5255  0.2721
24765SOL    HW278084   4.391   6.539   7.554 -0.5406 -0.5168  0.3246
24766SOL     OW78085   3.874   6.136   2.608  0.3497  0.2938  0.2196
24766SOL    HW178086   3.808   6.194   2.647 -0.4563 -0.4405 -0.0380
24766SOL    HW278087   3.825   6.061   2.576  1.4987 -1.0751  1.5092
24767SOL     OW78088   8.074   5.600   6.343  0.2979  0.3668 -0.3107
24767SOL    HW178089   8.129   5.635   6.413 -0.5378  1.2236 -0.0544
24767SOL    HW278090   8.067   5.507   6.362  0.0665  0.5948  0.7735
24768SOL     OW78091   1.314   2.625   4.254  0.4258 -0.1059  0.6556
24768SOL    HW178092   1.267   2.549   4.288  0.9642 -0.3162  0.9391
24768SOL    HW278093   1.329   2.680   4.330 -1.2041  0.9856  0.2436
24769SOL     OW78094   9.176   5.439   8.244  0.2390  0.0694 -0.4706
24769SOL    HW178095   9.108   5.477   8.301  0.4962 -0.8984  0.5321
24769SOL    HW278096   9.213   5.514   8.198 -0.1033  0.8844  0.5190
24770SOL     OW78097   3.197   9.294   9.752  0.1272 -0.0014 -0.3340
24770SOL    HW178098   3.248   9.370   9.780  0.0218 -0.0283 -0.0663
24770SOL    HW278099   3.247   9.219   9.783  1.6429 -0.1650 -2.8757
24771SOL     OW78100   6.414   9.236   1.714  0.1058 -0.3910  0.2718
24771SOL    HW178101   6.482   9.289   1.756  0.4197 -0.3156 -0.3201
24771SOL    HW278102   6.441   9.232   1.622 -0.3190 -0.9498  0.1705
24772SOL     OW78103   1.084   8.211   5.502  0.3724 -0.6396  0.2440
24772SOL    HW178104   1.095   8.294   5.456  0.8138 -0.5968  0.4154
24772SOL    HW278105   1.003   8.221   5.551 -0.8450 -1.1981 -1.5871
24773SOL     OW78106   6.975   1.318   7.413  0.6512 -0.0539 -0.6966
24773SOL    HW178107   7.010   1.390   7.361  0.0407  0.5904 -0.2327
24773SOL    HW278108   7.052   1.268   7.439  0.9559 -0.4779 -2.3178
24774SOL     OW78109   2.587   7.271   3.727 -0.5007  0.0801 -0.1605
24774SOL    HW178110   2.546   7.189   3.755 -1.7414  0.6284 -0.3185
24774SOL    HW278111   2.536   7.299   3.651  0.8262  0.2664 -1.0157
24775SOL     OW78112   4.157   1.561   2.163 -0.0801 -0.2087  0.0124
24775SOL    HW178113   4.199   1.475   2.160  0.8459  0.1809  1.2650
24775SOL    HW278114   4.230   1.623   2.172 -0.7224  0.7372 -1.0238
24776SOL     OW78115   9.920   6.169   7.465 -0.2785 -0.6090 -0.3695
24776SOL    HW178116   9.894   6.193   7.554 -1.4966  3.0667 -1.5256
24776SOL    HW278117   9.837   6.158   7.418  0.3491 -2.1164 -1.1993
24777SOL     OW78118   4.828   3.749   6.501  0.1778  0.1195 -0.3646
24777SOL    HW178119   4.775   3.807   6.556  0.4031 -0.6345  0.6947
24777SOL    HW278120   4.766   3.688   6.463  0.1403 -0.0499 -0.0389
24778SOL     OW78121   6.302   5.454   0.254  0.0185 -0.3738 -0.3149
24778SOL    HW178122   6.249   5.463   0.333 -0.6198  1.2937 -0.9032
24778SOL    HW278123   6.271   5.522   0.195 -1.0347 -2.9180 -2.9306
24779SOL     OW78124   5.757   2.271   1.535  0.1527  0.4459 -0.1104
24779SOL    HW178125   5.736   2.224   1.615  1.8266  0.4882  0.4015
24779SOL    HW278126   5.774   2.202   1.470  0.2879  0.3741 -0.0008
24780SOL     OW78127   2.976   9.639   1.370 -0.1986  0.1092  0.2782
24780SOL    HW178128   2.947   9.550   1.352  1.0062  0.0696 -1.7913
24780SOL    HW278129   2.975   9.646   1.465 -1.1969 -1.7975  0.4526
24781SOL     OW78130   8.942   1.701   6.342  0.3213 -0.2591 -0.5417
24781SOL    HW178131   8.889   1.724   6.419 -0.3049  0.9273 -1.2840
24781SOL    HW278132   8.943   1.781   6.289  1.7081 -0.6966 -1.2257
24782SOL     OW78133   8.784   5.590   1.514  0.5171 -0.0455 -0.2692
24782SOL    HW178134   8.790   5.678   1.478 -0.2505  0.2055  0.1848
24782SOL    HW278135   8.699   5.557   1.484 -0.4221  0.3880  1.6924
24783SOL     OW78136   7.938   2.144   2.254  0.5936  0.2264 -0.4636
24783SOL    HW178137   7.970   2.182   2.335  0.3158 -1.5310  0.5394
24783SOL    HW278138   7.992   2.182   2.185  0.6479  1.9674  0.4970
24784SOL     OW78139   4.353   0.362   6.105  0.6462 -0.3814 -0.7560
24784SOL    HW178140   4.276   0.310   6.080  1.8075 -1.8006 -1.5638
24784SOL    HW278141   4.327   0.407   6.186 -0.7096 -1.5535 -0.5039
24785SOL     OW78142   4.226   2.757   0.185  0.3392  0.1236 -0.3254
24785SOL    HW178143   4.157   2.714   0.236  0.9113  1.0146  1.2406
24785SOL    HW278144   4.261   2.687   0.130 -0.6481 -0.7481  0.1080
24786SOL     OW78145   0.121   6.350   5.267  0.1591  0.9401 -0.2310
24786SOL    HW178146   0.038   6.336   5.222 -0.7378 -0.9239  1.8135
24786SOL    HW278147   0.178   6.280   5.234 -0.0818  0.3768  0.5123
24787SOL     OW78148   7.192   9.529   1.636 -0.0317  0.1328  0.6406
24787SOL    HW178149   7.277   9.485   1.633 -0.5718 -1.0102  1.5680
24787SOL    HW278150   7.141   9.489   1.565  0.1033  0.6258  0.2592
24788SOL     OW78151   2.461   1.980   1.940  0.1424  0.1249 -0.0320
24788SOL    HW178152   2.399   2.029   1.995  0.8975 -1.1344  2.0681
24788SOL    HW278153   2.539   1.971   1.995  1.3072 -0.4058 -1.7128
24789SOL     OW78154   6.663   3.612   5.714 -0.4090 -0.5715  0.5026
24789SOL    HW178155   6.743   3.633   5.667 -0.5851  0.8902  0.8316
24789SOL    HW278156   6.665   3.516   5.724  0.3651 -0.7395 -1.1105
24790SOL     OW78157   9.519   0.608   9.429  0.2311  0.4289  0.3853
24790SOL    HW178158   9.602   0.561   9.422  0.2402  0.0074  2.4710
24790SOL    HW278159   9.543   0.697   9.454  0.1047 -0.0465  2.4559
24791SOL     OW78160   4.883   5.966  10.319  0.2373 -0.1805 -0.4121
24791SOL    HW178161   4.903   5.998  10.406 -0.9889  1.2554 -0.6282
24791SOL    HW278162   4.926   6.029  10.260 -0.5657 -0.0229 -0.8386
24792SOL     OW78163   1.882   4.892   5.598  0.2308  0.8285 -0.2535
24792SOL    HW178164   1.929   4.912   5.517 -0.1298  1.1410 -0.3889
24792SOL    HW278165   1.806   4.950   5.597  0.1519  0.7420  0.2459
24793SOL     OW78166   3.332   1.271   5.248 -0.0060 -0.0683  0.0391
24793SOL    HW178167   3.262   1.287   5.312 -0.3696 -0.0577 -0.3620
24793SOL    HW278168   3.319   1.179   5.223 -0.1646  0.0724 -0.3883
24794SOL     OW78169   7.153   4.558   4.323 -0.0843 -0.2209 -0.0991
24794SOL    HW178170   7.161   4.548   4.418  0.7745  0.9430 -0.0259
24794SOL    HW278171   7.241   4.541   4.289  0.2388  1.8508 -0.4090
24795SOL     OW78172   6.418   8.089   7.495  0.5015 -0.3297 -0.4787
24795SOL    HW178173   6.350   8.035   7.534  0.2461  0.6235  0.4434
24795SOL    HW278174   6.481   8.103   7.566 -0.3086  2.0013 -0.1367
24796SOL     OW78175   8.907   9.678   8.828 -0.0976  0.2618  0.1647
24796SOL    HW178176   8.955   9.612   8.778 -0.2033  0.8266 -0.6851
24796SOL    HW278177   8.823   9.685   8.784 -0.3412  0.4874  0.6592
24797SOL     OW78178   1.551   1.058   2.102 -0.8806  0.2347 -0.0654
24797SOL    HW178179   1.542   1.140   2.152 -0.2512  1.0367 -1.2278
24797SOL    HW278180   1.467   1.048   2.057 -1.0096  0.1625  0.1893
24798SOL     OW78181   4.548   4.660   1.569  0.1899 -0.0719 -0.1501
24798SOL    HW178182   4.570   4.751   1.551 -0.4269 -0.1518 -1.4264
24798SOL    HW278183   4.531   4.622   1.482  1.9659 -1.8127  0.2060
24799SOL     OW78184   2.769   5.240   3.024  0.0853  0.0784  0.6512
24799SOL    HW178185   2.722   5.200   2.950  0.3099 -0.0250  0.5662
24799SOL    HW278186   2.813   5.316   2.987  1.3137 -0.7357  0.3870
24800SOL     OW78187   6.099   6.093   9.167  0.4357  0.6424 -0.3228
24800SOL    HW178188   6.109   6.069   9.074  0.5145 -0.4332 -0.0507
24800SOL    HW278189   6.005   6.086   9.184  0.5269 -0.1210 -0.0869
24801SOL     OW78190   5.581   7.230   1.467 -0.0716 -0.1194  0.0282
24801SOL    HW178191   5.549   7.318   1.489 -1.1839 -0.5702  0.3172
24801SOL    HW278192   5.514   7.195   1.408  0.0865 -0.9562  0.3340
24802SOL     OW78193   5.465   4.262   9.332  0.2311  0.2018 -0.2208
24802SOL    HW178194   5.424   4.190   9.380 -1.3216  0.9117 -0.4333
24802SOL    HW278195   5.544   4.283   9.382 -1.1143  0.6373  1.8130
24803SOL     OW78196   8.086  10.025   6.120 -0.0313 -0.0356 -0.2825
24803SOL    HW178197   8.182  10.016   6.124 -0.1591 -1.3017  0.4362
24803SOL    HW278198   8.066  10.033   6.027  0.8602  1.6324 -0.3871
24804SOL     OW78199   7.616   4.024   6.343 -0.5252 -0.5169 -0.3316
24804SOL    HW178200   7.646   3.948   6.393  0.4052 -0.7021 -1.1498
24804SOL    HW278201   7.574   3.987   6.265 -0.7186 -0.1989 -0.3817
24805SOL     OW78202   0.621   0.250   7.095  0.8089  0.4481 -0.5804
24805SOL    HW178203   0.643   0.337   7.062  1.7741 -0.6877 -3.1807
24805SOL    HW278204   0.573   0.208   7.023 -0.5347 -0.8751  0.9771
24806SOL     OW78205   7.058   4.247   0.780  0.3495 -0.1371  0.0722
24806SOL    HW178206   7.072   4.170   0.725 -2.3532 -0.5875 -0.1395
24806SOL    HW278207   7.056   4.321   0.720 -1.4319 -0.4926 -0.3736
24807SOL     OW78208   5.002   5.719   4.009 -0.3297 -0.0283 -0.2942
24807SOL    HW178209   4.964   5.693   4.092 -0.4293  0.0149 -0.3271
24807SOL    HW278210   4.948   5.793   3.979 -0.8418 -0.6102 -0.8260
24808SOL     OW78211   3.401   4.236   9.765 -0.5011 -0.0348  0.5165
24808SOL    HW178212   3.358   4.187   9.835  0.6833  0.9401  2.0158
24808SOL    HW278213   3.468   4.177   9.731 -1.0517 -0.4986  0.2343
24809SOL     OW78214   0.820   8.669   8.993 -0.6614  0.1702 -0.0327
24809SOL    HW178215   0.880   8.729   9.036  0.6655 -0.4280 -0.9757
24809SOL    HW278216   0.736   8.682   9.037  0.2888  0.6035  1.7142
24810SOL     OW78217   9.978   2.490   4.059  0.0715 -0.9325 -0.3063
24810SOL    HW178218  10.035   2.499   3.982  0.3377 -3.1896 -0.4438
24810SOL    HW278219   9.902   2.545   4.039  0.5168 -0.8207 -1.8316
24811SOL     OW78220   5.881   2.571   2.398 -0.2644  0.3133  0.2954
24811SOL    HW178221   5.872   2.588   2.492 -0.0087 -1.0382  0.5796
24811SOL    HW278222   5.846   2.483   2.386 -1.8988  1.0950 -1.1795
24812SOL     OW78223   2.428   8.596   6.216 -0.1013 -0.2748 -0.6166
24812SOL    HW178224   2.427   8.668   6.278 -0.0773 -1.9971  1.4971
24812SOL    HW278225   2.351   8.610   6.161 -0.8757  0.5878  0.6601
24813SOL     OW78226   9.562   1.274   3.556 -0.1340 -0.0730  0.2871
24813SOL    HW178227   9.492   1.244   3.614 -0.3676 -2.1067 -0.9042
24813SOL    HW278228   9.517   1.293   3.473  0.3906  1.1678  0.2782
24814SOL     OW78229   6.323   9.176   0.512 -0.3237  0.4709  0.0499
24814SOL    HW178230   6.402   9.231   0.512  0.4520 -0.5859 -1.7975
24814SOL    HW278231   6.269   9.211   0.442 -0.2369 -0.5405 -0.5338
24815SOL     OW78232   4.625   0.318   5.998  0.3194 -0.7679  0.2594
24815SOL    HW178233   4.546   0.346   6.044  0.5154  0.2871 -0.0245
24815SOL    HW278234   4.683   0.287   6.067  0.5423  0.6238  0.7315
24816SOL     OW78235   5.710   6.916   1.915 -0.3192  0.0827  0.4907
24816SOL    HW178236   5.708   6.954   1.827  2.2539 -0.5688  0.0647
24816SOL    HW278237   5.776   6.967   1.962 -0.4866 -0.6081  1.5078
24817SOL     OW78238   4.745   1.997   2.409  0.1757  0.3274  0.5343
24817SOL    HW178239   4.743   1.902   2.423 -0.7248  0.2579  0.0097
24817SOL    HW278240   4.823   2.026   2.456  0.7866 -0.7437  0.2334
24818SOL     OW78241   9.194   2.611   0.902 -0.3296 -0.0667 -0.1285
24818SOL    HW178242   9.138   2.683   0.931  0.3430  0.3430  0.1905
24818SOL    HW278243   9.153   2.580   0.821  1.1345  2.9362 -2.2422
24819SOL     OW78244   4.710   8.438   2.945 -0.0292 -0.2888 -0.2824
24819SOL    HW178245   4.713   8.533   2.956  0.9701 -0.4958  1.7366
24819SOL    HW278246   4.623   8.413   2.976 -0.9867  0.0759 -2.4790
24820SOL     OW78247   3.443   8.429   9.651  0.3142  0.0115 -0.6186
24820SOL    HW178248   3.426   8.336   9.663 -1.1531 -0.0221 -2.4522
24820SOL    HW278249   3.435   8.443   9.557 -3.0662  2.5683 -0.1491
24821SOL     OW78250   9.553   2.777   8.411 -0.2131 -0.1411  0.2466
24821SOL    HW178251   9.614   2.815   8.347 -0.3371  2.3349  1.4952
24821SOL    HW278252   9.466   2.796   8.376 -0.2865 -0.7316  0.0968
24822SOL     OW78253   8.171   4.862   3.832  0.0845  0.0958 -0.2739
24822SOL    HW178254   8.119   4.941   3.818 -0.3671 -0.0625  0.4074
24822SOL    HW278255   8.259   4.884   3.802 -0.2332  0.5748 -0.8610
24823SOL     OW78256   2.928   0.541   3.405  0.4498 -0.2360 -0.7939
24823SOL    HW178257   2.955   0.449   3.409  0.2059 -0.3769 -1.9627
24823SOL    HW278258   2.925   0.569   3.496 -1.9773 -2.1002 -0.1935
24824SOL     OW78259   1.183   5.307   7.002  0.3353 -0.2514 -0.2503
24824SOL    HW178260   1.095   5.323   7.036  0.2419  0.4450 -0.8051
24824SOL    HW278261   1.188   5.212   6.991 -0.7110 -0.2087 -1.1855
24825SOL     OW78262   8.856  10.335   5.585  0.1174 -0.0068 -0.8797
24825SOL    HW178263   8.937  10.334   5.533  1.0159  1.2242  0.3981
24825SOL    HW278264   8.876  10.280   5.661 -0.2506  0.2638 -0.5845
24826SOL     OW78265   0.978   6.682   5.540  0.4692 -0.2148 -0.0367
24826SOL    HW178266   0.929   6.733   5.476 -1.3037  1.3023  2.3848
24826SOL    HW278267   0.950   6.592   5.525 -2.4475  0.4819  0.5941
24827SOL     OW78268   4.666   5.652   1.828  0.0095  0.4373 -0.4480
24827SOL    HW178269   4.618   5.663   1.746  0.0420  0.4941 -0.4597
24827SOL    HW278270   4.734   5.588   1.806 -0.9761 -0.7961 -0.0408
24828SOL     OW78271   4.801   1.241   6.833  0.3396  0.2695  0.0213
24828SOL    HW178272   4.759   1.318   6.871 -0.0070 -0.3823  0.9864
24828SOL    HW278273   4.850   1.275   6.758  1.8128  1.7733  1.5696
24829SOL     OW78274   0.315   9.653   0.372 -0.2169  0.0613 -0.4407
24829SOL    HW178275   0.219   9.651   0.371 -0.2230  0.3780 -0.2515
24829SOL    HW278276   0.340   9.641   0.280 -0.4266 -0.5451 -0.4247
24830SOL     OW78277   3.483   3.661   4.248 -0.7311 -0.0681 -0.1805
24830SOL    HW178278   3.418   3.617   4.303  1.0592 -1.9617  0.5595
24830SOL    HW278279   3.562   3.608   4.258  0.4259  1.0918 -2.4935
24831SOL     OW78280   6.810   5.361   9.564  0.1394 -0.3074  0.1430
24831SOL    HW178281   6.790   5.364   9.470  2.6927 -0.5308 -0.4927
24831SOL    HW278282   6.843   5.448   9.585  0.2319 -0.4654  0.6679
24832SOL     OW78283   5.609   4.423   2.935  0.2875  0.3284  0.0132
24832SOL    HW178284   5.701   4.430   2.959  0.4691 -0.2493 -0.4716
24832SOL    HW278285   5.561   4.466   3.006  0.7845 -1.5003  1.5312
24833SOL     OW78286   5.446  10.058   3.735  0.3077 -0.0428  0.3107
24833SOL    HW178287   5.466  10.151   3.721 -0.7887  0.2834  0.7843
24833SOL    HW278288   5.478  10.041   3.824 -0.0873  0.0650  0.4760
24834SOL     OW78289   9.040   7.746   8.508 -0.2258  0.1632 -0.0690
24834SOL    HW178290   9.043   7.741   8.603  0.9335  1.4065 -0.0044
24834SOL    HW278291   9.094   7.673   8.478 -0.1301  0.1052  0.2447
24835SOL     OW78292   2.290   9.201   7.308 -0.6665 -0.2229  0.1170
24835SOL    HW178293   2.282   9.254   7.387 -1.1956 -1.4437  0.9126
24835SOL    HW278294   2.375   9.227   7.271 -0.9710  1.2457  0.3987
24836SOL     OW78295   5.039   3.812   0.472  0.2158  0.0083  0.2130
24836SOL    HW178296   5.008   3.900   0.496 -1.7647 -0.1973 -1.3578
24836SOL    HW278297   4.970   3.776   0.417  0.1970 -3.1682  2.0218
24837SOL     OW78298   3.115   6.690   3.322  0.1555  0.6455 -0.0477
24837SOL    HW178299   3.152   6.675   3.409  0.1343 -2.0429 -0.4101
24837SOL    HW278300   3.178   6.649   3.263 -1.8604 -1.4405 -0.9009
24838SOL     OW78301   7.782   1.341   4.859 -0.2079 -0.4086  0.7533
24838SOL    HW178302   7.850   1.274   4.867 -0.4177 -0.7990 -0.5252
24838SOL    HW278303   7.825   1.414   4.814 -0.9913 -1.2980 -1.6203
24839SOL     OW78304   0.925   6.490   6.442  0.0672  0.2490 -0.7310
24839SOL    HW178305   0.912   6.475   6.536  2.4810  0.2555 -0.3096
24839SOL    HW278306   0.876   6.420   6.399  0.1670 -0.6919  0.6289
24840SOL     OW78307   2.993   1.747   8.045  0.6605  0.3918  0.1371
24840SOL    HW178308   2.989   1.673   8.105 -0.1743  0.5558  0.2998
24840SOL    HW278309   3.061   1.724   7.983  1.9791  0.4833  1.4847
24841SOL     OW78310   4.830   9.793   4.969  0.0899  0.7581  0.3053
24841SOL    HW178311   4.881   9.778   5.048 -1.3681  1.2579  1.3742
24841SOL    HW278312   4.807   9.885   4.972 -0.3594  0.6788 -0.4845
24842SOL     OW78313   5.645   9.132   0.165  0.0591 -0.0733  0.3194
24842SOL    HW178314   5.673   9.046   0.196  0.2299  0.0328  0.4639
24842SOL    HW278315   5.687   9.141   0.079  1.6202  0.6514  1.1149
24843SOL     OW78316   4.039   5.432   6.216  0.0952 -0.6480 -0.0041
24843SOL    HW178317   4.083   5.391   6.141  0.6736  1.1415 -0.7240
24843SOL    HW278318   3.990   5.505   6.177  1.1373  0.8933  1.4126
24844SOL     OW78319   8.138   2.486   7.967  0.1015  0.1274  0.2394
24844SOL    HW178320   8.048   2.493   7.997  0.1201 -1.1311  0.6452
24844SOL    HW278321   8.161   2.575   7.938 -0.9254  0.6740  1.0543
24845SOL     OW78322   8.660   6.665   0.639 -0.0287 -0.2518  0.3370
24845SOL    HW178323   8.752   6.677   0.615 -0.2206  0.7639  0.0736
24845SOL    HW278324   8.613   6.733   0.591 -0.9131 -0.6879  0.5560
24846SOL     OW78325   3.658   9.694   2.791 -0.7130  0.1070 -0.0860
24846SOL    HW178326   3.568   9.668   2.773 -0.4461 -0.7859 -0.1727
24846SOL    HW278327   3.686   9.636   2.862 -1.0016  2.0319  1.7127
24847SOL     OW78328   0.971   6.387   6.719  0.2564  0.2096  0.0365
24847SOL    HW178329   0.916   6.341   6.783  0.5136  1.4125  1.1690
24847SOL    HW278330   0.973   6.478   6.750  1.6288  0.5069 -0.8402
24848SOL     OW78331   6.266   0.238   4.154 -0.2005  0.0198 -0.3369
24848SOL    HW178332   6.300   0.315   4.109  1.3100  0.6113  1.6716
24848SOL    HW278333   6.341   0.204   4.202 -0.9769 -2.4087 -0.7196
24849SOL     OW78334   8.543   4.697   7.589  0.2873  0.4649  0.1262
24849SOL    HW178335   8.452   4.690   7.562  0.0782  1.0373  0.6419
24849SOL    HW278336   8.555   4.790   7.610 -0.2397 -0.1724  4.1272
24850SOL     OW78337   1.542   0.274   6.632  0.4111 -0.0675  0.2309
24850SOL    HW178338   1.525   0.318   6.549  1.3716  0.0993  0.1118
24850SOL    HW278339   1.572   0.343   6.690  0.0456 -0.2402  0.6331
24851SOL     OW78340   9.797   8.965   1.740 -0.2765 -0.2567  0.5198
24851SOL    HW178341   9.746   8.884   1.735 -0.8295  0.1722 -1.4569
24851SOL    HW278342   9.748   9.028   1.687  1.9777  0.3338 -1.0045
24852SOL     OW78343   2.348   7.689   1.829 -0.1055  0.3117  0.2005
24852SOL    HW178344   2.266   7.682   1.877  0.1685 -1.8672  0.4383
24852SOL    HW278345   2.350   7.611   1.772  3.0125 -1.2887  2.2040
24853SOL     OW78346   3.338   2.466   7.868 -0.0175 -0.0056  0.3721
24853SOL    HW178347   3.357   2.432   7.781 -2.0898 -3.3627  1.0537
24853SOL    HW278348   3.424   2.477   7.908  0.8940 -0.7315 -1.2751
24854SOL     OW78349   5.884   9.785   0.576  0.1658  0.6178 -0.1858
24854SOL    HW178350   5.826   9.724   0.530  2.2907 -1.9624  0.2923
24854SOL    HW278351   5.892   9.748   0.664  2.4500  0.8442 -0.2237
24855SOL     OW78352   3.925   2.011   7.220  0.0595 -0.3420 -0.9033
24855SOL    HW178353   3.999   1.986   7.275  0.5142  0.0019 -1.3546
24855SOL    HW278354   3.883   2.082   7.268 -0.0599 -0.6179 -0.5883
24856SOL     OW78355   6.588   5.837   5.796 -0.0079 -0.0676  0.0219
24856SOL    HW178356   6.501   5.816   5.831 -0.3881 -1.4677 -1.6411
24856SOL    HW278357   6.578   5.922   5.753 -0.5936 -0.3192 -0.3337
24857SOL     OW78358   5.201   0.973   8.557  0.6793 -0.2529  0.3875
24857SOL    HW178359   5.214   1.065   8.532  2.3624 -0.7307 -0.6360
24857SOL    HW278360   5.208   0.974   8.652 -1.0661  0.8999  0.5677
24858SOL     OW78361   8.814   3.825   4.440 -0.0591 -0.0694  0.5103
24858SOL    HW178362   8.872   3.775   4.381 -0.5113 -0.3265  0.2823
24858SOL    HW278363   8.750   3.762   4.470 -0.1026  0.1720  0.9299
24859SOL     OW78364   8.026   3.050   3.552  0.0612  0.1449  0.4641
24859SOL    HW178365   7.948   3.024   3.601  0.4589 -0.1931  0.9323
24859SOL    HW278366   8.001   3.041   3.461 -0.6753  0.7278  0.5981
24860SOL     OW78367   9.510  10.304   7.442 -0.1091  0.2141 -0.2897
24860SOL    HW178368   9.474  10.390   7.421 -1.1502 -0.6135 -2.0806
24860SOL    HW278369   9.499  10.253   7.363 -0.4481 -1.8901  1.0401
24861SOL     OW78370   4.051   7.514   1.422 -0.7342  0.2236 -0.0723
24861SOL    HW178371   4.039   7.595   1.472  0.0973  0.3202 -0.0148
24861SOL    HW278372   3.992   7.452   1.464 -1.3171  0.7688 -0.0583
24862SOL     OW78373   9.714   4.639   2.190  0.4626  0.7942  0.4504
24862SOL    HW178374   9.679   4.600   2.270  0.5450 -0.6951 -0.1946
24862SOL    HW278375   9.800   4.598   2.179 -0.6165 -1.1121 -1.7679
24863SOL     OW78376   0.164   6.214   4.084  0.1609  0.2382 -0.0795
24863SOL    HW178377   0.233   6.148   4.075  0.8498  1.1374 -1.6458
24863SOL    HW278378   0.133   6.203   4.174  0.7444 -1.7237 -0.0705
24864SOL     OW78379   9.793   0.197   3.281 -0.4590 -0.4247 -0.2111
24864SOL    HW178380   9.817   0.152   3.200  1.0241 -0.7431  0.3768
24864SOL    HW278381   9.864   0.259   3.296 -1.4058  0.6154  0.1350
24865SOL     OW78382   3.973   0.792   4.113  0.1251 -0.0268  0.4469
24865SOL    HW178383   3.907   0.744   4.064  1.3905  0.6947 -2.1830
24865SOL    HW278384   3.939   0.882   4.118  1.4335  0.7549 -2.3610
24866SOL     OW78385   5.253   4.821   5.020 -0.1291 -0.0148 -0.0904
24866SOL    HW178386   5.265   4.758   4.949 -0.5335 -0.9682  0.6688
24866SOL    HW278387   5.341   4.853   5.040  0.1034 -0.4803 -0.3610
24867SOL     OW78388   3.753   6.058   0.640 -0.1732 -0.2421  0.7738
24867SOL    HW178389   3.839   6.101   0.639  0.4560 -1.2859  3.2069
24867SOL    HW278390   3.712   6.090   0.721 -1.4710 -0.9229  0.4033
24868SOL     OW78391   9.491   3.552   3.677 -0.1381  0.3171 -0.3453
24868SOL    HW178392   9.520   3.506   3.598  0.0683  0.8349 -0.5722
24868SOL    HW278393   9.552   3.524   3.744  0.0775  0.3713 -0.5173
24869SOL     OW78394   5.131   0.840   3.405  0.0377 -0.0820  0.1885
24869SOL    HW178395   5.079   0.775   3.454  0.6205 -0.1453  0.7382
24869SOL    HW278396   5.109   0.924   3.446  0.8941 -0.1915  0.9013
24870SOL     OW78397   0.035   9.523   8.369 -0.0948  0.1050  0.2240
24870SOL    HW178398  -0.045   9.509   8.318  0.8958 -2.7532 -0.7236
24870SOL    HW278399   0.101   9.548   8.305  0.8233 -2.1483  0.1868
24871SOL     OW78400   9.481   3.931   5.622 -0.3396 -0.0928  0.1474
24871SOL    HW178401   9.439   3.940   5.537 -0.2038  0.6752  0.1476
24871SOL    HW278402   9.530   3.849   5.617 -3.0403 -1.8752  0.6892
24872SOL     OW78403  10.204   6.660   4.165  0.1473  0.4875  0.4017
24872SOL    HW178404  10.213   6.625   4.076  0.1461  0.4251  0.4260
24872SOL    HW278405  10.193   6.754   4.153  0.3566  0.5052  0.3464
24873SOL     OW78406   1.955   3.635   2.917  0.2589 -0.1089  0.1523
24873SOL    HW178407   2.001   3.713   2.888  0.4240 -0.2841 -0.0583
24873SOL    HW278408   2.002   3.562   2.876 -1.1380 -0.2202 -1.3649
24874SOL     OW78409   5.686   2.177   5.286  0.4220  0.1601  0.4533
24874SOL    HW178410   5.752   2.246   5.275 -0.1716  0.3436 -3.7810
24874SOL    HW278411   5.733   2.096   5.269  0.3248 -0.1130  1.4523
24875SOL     OW78412   3.467   1.210   4.468 -0.2426  0.1568 -0.0402
24875SOL    HW178413   3.482   1.126   4.426  0.8782  0.5033 -0.3452
24875SOL    HW278414   3.487   1.195   4.560  1.4228  0.4385 -0.3275
24876SOL     OW78415   2.712   8.384   3.502  0.5699  0.2261  0.8274
24876SOL    HW178416   2.779   8.323   3.532 -0.5640 -0.4885  2.0035
24876SOL    HW278417   2.698   8.443   3.576 -2.1251 -1.4326  1.7987
24877SOL     OW78418   9.406   8.863   6.791 -0.0841  0.2664 -0.1529
24877SOL    HW178419   9.475   8.797   6.793  1.6362  1.9381  2.2856
24877SOL    HW278420   9.444   8.935   6.740  0.1217  1.2673  1.3457
24878SOL     OW78421   7.259   6.425   5.702  0.1535  0.0890  0.1973
24878SOL    HW178422   7.355   6.430   5.699  0.1756  0.3717  1.0309
24878SOL    HW278423   7.230   6.513   5.680  0.0476 -0.2063 -0.9050
24879SOL     OW78424   2.689   8.585   7.303 -0.2909 -0.2040  0.3950
24879SOL    HW178425   2.779   8.603   7.276 -0.0413 -0.5450  0.9583
24879SOL    HW278426   2.662   8.663   7.352 -0.0849 -0.3402  0.7321
24880SOL     OW78427   9.415   8.142   1.419 -0.1337  0.0907 -0.3543
24880SOL    HW178428   9.497   8.103   1.387  0.4787  1.5477 -0.6272
24880SOL    HW278429   9.441   8.195   1.495 -0.9868 -0.2246  0.1691
24881SOL     OW78430   4.950   1.287   4.920 -0.1966 -0.2643  0.1836
24881SOL    HW178431   5.009   1.243   4.981  1.5007  0.4492 -0.8447
24881SOL    HW278432   4.862   1.266   4.951  0.5922 -1.2096  1.9118
24882SOL     OW78433   9.581   0.834   6.287  0.5148 -0.1774 -0.3806
24882SOL    HW178434   9.507   0.894   6.273  1.4703  0.7587 -1.5798
24882SOL    HW278435   9.610   0.854   6.376  0.0293  0.2396 -0.3048
24883SOL     OW78436   5.368   7.906   3.000 -0.1448  0.4781 -0.7569
24883SOL    HW178437   5.389   7.813   2.990 -0.3936  0.3985 -0.5507
24883SOL    HW278438   5.310   7.910   3.076 -1.1152  0.6562 -1.4790
24884SOL     OW78439   0.865   1.664   0.558 -0.2715  0.1408 -0.3988
24884SOL    HW178440   0.827   1.730   0.616  1.0746  0.1397  0.5429
24884SOL    HW278441   0.796   1.644   0.495 -1.5004  0.7354  0.7198
24885SOL     OW78442   7.915   1.220   0.055 -0.4606 -0.2292  0.1400
24885SOL    HW178443   7.970   1.291   0.085 -0.5700 -0.4808  0.9586
24885SOL    HW278444   7.848   1.262   0.001  0.3675  0.1035 -0.6557
24886SOL     OW78445   5.692   4.867   7.152 -0.2227  0.0717 -0.3952
24886SOL    HW178446   5.648   4.932   7.207  0.8600 -0.9568  1.8527
24886SOL    HW278447   5.621   4.818   7.111 -1.1334  0.1133  1.0622
24887SOL     OW78448   4.153   6.343   1.120 -0.5003 -0.4560  0.3031
24887SOL    HW178449   4.130   6.363   1.211  1.0360 -0.5788  0.7539
24887SOL    HW278450   4.241   6.305   1.126 -0.3443 -0.3830 -1.2409
24888SOL     OW78451   5.666   5.287   0.706 -0.4394 -0.0485 -0.3875
24888SOL    HW178452   5.652   5.193   0.717 -1.3942 -0.4170 -3.6170
24888SOL    HW278453   5.754   5.293   0.667 -0.4844  0.3823 -0.4260
24889SOL     OW78454   5.752   0.793   5.318  0.3965 -0.0673  0.2685
24889SOL    HW178455   5.788   0.858   5.379 -0.0600  1.1941 -0.7477
24889SOL    HW278456   5.756   0.710   5.365 -0.1847  0.9126  2.0988
24890SOL     OW78457   9.570   1.397   0.850  0.3666 -0.0620  0.1766
24890SOL    HW178458   9.633   1.326   0.831  0.6003 -0.0429  0.8534
24890SOL    HW278459   9.573   1.406   0.945 -0.1069  0.4607  0.1426
24891SOL     OW78460   4.592   9.376   1.358 -0.0164 -0.4485  0.3474
24891SOL    HW178461   4.517   9.412   1.310  1.2521 -0.0361 -1.4015
24891SOL    HW278462   4.601   9.286   1.325  0.1453 -0.5635  0.6979
24892SOL     OW78463   4.854   8.700   5.071  0.1235  0.0347 -0.1676
24892SOL    HW178464   4.883   8.681   5.161  0.7028  1.3986 -0.0531
24892SOL    HW278465   4.853   8.614   5.029  2.4107 -0.3605  0.4046
24893SOL     OW78466   3.446   8.334   2.488  0.0629  0.3150 -0.0790
24893SOL    HW178467   3.510   8.405   2.479  0.4752 -0.0293  0.0589
24893SOL    HW278468   3.498   8.254   2.478 -0.2000  0.0029  0.8799
24894SOL     OW78469   6.061   5.526   8.628 -0.0447 -0.1711  0.2865
24894SOL    HW178470   6.019   5.470   8.563 -0.6034 -1.6684  1.8683
24894SOL    HW278471   6.003   5.602   8.634 -0.3930 -0.3699 -0.4127
24895SOL     OW78472   8.345   3.286   1.029  0.7848  0.6614  0.4942
24895SOL    HW178473   8.319   3.196   1.050 -3.2788  1.4040 -0.5524
24895SOL    HW278474   8.308   3.339   1.100 -0.6177  1.8022 -1.0007
24896SOL     OW78475   0.430   1.501   8.171 -0.2814  0.0772  0.1782
24896SOL    HW178476   0.461   1.562   8.239  1.9861 -0.4114 -0.3360
24896SOL    HW278477   0.337   1.521   8.162  0.3456  3.6076 -0.0626
24897SOL     OW78478   7.268   9.343   9.758 -0.0910 -0.1639 -0.2244
24897SOL    HW178479   7.306   9.420   9.801 -1.6700  1.5652 -1.7343
24897SOL    HW278480   7.290   9.270   9.816  2.9587  1.1040  0.4238
24898SOL     OW78481   9.381   4.717   3.746 -0.3904 -0.6373 -0.4824
24898SOL    HW178482   9.365   4.797   3.696 -1.8936 -1.3512 -1.2091
24898SOL    HW278483   9.304   4.709   3.803  1.0932 -0.0598  1.7181
24899SOL     OW78484   9.716   2.207  10.274 -0.0851  0.0096  0.2241
24899SOL    HW178485   9.676   2.124  10.300  0.7782 -1.7147 -3.3494
24899SOL    HW278486   9.643   2.269  10.272 -0.7949 -0.6273  2.6961
24900SOL     OW78487   8.979   8.416   7.232 -0.3102  0.5877  0.3081
24900SOL    HW178488   8.898   8.366   7.239 -0.9343  1.7441  1.9050
24900SOL    HW278489   8.969   8.487   7.295  0.9719  2.1424 -1.1530
24901SOL     OW78490   9.215   8.092   2.015 -0.1315 -0.1575  0.0362
24901SOL    HW178491   9.175   8.101   1.928  1.2675  0.4923 -0.5750
24901SOL    HW278492   9.247   8.002   2.018 -0.7223 -0.3720  0.1398
24902SOL     OW78493  10.125   4.280   4.546 -0.4130  0.0843 -0.4311
24902SOL    HW178494  10.216   4.299   4.524 -0.0162 -0.5151  0.6423
24902SOL    HW278495  10.129   4.205   4.605 -1.4759  0.9867  0.8725
24903SOL     OW78496   8.199   9.961   1.719 -0.5650 -0.1731 -0.9128
24903SOL    HW178497   8.149   9.895   1.670 -0.1242 -0.4830 -0.9521
24903SOL    HW278498   8.138   9.992   1.786 -0.5539 -1.1508 -0.4274
24904SOL     OW78499   7.580   1.377   2.450  0.5571  0.1197  0.4490
24904SOL    HW178500   7.552   1.469   2.446  0.6960  0.1181 -1.1244
24904SOL    HW278501   7.559   1.350   2.539 -0.1953  1.4558  0.7101
24905SOL     OW78502   6.030   3.311   3.729  0.2825  0.6000  0.0987
24905SOL    HW178503   6.107   3.323   3.784  0.9327 -0.0010 -0.6629
24905SOL    HW278504   6.063   3.271   3.649 -0.9101 -0.3271  0.0309
24906SOL     OW78505   2.297   4.224   2.418 -0.3321  0.5137  0.7156
24906SOL    HW178506   2.287   4.217   2.513 -2.7848 -1.6391  0.4028
24906SOL    HW278507   2.216   4.266   2.389  0.1902  0.7263 -0.4712
24907SOL     OW78508   9.551   9.327   3.384 -0.0703 -0.4678 -0.6261
24907SOL    HW178509   9.492   9.279   3.327 -0.0972 -0.7733 -0.3402
24907SOL    HW278510   9.528   9.299   3.472  0.7583 -0.8784 -0.5318
24908SOL     OW78511   3.159   2.166   1.684  0.0370 -0.3967  0.0102
24908SOL    HW178512   3.200   2.189   1.601  1.9361 -1.1639  0.6704
24908SOL    HW278513   3.083   2.225   1.691  0.1234  0.0198 -1.9992
24909SOL     OW78514   1.148   2.930   6.724  0.5562 -0.1909  0.2441
24909SOL    HW178515   1.101   2.870   6.782  0.3537 -1.1595 -0.8805
24909SOL    HW278516   1.236   2.935   6.762  0.8034 -1.8128 -0.0196
24910SOL     OW78517   2.071   8.887   7.250  0.0958 -0.3946  0.1865
24910SOL    HW178518   2.054   8.885   7.155  1.5099  1.7610 -0.2024
24910SOL    HW278519   2.162   8.913   7.257  0.4759 -2.0415  2.1879
24911SOL     OW78520   9.725   0.811   0.729  0.1323 -0.4319 -0.1540
24911SOL    HW178521   9.814   0.775   0.735  0.1260 -0.4548 -0.1946
24911SOL    HW278522   9.678   0.769   0.801  0.4847  0.5267  0.6572
24912SOL     OW78523   3.411   1.026   2.655  0.1107 -0.1323 -0.5170
24912SOL    HW178524   3.355   1.014   2.579  0.0984 -1.3686 -0.3295
24912SOL    HW278525   3.395   0.949   2.710  0.1259  0.7242  0.7381
24913SOL     OW78526   8.540   6.237   3.681  0.4143 -0.5631  0.3809
24913SOL    HW178527   8.521   6.248   3.774  3.2232  0.4022  0.9373
24913SOL    HW278528   8.632   6.263   3.672  0.1038 -0.1523 -2.7588
24914SOL     OW78529   1.986   8.802   6.101  0.7540  0.2655  0.3844
24914SOL    HW178530   1.903   8.842   6.124  1.0643  0.9984  0.2663
24914SOL    HW278531   1.993   8.815   6.006 -0.5541 -2.7878 -0.2269
24915SOL     OW78532   2.296   6.737   0.893 -0.2478 -0.2727 -0.0974
24915SOL    HW178533   2.287   6.694   0.807 -2.8787  1.3170 -0.7428
24915SOL    HW278534   2.205   6.751   0.921  0.2500 -4.0860  4.8288
24916SOL     OW78535   8.237   8.949   6.717 -0.3311  0.3403  0.3873
24916SOL    HW178536   8.267   9.038   6.734 -1.1188  0.8175 -0.6463
24916SOL    HW278537   8.250   8.937   6.623 -1.4361 -0.1657  0.2856
24917SOL     OW78538   2.123   0.959   5.710  0.0945 -0.2210 -0.5291
24917SOL    HW178539   2.057   0.948   5.642  0.7257 -1.4175 -0.9912
24917SOL    HW278540   2.182   0.884   5.698  1.8010  1.0379 -0.4335
24918SOL     OW78541  10.062   9.519   9.030 -0.0933  1.2574 -0.0912
24918SOL    HW178542   9.968   9.513   9.047  0.0171  2.1826  0.9682
24918SOL    HW278543  10.096   9.574   9.101  1.4279  0.0335  0.1809
24919SOL     OW78544   9.744   7.447   3.845  0.3883  0.2185 -0.1719
24919SOL    HW178545   9.668   7.487   3.888  0.7473 -0.0831  0.7819
24919SOL    HW278546   9.815   7.511   3.857  0.3166  0.4564 -0.9707
24920SOL     OW78547   3.531   2.637   6.307  0.4480  0.1246 -0.3589
24920SOL    HW178548   3.519   2.543   6.302 -3.2259  0.5049 -1.6671
24920SOL    HW278549   3.520   2.659   6.399 -0.5021 -0.5733 -0.2946
24921SOL     OW78550   3.047   5.482   7.631 -0.2890 -0.1986 -0.0761
24921SOL    HW178551   3.034   5.483   7.726  1.1493  0.4804  0.1511
24921SOL    HW278552   3.047   5.389   7.607 -1.6461 -0.3389  0.4197
24922SOL     OW78553   6.049   8.167   8.552 -0.4533 -0.0259  0.3275
24922SOL    HW178554   6.132   8.118   8.552 -0.0694  0.6100  0.5676
24922SOL    HW278555   6.056   8.226   8.478 -0.2985  0.6653  0.8816
24923SOL     OW78556   6.048   2.128   7.206  0.1451  0.1863  0.3841
24923SOL    HW178557   5.967   2.078   7.207  0.0534  0.1852 -1.8807
24923SOL    HW278558   6.021   2.218   7.222 -0.4741  0.3197 -1.1959
24924SOL     OW78559   2.691   7.942   9.560  0.0806 -0.1705 -0.0120
24924SOL    HW178560   2.695   7.920   9.466 -2.8403  0.3030 -0.3448
24924SOL    HW278561   2.664   7.860   9.602 -0.4167  0.0796  0.1597
24925SOL     OW78562   9.371   8.036   7.737 -0.1258  0.1107  0.2366
24925SOL    HW178563   9.463   8.042   7.711 -0.5151  0.0457 -1.2497
24925SOL    HW278564   9.363   8.098   7.809  1.1724 -0.1991  0.6889
24926SOL     OW78565   2.427   5.496   1.115 -0.5080  0.1142  1.2636
24926SOL    HW178566   2.502   5.474   1.058 -0.9454  3.3645 -0.8716
24926SOL    HW278567   2.465   5.551   1.184 -0.7044  0.9658  0.7223
24927SOL     OW78568   0.766   4.015   0.035 -0.2662 -0.2673  0.5548
24927SOL    HW178569   0.681   4.015   0.079 -0.2018 -1.1712  0.7131
24927SOL    HW278570   0.773   3.927  -0.002  0.6675 -0.2568  0.6882
24928SOL     OW78571   9.289   8.062   4.686  0.0341 -0.0401 -0.2416
24928SOL    HW178572   9.348   7.994   4.652  1.3190 -0.5751  2.7299
24928SOL    HW278573   9.345   8.138   4.699 -0.7361  0.6207 -0.7069
24929SOL     OW78574   1.596   2.769   0.879  0.0351 -0.1716  0.0940
24929SOL    HW178575   1.613   2.712   0.953 -0.4369  0.5213  0.7535
24929SOL    HW278576   1.501   2.762   0.864 -0.2686  1.3996  1.0247
24930SOL     OW78577   7.663   1.659   4.668 -0.2287  1.0901 -0.4982
24930SOL    HW178578   7.658   1.723   4.596  2.4890 -1.0325 -2.8255
24930SOL    HW278579   7.754   1.627   4.666 -1.0583 -1.8328  1.4160
24931SOL     OW78580   7.056   9.882   9.105  0.1284 -0.3957  0.9886
24931SOL    HW178581   7.092   9.892   9.193  0.1253  1.0640  0.8405
24931SOL    HW278582   6.983   9.822   9.115 -1.2148  1.3969  2.3736
24932SOL     OW78583   5.009   4.954   6.407 -0.0444  0.0643  0.0910
24932SOL    HW178584   4.968   4.870   6.386 -0.2535  0.6995 -2.2872
24932SOL    HW278585   5.093   4.952   6.361 -0.0110  1.0999  0.0900
24933SOL     OW78586   9.377   9.251   7.204 -0.5193  0.1756 -0.0983
24933SOL    HW178587   9.292   9.226   7.242  0.6433 -0.7917  2.0352
24933SOL    HW278588   9.389   9.342   7.230 -0.1657 -0.1978  1.1111
24934SOL     OW78589   0.497   6.200   1.674 -0.2712 -0.0819  0.7368
24934SOL    HW178590   0.442   6.250   1.734 -0.5247  1.9141 -1.0389
24934SOL    HW278591   0.435   6.156   1.615 -0.0718  1.4047 -0.6660
24935SOL     OW78592   0.307   4.352   9.962  0.2207 -0.0304 -0.3180
24935SOL    HW178593   0.304   4.282  10.027 -1.5061 -1.4516 -1.8128
24935SOL    HW278594   0.220   4.391   9.966  0.0087 -0.2760 -1.8609
24936SOL     OW78595   3.769   1.829   7.102  0.0509 -0.1947  0.7316
24936SOL    HW178596   3.827   1.879   7.159  0.1498 -0.0386  0.4969
24936SOL    HW278597   3.720   1.896   7.053 -0.8113 -0.3168  1.4094
24937SOL     OW78598   8.945   1.713   2.357 -0.3691 -0.1961  0.4185
24937SOL    HW178599   8.912   1.743   2.273 -1.3745  0.5190  1.0338
24937SOL    HW278600   8.943   1.617   2.352 -0.4050 -0.1553 -0.3649
24938SOL     OW78601   7.582   6.338   0.991 -0.1774  0.0835  0.2957
24938SOL    HW178602   7.526   6.392   1.047 -0.1117  1.4044 -0.8561
24938SOL    HW278603   7.567   6.371   0.903  0.8660 -0.9221 -0.2884
24939SOL     OW78604   4.190   8.566   9.476  0.6243  0.0706  0.2230
24939SOL    HW178605   4.265   8.626   9.466  0.3503  0.3500 -0.2100
24939SOL    HW278606   4.120   8.609   9.427 -0.1666  0.4054  1.6102
24940SOL     OW78607   2.609   9.646   8.858 -0.0311 -0.1596 -0.3732
24940SOL    HW178608   2.695   9.674   8.825  0.5231  0.1727  1.2602
24940SOL    HW278609   2.622   9.557   8.890 -0.8302 -0.8858 -1.9769
24941SOL     OW78610   9.044   9.647   5.228  0.3646 -0.1177 -0.3604
24941SOL    HW178611   8.954   9.630   5.203  0.0178 -0.9301  1.2895
24941SOL    HW278612   9.083   9.561   5.243  0.9252  0.2630  0.5030
24942SOL     OW78613   8.002   2.963   8.632 -0.2645  0.5776 -0.1874
24942SOL    HW178614   7.908   2.955   8.648 -0.2058  0.5079  0.1225
24942SOL    HW278615   8.041   2.891   8.681  0.0161  1.0445  0.2996
24943SOL     OW78616   7.243   1.001   2.549  0.4793  0.2069 -0.4937
24943SOL    HW178617   7.287   1.038   2.472  2.8661  0.0990  0.7150
24943SOL    HW278618   7.307   1.010   2.619 -1.5495  0.1197  1.4629
24944SOL     OW78619   2.411   6.192   3.734  0.4317  0.9665 -0.7391
24944SOL    HW178620   2.502   6.198   3.763  0.0947 -1.6837  1.2691
24944SOL    HW278621   2.364   6.256   3.787  0.8015  0.7365 -0.1270
24945SOL     OW78622   6.403   5.179   1.704 -0.2364  0.0175  0.3978
24945SOL    HW178623   6.455   5.202   1.628 -0.9968  0.0337 -0.1304
24945SOL    HW278624   6.376   5.088   1.689 -1.8750  0.5625 -0.2579
24946SOL     OW78625   3.106   3.017   5.670 -0.1987 -0.2368 -0.9575
24946SOL    HW178626   3.135   3.042   5.582 -1.4958  1.3359 -0.9969
24946SOL    HW278627   3.013   3.039   5.672  0.0893  1.1285  1.2430
24947SOL     OW78628   4.649   3.835   3.115  0.8625  0.1538  0.0362
24947SOL    HW178629   4.634   3.741   3.123  1.2586  0.0883  0.0341
24947SOL    HW278630   4.574   3.875   3.159  1.4897 -0.1772  1.4605
24948SOL     OW78631   9.998  10.238   7.697  0.1950 -0.2240 -0.0904
24948SOL    HW178632   9.956  10.279   7.621 -0.3824  1.2963  1.0106
24948SOL    HW278633  10.082  10.206   7.663 -0.1200  0.2777 -1.4011
24949SOL     OW78634   6.250   0.295   4.908 -0.2983 -0.2028 -0.3290
24949SOL    HW178635   6.159   0.281   4.882 -0.3900 -1.9907  0.7816
24949SOL    HW278636   6.301   0.262   4.834 -0.5718 -2.0030  0.2402
24950SOL     OW78637   0.314   1.297   5.740 -0.0868  0.2142 -0.1040
24950SOL    HW178638   0.396   1.342   5.718 -0.8125  1.5135 -0.2675
24950SOL    HW278639   0.246   1.357   5.710 -1.1270  0.3788  2.3936
24951SOL     OW78640   6.918   6.963   6.202 -0.2819  0.7448 -0.1592
24951SOL    HW178641   6.848   6.905   6.172  0.2961 -0.2181  0.3150
24951SOL    HW278642   6.995   6.935   6.152  0.3322  0.1417  1.0717
24952SOL     OW78643   9.039   7.808   6.277 -0.2057 -0.7967 -0.0246
24952SOL    HW178644   9.107   7.752   6.316 -0.0633 -1.4215 -1.1435
24952SOL    HW278645   9.078   7.839   6.196 -1.6643 -2.1175 -1.2829
24953SOL     OW78646   6.599   3.669   6.456 -0.7806  0.5843  0.6279
24953SOL    HW178647   6.588   3.633   6.367  0.2682 -0.1145  0.7609
24953SOL    HW278648   6.601   3.763   6.443  1.0590  0.4484 -0.3215
24954SOL     OW78649   9.409  10.142   3.916 -0.9296  0.1799 -0.1275
24954SOL    HW178650   9.361  10.089   3.853 -0.7080  1.6353 -1.5933
24954SOL    HW278651   9.345  10.206   3.947 -0.5608  0.6312 -0.2852
24955SOL     OW78652   4.644   0.984   0.917  0.1981 -0.8385  0.0743
24955SOL    HW178653   4.638   0.948   0.829 -0.6079 -1.0537  0.2139
24955SOL    HW278654   4.556   0.979   0.952  0.8654 -2.6598  1.6589
24956SOL     OW78655   3.379   5.195   0.120 -0.0065 -0.5202  0.7526
24956SOL    HW178656   3.398   5.166   0.030 -0.4536  1.1300  0.0971
24956SOL    HW278657   3.431   5.275   0.131 -1.0474  0.0757  1.4634
24957SOL     OW78658   6.962   9.644   9.386  0.2813 -0.3720 -0.9396
24957SOL    HW178659   6.953   9.737   9.404 -1.1114 -0.6323 -0.1085
24957SOL    HW278660   6.896   9.602   9.442  0.9040 -1.8582 -1.2594
24958SOL     OW78661   9.633   9.383   1.223  0.2596  0.2773 -0.0367
24958SOL    HW178662   9.585   9.432   1.289 -0.7311 -1.2508  0.4460
24958SOL    HW278663   9.699   9.334   1.273  0.8452  0.6529 -0.4309
24959SOL     OW78664   5.965   2.267   6.727  0.2937  0.0624 -0.5517
24959SOL    HW178665   6.023   2.247   6.800  1.8622 -1.3600 -2.0908
24959SOL    HW278666   5.878   2.237   6.755  0.6616  0.4390  1.0596
24960SOL     OW78667   8.141   2.928   9.868 -0.3652 -0.2573 -0.4797
24960SOL    HW178668   8.056   2.950   9.906 -0.8214 -0.6230 -1.2784
24960SOL    HW278669   8.123   2.857   9.807  0.2616  0.6293 -1.7551
24961SOL     OW78670   9.056   7.305   5.647  0.8860  0.0947  0.1273
24961SOL    HW178671   9.128   7.335   5.702 -0.2727  2.0984  0.6483
24961SOL    HW278672   9.054   7.210   5.659  1.7116  0.2967  2.2596
24962SOL     OW78673  10.226   0.201   8.455  0.2013  1.0264  0.0054
24962SOL    HW178674  10.278   0.183   8.533 -0.7338  1.4243  0.7478
24962SOL    HW278675  10.283   0.178   8.382  0.6218 -0.6695  0.8081
24963SOL     OW78676   2.079   6.656   4.161  0.0145  0.4864  0.1047
24963SOL    HW178677   2.062   6.563   4.145  0.9100  0.4616 -0.8353
24963SOL    HW278678   2.169   6.659   4.193 -0.0513  1.0250  0.2490
24964SOL     OW78679   8.195   3.026   4.286 -0.0232  0.7790 -0.0452
24964SOL    HW178680   8.184   3.094   4.353 -3.0843  0.9392 -0.5544
24964SOL    HW278681   8.148   3.059   4.210 -2.1237 -2.0264 -0.1537
24965SOL     OW78682   5.541   2.016   9.704  0.4107 -0.0085 -0.2504
24965SOL    HW178683   5.585   2.056   9.629 -0.1704  1.4409  0.1507
24965SOL    HW278684   5.554   1.922   9.691  0.8068  0.2278 -1.8624
24966SOL     OW78685   3.394   4.700   0.633  0.3149 -0.1236  0.0643
24966SOL    HW178686   3.424   4.774   0.686  0.0971  0.7581 -0.9998
24966SOL    HW278687   3.337   4.651   0.691 -1.2764  1.7461  0.1807
24967SOL     OW78688   7.260   9.981   3.403  0.3227 -1.0061  0.1417
24967SOL    HW178689   7.232   9.986   3.312 -0.1292 -2.8707  0.1439
24967SOL    HW278690   7.354   9.962   3.398  0.2996 -1.0979  0.0640
24968SOL     OW78691   7.867   4.793  10.248 -0.4865 -0.5892  0.1952
24968SOL    HW178692   7.803   4.859  10.274 -0.9684 -0.8080 -0.4007
24968SOL    HW278693   7.820   4.737  10.186  0.1413 -1.0365  0.1110
24969SOL     OW78694   8.347   8.440   8.641  0.5158  0.3458 -0.5747
24969SOL    HW178695   8.263   8.402   8.665  0.5501 -0.3789 -1.5191
24969SOL    HW278696   8.327   8.532   8.620 -0.1408  0.0556 -1.2802
24970SOL     OW78697   7.626  10.079   4.176  0.3785 -0.0156  0.1799
24970SOL    HW178698   7.685  10.101   4.104 -1.2106 -1.1633 -1.5790
24970SOL    HW278699   7.616   9.984   4.172 -0.4604 -0.0057  1.3348
24971SOL     OW78700   3.529   7.014   5.433 -0.5131 -0.2056  0.2780
24971SOL    HW178701   3.549   7.053   5.518 -0.2272 -1.3075  0.7405
24971SOL    HW278702   3.581   7.063   5.370 -0.2584  0.2321  0.8253
24972SOL     OW78703   4.617   1.154   3.965  0.0184  0.1472  0.5288
24972SOL    HW178704   4.522   1.162   3.963  0.0761  2.1299  2.2577
24972SOL    HW278705   4.650   1.233   3.922  0.8208  0.6980  2.0499
24973SOL     OW78706   8.688   1.428   7.431 -0.0426  0.1837  0.2869
24973SOL    HW178707   8.607   1.406   7.477 -0.3001  0.3237 -0.0895
24973SOL    HW278708   8.757   1.420   7.497 -0.1742 -1.3532  0.2800
24974SOL     OW78709   3.179   1.813   1.930 -0.3037  0.5615  0.1484
24974SOL    HW178710   3.178   1.831   1.836 -0.4649  1.0634  0.2401
24974SOL    HW278711   3.224   1.729   1.938 -1.3816 -0.0965 -0.4749
24975SOL     OW78712  10.251   3.666   7.277  0.0807  0.3869 -0.0527
24975SOL    HW178713  10.203   3.590   7.243  0.2464  1.0497 -1.9071
24975SOL    HW278714  10.213   3.740   7.229  0.7937  1.3138  0.7945
24976SOL     OW78715   3.152   6.062   7.088 -0.5270 -0.0142  0.0632
24976SOL    HW178716   3.172   6.117   7.012  0.4651 -0.1313  0.2232
24976SOL    HW278717   3.235   6.020   7.110 -1.0747 -0.9096  0.4799
24977SOL     OW78718   3.921   7.551   2.939 -0.3107 -0.3517 -0.1509
24977SOL    HW178719   4.002   7.533   2.892  0.0259  0.2088  0.2088
24977SOL    HW278720   3.889   7.633   2.900 -0.8331 -0.6947 -0.4581
24978SOL     OW78721   7.333   0.820   7.967 -0.1296  0.5706 -0.4804
24978SOL    HW178722   7.409   0.870   7.937  0.0680  0.4001 -0.2660
24978SOL    HW278723   7.343   0.816   8.062 -0.6096  0.8744 -0.4119
24979SOL     OW78724   9.768   1.720  10.349  0.6270  0.4576 -1.0379
24979SOL    HW178725   9.839   1.727  10.413  0.8132  1.1368 -1.3180
24979SOL    HW278726   9.730   1.633  10.366  1.1038  0.3531 -0.4576
24980SOL     OW78727   1.339   4.356   2.744 -0.3471 -0.0060  0.3000
24980SOL    HW178728   1.384   4.278   2.712 -0.2727  0.7178 -1.4862
24980SOL    HW278729   1.405   4.402   2.797  0.5674  0.2774 -1.0347
24981SOL     OW78730   8.804   0.402   0.890 -0.3519 -0.0642  0.3262
24981SOL    HW178731   8.771   0.349   0.818  0.6161  0.0420 -0.2115
24981SOL    HW278732   8.737   0.469   0.904  0.3562  1.2082 -1.8908
24982SOL     OW78733   8.079   5.058   0.922 -0.4763 -0.1783 -0.2679
24982SOL    HW178734   8.090   5.011   1.005 -0.2090  0.7835  0.2664
24982SOL    HW278735   7.984   5.061   0.910 -0.4961 -0.8068 -0.2841
24983SOL     OW78736   4.969   3.131   4.150 -0.2385 -0.2591 -0.4199
24983SOL    HW178737   4.904   3.198   4.128  0.8010  0.3445 -1.8551
24983SOL    HW278738   4.934   3.050   4.115 -0.3164  0.0288 -1.0242
24984SOL     OW78739   5.298   5.357   3.607 -0.0828 -0.2846  0.3856
24984SOL    HW178740   5.319   5.380   3.697  0.1318 -0.7332  0.4517
24984SOL    HW278741   5.365   5.401   3.555 -0.2951  0.0980  0.4279
24985SOL     OW78742   5.319   3.398   0.098 -0.1996  0.6888  0.1198
24985SOL    HW178743   5.411   3.389   0.074 -0.1240  0.7711  0.3760
24985SOL    HW278744   5.273   3.338   0.039  0.0099  0.7026 -0.0575
24986SOL     OW78745   2.630   6.920   2.789  0.2376 -0.1792  0.1220
24986SOL    HW178746   2.633   6.926   2.693 -1.0113 -1.6414 -0.0498
24986SOL    HW278747   2.651   6.828   2.808 -0.7103 -0.2104  1.1477
24987SOL     OW78748   8.053   7.625   5.291 -0.6223  0.0157 -0.4026
24987SOL    HW178749   8.120   7.625   5.222 -2.0536 -0.2685 -1.8443
24987SOL    HW278750   8.093   7.575   5.362 -0.3183 -2.6880 -2.3192
24988SOL     OW78751   1.252   8.664   0.007 -0.2095 -0.1571  0.2670
24988SOL    HW178752   1.278   8.572   0.012  0.6139  0.1132  1.1617
24988SOL    HW278753   1.177   8.671   0.066 -0.6158 -0.3631 -0.2200
24989SOL     OW78754   8.193  10.341   0.903 -0.5765 -0.3789 -0.4595
24989SOL    HW178755   8.256  10.361   0.833 -0.3379 -0.0425 -0.1536
24989SOL    HW278756   8.241  10.285   0.963 -1.5368 -2.7923 -1.7977
24990SOL     OW78757   5.201   3.733   9.198 -0.1205  0.1704  0.5980
24990SOL    HW178758   5.225   3.646   9.167 -1.1476 -0.0567  0.4151
24990SOL    HW278759   5.120   3.754   9.152 -0.1456  1.0225  1.0021
24991SOL     OW78760   6.550   4.095   4.174 -0.1983  0.2097 -0.8338
24991SOL    HW178761   6.544   4.032   4.246 -1.0442  1.1081 -0.0922
24991SOL    HW278762   6.643   4.095   4.150  0.1004 -0.1050  0.2606
24992SOL     OW78763   4.657   9.902   5.685  0.1696 -0.6305 -0.6511
24992SOL    HW178764   4.636   9.813   5.655  1.3452 -0.8846 -0.7798
24992SOL    HW278765   4.605   9.913   5.765  0.6079 -1.7567 -0.1861
24993SOL     OW78766   7.489   5.622   6.856  0.9572  0.6070  0.1660
24993SOL    HW178767   7.462   5.592   6.769  1.2024 -0.3142  0.3892
24993SOL    HW278768   7.550   5.554   6.887 -0.6274 -0.1600  1.8502
24994SOL     OW78769   7.661   9.873   7.851  0.4617  0.3100 -0.5869
24994SOL    HW178770   7.584   9.885   7.906  0.4627  0.1366 -0.5477
24994SOL    HW278771   7.705   9.958   7.853 -0.1927  0.6804 -1.3283
24995SOL     OW78772   0.018   4.638   1.669 -0.1015  0.0657  0.7854
24995SOL    HW178773  -0.068   4.680   1.674 -0.0349  0.3678 -0.2752
24995SOL    HW278774   0.080   4.711   1.668  0.1061 -0.1140  0.4588
24996SOL     OW78775   2.655   0.086   5.717  0.0521 -0.3745  0.9829
24996SOL    HW178776   2.729   0.145   5.734  1.6435 -2.4539  1.7614
24996SOL    HW278777   2.671   0.052   5.630 -0.5625 -0.0979  0.7559
24997SOL     OW78778   3.482   4.495   3.137 -0.0040 -0.2018  0.1080
24997SOL    HW178779   3.447   4.565   3.082  1.4442  0.5362  0.0705
24997SOL    HW278780   3.413   4.476   3.199 -1.6693 -0.9941 -1.8596
24998SOL     OW78781   3.466   4.683   0.074  0.0887 -0.4591 -0.1919
24998SOL    HW178782   3.461   4.777   0.059 -0.7945 -0.3847  0.4965
24998SOL    HW278783   3.507   4.648  -0.005 -3.0179  0.0635 -2.1810
24999SOL     OW78784   6.811   6.983   3.590 -0.5016 -0.4091  0.3369
24999SOL    HW178785   6.869   7.028   3.528 -1.6097 -0.0723 -0.4874
24999SOL    HW278786   6.760   6.922   3.536 -1.5443 -0.0501  0.8834
25000SOL     OW78787   8.193   5.367   6.654 -1.0394 -0.6843  0.6436
25000SOL    HW178788   8.208   5.380   6.560  1.0857  0.8950  1.1328
25000SOL    HW278789   8.156   5.279   6.660 -0.9805 -0.9392 -1.6433
25001SOL     OW78790   9.309   2.989   3.722 -0.3014 -0.3321 -0.3600
25001SOL    HW178791   9.341   2.926   3.787  0.3243  1.4562  1.1505
25001SOL    HW278792   9.330   3.075   3.759 -2.4039  0.8348 -1.6697
25002SOL     OW78793   7.861   9.052   0.147 -0.8593  0.1881  0.1831
25002SOL    HW178794   7.918   8.998   0.092 -0.7800  1.2663 -0.8209
25002SOL    HW278795   7.844   8.997   0.224 -2.6622 -2.2450 -1.7746
25003SOL     OW78796   4.313   0.540   9.356  0.0671 -0.2710  0.1426
25003SOL    HW178797   4.406   0.563   9.356 -0.4096  1.7911  0.4802
25003SOL    HW278798   4.287   0.548   9.264 -0.2592  1.3372  0.3566
25004SOL     OW78799   5.111  10.310   6.135  0.2134 -0.3595  0.2253
25004SOL    HW178800   5.127  10.374   6.065  0.9543  1.2267  1.7756
25004SOL    HW278801   5.022  10.279   6.119  0.2732  0.1280 -1.2666
25005SOL     OW78802   7.700   3.152   4.920 -0.4039 -0.7493  0.8266
25005SOL    HW178803   7.661   3.240   4.916 -1.8379 -1.4046 -0.7527
25005SOL    HW278804   7.794   3.167   4.910 -0.8434  0.4474 -2.7894
25006SOL     OW78805  10.061   4.561   3.748  0.1919 -0.3570  0.0330
25006SOL    HW178806  10.005   4.612   3.807  0.9258 -0.2163  0.6131
25006SOL    HW278807  10.036   4.591   3.661 -1.8742 -1.5381  0.1597
25007SOL     OW78808   1.694   6.748   0.173  0.1642  0.0557  0.3765
25007SOL    HW178809   1.614   6.723   0.127 -1.2110  3.0314  0.8716
25007SOL    HW278810   1.724   6.827   0.126  2.3585 -0.5077  0.7325
25008SOL     OW78811   2.547   0.509   4.933 -0.1084  0.3494 -0.2236
25008SOL    HW178812   2.502   0.501   5.017  0.6419  3.5567  0.6261
25008SOL    HW278813   2.587   0.424   4.919 -3.0722 -1.3720  0.9225
25009SOL     OW78814   8.458   1.185   2.021  0.2848  0.4147 -0.7156
25009SOL    HW178815   8.469   1.152   2.110  0.5048 -1.2454 -1.3206
25009SOL    HW278816   8.442   1.107   1.968  2.2747  1.0856 -2.4815
25010SOL     OW78817   5.679   8.906   1.135  0.8252 -0.1921 -0.1135
25010SOL    HW178818   5.738   8.868   1.201  0.9128  0.5710  0.2596
25010SOL    HW278819   5.613   8.952   1.186  2.0560  2.1928 -0.5301
25011SOL     OW78820   8.551   1.390   7.155 -0.8193 -0.0957 -0.1158
25011SOL    HW178821   8.579   1.440   7.079 -0.9703 -0.4064 -0.3760
25011SOL    HW278822   8.597   1.431   7.229  1.2604 -1.2993 -0.6606
25012SOL     OW78823   4.608  10.055   8.634  0.1884 -0.4490 -0.3160
25012SOL    HW178824   4.520  10.025   8.656 -0.7446  1.8651 -0.5271
25012SOL    HW278825   4.647  10.081   8.718  0.1560 -0.2636 -0.3562
25013SOL     OW78826   4.923   3.993   8.726  0.0135  0.1041  0.3860
25013SOL    HW178827   5.014   3.971   8.749  0.4937 -0.0168 -1.4345
25013SOL    HW278828   4.884   3.909   8.703 -0.6776  0.1170  1.4512
25014SOL     OW78829   7.773   5.417   8.077  0.0956  0.2211  0.4239
25014SOL    HW178830   7.801   5.456   8.159  0.2607  0.1735  0.3889
25014SOL    HW278831   7.688   5.459   8.059  0.4263  0.8172  0.2146
25015SOL     OW78832   8.839   1.372   8.264  0.3284  0.1893  0.4201
25015SOL    HW178833   8.828   1.281   8.290  1.4700  0.0985  0.6643
25015SOL    HW278834   8.854   1.369   8.170 -0.4558  0.2107  0.2876
25016SOL     OW78835   0.788   5.378   5.801 -0.1458  0.3358 -0.3797
25016SOL    HW178836   0.720   5.353   5.864 -3.8284  0.7769 -3.7651
25016SOL    HW278837   0.788   5.473   5.802  0.2280  0.3419 -0.5998
25017SOL     OW78838   5.042   5.196   9.112  0.3455 -0.4081  0.5808
25017SOL    HW178839   5.046   5.291   9.128  0.3182 -0.3371  0.1650
25017SOL    HW278840   5.127   5.174   9.075  0.0451 -0.3998 -0.1156
25018SOL     OW78841   2.867   8.597   0.393  0.5300  0.0416  0.7339
25018SOL    HW178842   2.930   8.630   0.329 -0.1611 -0.8338 -0.4168
25018SOL    HW278843   2.782   8.605   0.350  0.3569 -4.2496 -0.1717
25019SOL     OW78844   7.684   0.481   9.821  0.2407  0.4526 -0.4408
25019SOL    HW178845   7.668   0.574   9.806 -1.0261  0.9188  2.8925
25019SOL    HW278846   7.614   0.436   9.775 -2.2144  1.5961  1.9186
25020SOL     OW78847   0.935   3.763   2.779 -0.3332  0.5563  0.2363
25020SOL    HW178848   0.965   3.826   2.844  0.7399  0.1085  0.1806
25020SOL    HW278849   0.986   3.684   2.795  0.4034  0.6327 -1.5216
25021SOL     OW78850   5.092   8.237  10.254  0.0883 -0.0324 -0.0051
25021SOL    HW178851   5.179   8.255  10.291 -0.0331 -1.1875  0.9098
25021SOL    HW278852   5.080   8.142  10.266 -1.1504  0.0520 -0.4513
25022SOL     OW78853   0.472   1.266   5.211 -0.3180  0.4974  0.3367
25022SOL    HW178854   0.408   1.197   5.197  0.5418 -0.4748  1.0268
25022SOL    HW278855   0.529   1.263   5.134 -0.7093  0.9421  0.0220
25023SOL     OW78856   8.651   2.475   9.303 -0.4251  0.1284 -0.6417
25023SOL    HW178857   8.579   2.471   9.366  0.8473 -0.0535  0.8788
25023SOL    HW278858   8.654   2.566   9.275 -0.1953  0.5179  0.5940
25024SOL     OW78859   1.755   6.644   3.980  0.1585 -0.2803  0.2014
25024SOL    HW178860   1.684   6.649   3.916  0.6051  1.3155 -0.2032
25024SOL    HW278861   1.713   6.608   4.058 -0.1068 -3.5888 -1.3017
25025SOL     OW78862   9.939   2.522   2.647  0.9775 -0.0865  0.7048
25025SOL    HW178863   9.942   2.541   2.741  1.4509 -0.8900  0.8578
25025SOL    HW278864   9.995   2.589   2.607 -0.1418  0.9781  0.8569
25026SOL     OW78865   5.422   4.286   5.593  0.1695 -0.1520 -0.4944
25026SOL    HW178866   5.510   4.248   5.589  0.7376  1.2183 -2.6908
25026SOL    HW278867   5.363   4.210   5.588  1.2683 -0.9732 -2.7149
25027SOL     OW78868   3.465   3.456   4.818  1.2465 -0.2069  0.3562
25027SOL    HW178869   3.486   3.366   4.795 -2.0106 -0.8900 -0.4097
25027SOL    HW278870   3.395   3.449   4.882  2.0442  1.8206  1.5426
25028SOL     OW78871   5.848   9.259   3.140 -0.3197  0.7688 -0.1922
25028SOL    HW178872   5.772   9.269   3.083 -0.0433 -0.1892 -0.7611
25028SOL    HW278873   5.836   9.324   3.209 -1.0631  1.4079 -0.9102
25029SOL     OW78874   0.699   3.080   1.564  1.6454 -0.3557 -0.3541
25029SOL    HW178875   0.751   3.125   1.498 -1.0611  2.8690 -0.5259
25029SOL    HW278876   0.647   3.016   1.515  1.6788  0.0796 -0.9639
25030SOL     OW78877   1.570   8.780   5.170 -0.4992  0.5318  0.2305
25030SOL    HW178878   1.540   8.859   5.215  2.5459  1.2214  1.3492
25030SOL    HW278879   1.627   8.813   5.101  0.0619 -0.6571  0.1142
25031SOL     OW78880   0.176   5.748   1.666  0.3583 -0.0615 -0.6894
25031SOL    HW178881   0.140   5.782   1.584 -1.2371 -0.9543 -0.3945
25031SOL    HW278882   0.123   5.671   1.686  0.6688  0.1661  1.2130
25032SOL     OW78883   2.529   2.525  10.072  0.1941  0.2578  0.3587
25032SOL    HW178884   2.610   2.474  10.078 -0.9404 -1.5010  2.2481
25032SOL    HW278885   2.460   2.463  10.096 -1.6524  1.8942 -0.4590
25033SOL     OW78886   5.073   0.874   5.847 -0.0032  0.0216 -0.4929
25033SOL    HW178887   5.114   0.791   5.869 -0.0815  0.0790 -0.1320
25033SOL    HW278888   4.994   0.878   5.901  1.1510  1.3494  1.1881
25034SOL     OW78889   1.200   3.311   9.281  0.0504  0.4755  0.0634
25034SOL    HW178890   1.145   3.237   9.255 -0.6332  0.8214  0.4888
25034SOL    HW278891   1.234   3.287   9.367  0.0699  0.5267  0.0699
25035SOL     OW78892   8.672   9.050   8.645  0.0842  0.3528 -0.4478
25035SOL    HW178893   8.642   8.994   8.575  0.4856  0.7720 -0.9635
25035SOL    HW278894   8.768   9.053   8.635  0.1272  0.5830 -0.0157
25036SOL     OW78895   6.761   8.130   8.982 -0.4400  0.2864  0.2411
25036SOL    HW178896   6.773   8.161   9.072 -0.5046  2.5937 -0.5007
25036SOL    HW278897   6.848   8.102   8.954  0.0319  1.6698  0.2922
25037SOL     OW78898   7.515   7.513   0.759 -0.1246 -0.1060 -0.0529
25037SOL    HW178899   7.584   7.518   0.693  0.6603  1.0014  0.8048
25037SOL    HW278900   7.530   7.589   0.815 -2.0338  0.1506  0.1905
25038SOL     OW78901   5.516   3.076   0.467  0.1076 -0.3903  0.2937
25038SOL    HW178902   5.426   3.058   0.491  0.8332 -1.3269  2.5998
25038SOL    HW278903   5.515   3.083   0.371 -2.1924 -1.5011  0.1856
25039SOL     OW78904   9.012   3.408   4.760 -0.1946  0.2296 -0.1009
25039SOL    HW178905   9.065   3.434   4.685 -1.8659  1.7412 -0.8256
25039SOL    HW278906   8.959   3.335   4.729 -1.0697  1.0175 -0.5192
25040SOL     OW78907   2.341   2.461   8.102 -0.1159  0.2282  0.0083
25040SOL    HW178908   2.404   2.397   8.068  0.5141  0.3888  0.8471
25040SOL    HW278909   2.260   2.442   8.054 -0.0956 -1.5513  0.5770
25041SOL     OW78910   3.457   9.566   1.001 -0.6692  0.4870 -0.1057
25041SOL    HW178911   3.507   9.616   0.936  0.7851 -3.3245 -2.2150
25041SOL    HW278912   3.524   9.521   1.053 -1.8970  1.4589  2.4860
25042SOL     OW78913   1.139   2.126   5.371  0.1351  0.3115  0.6430
25042SOL    HW178914   1.218   2.157   5.327  0.1081  2.2088  1.8404
25042SOL    HW278915   1.078   2.199   5.364 -1.0455 -0.6148  0.9575
25043SOL     OW78916   4.932   7.024  10.285  0.4079  0.1723  0.5249
25043SOL    HW178917   4.956   6.936  10.314 -2.5361 -1.3873 -1.2414
25043SOL    HW278918   4.960   7.027  10.193 -0.4883  0.6394  0.2560
25044SOL     OW78919   2.824   8.457   4.123  0.1702  0.1712  0.1456
25044SOL    HW178920   2.887   8.513   4.168 -0.6047  0.9784  0.2546
25044SOL    HW278921   2.829   8.374   4.170 -1.1799  1.2118  2.3320
25045SOL     OW78922   0.954   4.007   3.517  0.6715  0.2008 -0.2591
25045SOL    HW178923   0.868   4.042   3.540  0.4732  0.3351 -1.1767
25045SOL    HW278924   0.974   3.946   3.588  0.1631  0.7273  0.3550
25046SOL     OW78925   0.895   8.414   1.658  0.2883 -0.1550  0.0871
25046SOL    HW178926   0.941   8.344   1.613 -0.5290 -0.4946 -0.2390
25046SOL    HW278927   0.959   8.485   1.664  0.9153 -0.6867 -0.1626
25047SOL     OW78928   1.584   5.274   5.894  0.3303  0.1552 -0.1130
25047SOL    HW178929   1.586   5.272   5.799  0.7937 -0.3854 -0.0955
25047SOL    HW278930   1.495   5.245   5.916  0.6156 -0.9410 -0.3594
25048SOL     OW78931   3.622   7.041   0.796 -0.2900  0.1465  0.2533
25048SOL    HW178932   3.592   7.126   0.764 -1.3019 -0.2512  0.1081
25048SOL    HW278933   3.706   7.059   0.838 -0.7031  1.2839  0.6137
25049SOL     OW78934   6.376   7.876   1.760  0.3871 -0.2203 -0.2193
25049SOL    HW178935   6.355   7.843   1.848  0.1098  0.2391 -0.1146
25049SOL    HW278936   6.297   7.859   1.709  0.4520 -0.2418 -0.3120
25050SOL     OW78937   3.847   3.561   1.380  0.7383 -0.0456 -0.1917
25050SOL    HW178938   3.755   3.536   1.379  0.8175 -0.4710  1.2684
25050SOL    HW278939   3.866   3.581   1.472  2.7196 -2.4209  0.0399
25051SOL     OW78940   5.603   8.517  10.179  0.1929 -0.2631  0.3589
25051SOL    HW178941   5.682   8.478  10.216  0.5754 -0.8091 -0.9750
25051SOL    HW278942   5.568   8.571  10.250  1.3344 -0.6113  1.2273
25052SOL     OW78943   9.289   7.790   6.085  0.1577 -0.4610 -0.2632
25052SOL    HW178944   9.335   7.870   6.059 -0.9587  0.8777  1.6071
25052SOL    HW278945   9.335   7.761   6.164 -1.2918  0.1170  0.8385
25053SOL     OW78946   4.310   1.497   6.482  0.0940  0.6186 -0.4712
25053SOL    HW178947   4.261   1.494   6.564 -1.4266 -2.1917 -1.3612
25053SOL    HW278948   4.374   1.567   6.496 -0.4126  0.6152  2.8997
25054SOL     OW78949   6.725   2.698   8.987  0.5115  0.0970 -0.0416
25054SOL    HW178950   6.702   2.659   8.903  0.1292  2.8469 -1.3406
25054SOL    HW278951   6.645   2.694   9.039  0.6264 -1.2096  0.0745
25055SOL     OW78952   8.790   6.619   3.577 -0.2522 -0.5444 -0.9678
25055SOL    HW178953   8.749   6.579   3.501 -1.6480 -2.4841  0.6771
25055SOL    HW278954   8.742   6.701   3.590 -0.9461 -0.8804 -1.3785
25056SOL     OW78955  10.230   1.965   8.636  0.6524  0.0002  0.2962
25056SOL    HW178956  10.139   1.958   8.664  0.5025 -0.9163 -0.3588
25056SOL    HW278957  10.279   1.982   8.716 -0.0283 -0.1288  0.7430
25057SOL     OW78958  10.114   6.826   4.896  0.2463 -0.2631 -0.2015
25057SOL    HW178959  10.123   6.888   4.824 -0.9580 -0.6904 -0.7384
25057SOL    HW278960  10.170   6.752   4.871  0.6652  0.0502 -0.1860
25058SOL     OW78961   5.984   1.482   2.747 -0.2935 -0.1988 -0.0410
25058SOL    HW178962   5.993   1.401   2.696 -0.9543 -1.3043  1.5232
25058SOL    HW278963   6.055   1.478   2.811  0.3549  1.0408 -0.6366
25059SOL     OW78964   3.526   2.782   2.898  0.3308 -0.7019 -0.3160
25059SOL    HW178965   3.544   2.716   2.965  1.5568 -0.4141 -0.3484
25059SOL    HW278966   3.611   2.802   2.860 -0.1102  0.4154 -0.7622
25060SOL     OW78967   2.306   6.207   9.928 -0.1444 -0.1613  0.0465
25060SOL    HW178968   2.306   6.149  10.004 -1.4480  1.7431  1.6417
25060SOL    HW278969   2.216   6.203   9.895  0.2679 -0.5339 -1.0289
25061SOL     OW78970   1.280   4.801   2.279 -0.1939  0.1913 -0.3199
25061SOL    HW178971   1.317   4.780   2.365 -0.4488  1.1053  0.0288
25061SOL    HW278972   1.235   4.885   2.292 -2.7996 -1.0560 -0.5875
25062SOL     OW78973   0.075   3.253   1.723 -0.2720 -0.7140  0.4946
25062SOL    HW178974   0.054   3.160   1.721 -0.8608 -0.5792  0.0180
25062SOL    HW278975   0.114   3.271   1.637  1.3647 -0.8463  1.1724
25063SOL     OW78976   0.230   8.584   8.832 -0.2998  0.3440  0.0285
25063SOL    HW178977   0.183   8.576   8.749 -0.8050 -0.3293  0.3588
25063SOL    HW278978   0.165   8.559   8.898 -0.2694  2.0636  0.7396
25064SOL     OW78979   2.712   3.534   7.339  0.0595 -0.2187 -0.3945
25064SOL    HW178980   2.751   3.457   7.380 -1.2498 -0.0830  1.2299
25064SOL    HW278981   2.780   3.601   7.344  0.2188 -0.4517  0.8732
25065SOL     OW78982   8.520   1.637   5.729  0.0332 -0.3758 -0.3051
25065SOL    HW178983   8.448   1.575   5.721  0.3277 -0.9612  1.2474
25065SOL    HW278984   8.599   1.584   5.726  0.3688  0.1374 -0.8429
25066SOL     OW78985   0.440   8.897   7.198 -0.3381  0.2367 -0.2763
25066SOL    HW178986   0.487   8.827   7.154 -0.1573 -0.9883  1.7548
25066SOL    HW278987   0.357   8.905   7.150 -0.5701 -1.7108 -0.2564
25067SOL     OW78988   2.551   5.274   3.961  0.2870  0.0940  0.5828
25067SOL    HW178989   2.633   5.316   3.938 -0.5675  1.0057 -1.0255
25067SOL    HW278990   2.567   5.234   4.046  2.4125  0.1229  0.2482
25068SOL     OW78991   7.728   0.921   7.607  0.0858 -0.5695  0.1139
25068SOL    HW178992   7.767   0.835   7.623 -1.1459 -1.1109  0.3864
25068SOL    HW278993   7.696   0.916   7.517  0.3310 -0.2695  0.0103
25069SOL     OW78994   9.594   9.216   5.217  0.6803  0.4512 -0.2383
25069SOL    HW178995   9.688   9.217   5.199  0.4358  0.8450 -1.5491
25069SOL    HW278996   9.557   9.284   5.160 -0.4640 -0.0548 -0.1289
25070SOL     OW78997   0.334   0.607   4.442  0.3632  0.0853  0.3554
25070SOL    HW178998   0.356   0.595   4.349  1.1261 -0.2944  0.5736
25070SOL    HW278999   0.402   0.666   4.474  1.6953 -1.8486  1.2702
25071SOL     OW79000   2.186  10.100   9.097 -0.2151  0.1364  0.3464
25071SOL    HW179001   2.206  10.059   9.013  1.0560  0.5651  0.4177
25071SOL    HW279002   2.094  10.126   9.090  0.1775  1.2617 -1.4044
25072SOL     OW79003   6.185   6.422   2.118  1.0157  0.4472 -0.3595
25072SOL    HW179004   6.098   6.384   2.107  2.3062 -4.0460  2.2711
25072SOL    HW279005   6.238   6.383   2.049  1.4826  1.1342 -0.4002
25073SOL     OW79006   4.875   5.852   8.446  0.3280 -0.4650 -0.5686
25073SOL    HW179007   4.790   5.825   8.480 -0.0109  0.2349 -0.8414
25073SOL    HW279008   4.930   5.862   8.523 -0.0019 -0.3593 -0.3478
25074SOL     OW79009   0.818   7.864   7.302  0.1799  0.3285 -0.4744
25074SOL    HW179010   0.825   7.951   7.341  1.6562 -0.3097  0.8313
25074SOL    HW279011   0.808   7.805   7.377  0.2607 -0.7150 -1.2626
25075SOL     OW79012   5.069   5.549  10.138  0.1388 -0.3726 -0.2593
25075SOL    HW179013   5.163   5.543  10.123  0.4048  0.7713  0.8388
25075SOL    HW279014   5.060   5.559  10.232 -1.1617 -1.6151 -0.2279
25076SOL     OW79015   1.878   5.106   2.777 -0.0397  0.3293 -0.1603
25076SOL    HW179016   1.943   5.176   2.785  0.1028  0.1554  0.2017
25076SOL    HW279017   1.809   5.131   2.839 -0.4105  0.6079 -0.6707
25077SOL     OW79018   6.140   7.299   9.774  0.1985  0.2730 -0.2169
25077SOL    HW179019   6.132   7.265   9.685  2.3792 -0.0102 -0.3628
25077SOL    HW279020   6.160   7.221   9.827 -1.5538  0.3626  0.6431
25078SOL     OW79021   4.133   0.191   6.056 -0.0536  0.3925  0.7163
25078SOL    HW179022   4.131   0.116   6.116 -2.9622  1.0368  1.6147
25078SOL    HW279023   4.059   0.176   5.997 -0.4296  2.3045  0.6349
25079SOL     OW79024   3.209   5.108   2.268  0.1400 -0.2150 -0.1831
25079SOL    HW179025   3.116   5.085   2.273  0.2261 -0.8171 -1.0584
25079SOL    HW279026   3.242   5.055   2.195  1.0125  0.5342 -0.3434
25080SOL     OW79027   8.408   1.193   6.229 -0.1698  0.0741  0.0491
25080SOL    HW179028   8.436   1.254   6.160  2.7827 -0.1383  0.9139
25080SOL    HW279029   8.353   1.129   6.184  0.8789  0.4883 -1.9251
25081SOL     OW79030   3.008   3.422   5.870 -0.2955 -0.3329  0.1505
25081SOL    HW179031   3.075   3.362   5.903 -0.7706 -1.5666 -1.0686
25081SOL    HW279032   3.056   3.482   5.813  0.0026 -0.2367  0.4979
25082SOL     OW79033   8.206   7.072   9.930  0.1197 -0.0467  0.1643
25082SOL    HW179034   8.237   7.052   9.841  1.8564  0.9702  0.4936
25082SOL    HW279035   8.143   7.002   9.949  0.8333 -1.1555 -1.3012
25083SOL     OW79036   3.028   7.084   5.705 -0.0296  0.2157 -0.0327
25083SOL    HW179037   2.967   7.037   5.648 -1.0858  1.4996 -0.0086
25083SOL    HW279038   3.112   7.081   5.659 -0.1728 -1.2699 -0.2400
25084SOL     OW79039   7.806   6.628   7.840 -0.3626 -0.0002 -0.1375
25084SOL    HW179040   7.871   6.687   7.803  0.0523  0.2798  0.9860
25084SOL    HW279041   7.844   6.541   7.831 -1.7892 -0.4403 -3.5635
25085SOL     OW79042   6.302   0.931   8.111  0.3386  0.2464  0.1733
25085SOL    HW179043   6.355   0.871   8.164  0.4426 -0.3127 -0.5333
25085SOL    HW279044   6.356   0.950   8.035  0.4686  1.5874  0.5785
25086SOL     OW79045  10.195   2.118   1.093 -0.2104 -0.4804 -0.2037
25086SOL    HW179046  10.123   2.165   1.051  0.6324  1.8397  0.7661
25086SOL    HW279047  10.269   2.128   1.033 -0.1708 -1.1761 -0.2859
25087SOL     OW79048   4.358   3.532   0.265  0.5554  0.5173  0.0441
25087SOL    HW179049   4.270   3.496   0.281  0.9810 -1.4100 -1.5653
25087SOL    HW279050   4.417   3.460   0.285  1.6257  1.0605 -1.0618
25088SOL     OW79051   6.477   4.580   3.650 -0.1341  0.4874  0.0061
25088SOL    HW179052   6.446   4.593   3.740 -1.4277  0.4447 -0.4134
25088SOL    HW279053   6.399   4.552   3.602  0.5284  0.5864 -1.1516
25089SOL     OW79054   0.703   1.888   0.470  0.2722 -0.1936 -0.1303
25089SOL    HW179055   0.768   1.859   0.406 -0.7040 -1.3452 -0.6265
25089SOL    HW279056   0.620   1.857   0.436 -0.4071  0.1442  1.1505
25090SOL     OW79057   7.448   7.018   2.914 -0.0304 -0.0810  0.7860
25090SOL    HW179058   7.413   6.944   2.964  0.2621 -0.8744 -0.1379
25090SOL    HW279059   7.470   6.980   2.828  0.1066  1.0899  0.2870
25091SOL     OW79060   1.104   5.000   7.588 -0.3162 -1.0911  0.2046
25091SOL    HW179061   1.044   5.073   7.572  1.7752  0.5024 -0.9390
25091SOL    HW279062   1.184   5.042   7.621  1.1625 -2.7610 -1.0327
25092SOL     OW79063   1.992   5.729   2.358  0.0453  0.7915  0.6596
25092SOL    HW179064   1.971   5.815   2.396  0.1096  1.0764  0.0648
25092SOL    HW279065   1.989   5.744   2.263  0.5596  0.2552  0.5585
25093SOL     OW79066   7.652   7.683   0.986  0.2389 -0.4754  0.1521
25093SOL    HW179067   7.722   7.699   0.924 -1.5529 -1.4157 -2.2848
25093SOL    HW279068   7.671   7.596   1.022  0.8534 -0.2851  0.2896
25094SOL     OW79069   2.423  10.031   5.344 -0.9095 -0.5547 -0.1872
25094SOL    HW179070   2.396   9.970   5.413  1.3466  1.2043  2.4735
25094SOL    HW279071   2.483   9.981   5.289 -0.9152 -1.3836  0.5430
25095SOL     OW79072  10.023   2.839   3.632 -0.9821 -0.5169  0.2908
25095SOL    HW179073  10.065   2.761   3.668 -1.2575 -0.9716 -0.3665
25095SOL    HW279074  10.095   2.900   3.617 -0.7325 -0.7440  0.5463
25096SOL     OW79075   7.056   0.395   4.196  0.3246 -0.3505  0.8791
25096SOL    HW179076   7.036   0.301   4.194  0.5045 -0.5040  3.4514
25096SOL    HW279077   7.151   0.399   4.208  0.2727  0.1321  1.1645
25097SOL     OW79078   5.624   0.746   0.543 -0.0615  0.1343 -0.0367
25097SOL    HW179079   5.528   0.752   0.543 -0.1581 -0.4318 -2.4573
25097SOL    HW279080   5.653   0.833   0.515  0.2370  0.6333  1.6760
25098SOL     OW79081   5.908  10.185   1.991 -0.5131 -0.2431  0.0094
25098SOL    HW179082   5.871  10.227   1.913  1.0637  0.6912 -0.2906
25098SOL    HW279083   5.976  10.127   1.956 -0.4069 -0.4984  0.6315
25099SOL     OW79084   6.076   8.463  10.029 -0.0634  0.2786  0.3569
25099SOL    HW179085   6.074   8.452   9.934  0.3128 -0.8453  0.4655
25099SOL    HW279086   6.123   8.546  10.043  1.5219 -0.4500 -0.3957
25100SOL     OW79087   2.886   9.802   5.905  0.1934 -0.5388  0.1762
25100SOL    HW179088   2.846   9.724   5.867  0.9217 -1.1441  0.6048
25100SOL    HW279089   2.826   9.830   5.974 -0.1857 -0.5812 -0.1378
25101SOL     OW79090   3.989   0.108   1.258 -0.0803  0.1551 -0.6881
25101SOL    HW179091   4.061   0.047   1.272 -0.5401 -0.3380 -0.4157
25101SOL    HW279092   4.030   0.188   1.225  0.6751  0.1409  0.1699
25102SOL     OW79093   3.176   3.421   4.235  0.5739  0.2689 -0.6609
25102SOL    HW179094   3.221   3.353   4.184  1.4174  0.9437 -0.8171
25102SOL    HW279095   3.156   3.489   4.171  0.8032  0.7041 -0.2692
25103SOL     OW79096   8.860   2.774   9.434 -0.1086  0.1746  0.7447
25103SOL    HW179097   8.901   2.775   9.521 -0.3753  0.8255  0.8740
25103SOL    HW279098   8.920   2.724   9.379  0.0006 -0.3478  1.3343
25104SOL     OW79099   4.250   3.229  10.355  0.0130  0.1121  0.6544
25104SOL    HW179100   4.225   3.138  10.372 -1.8580  0.8566  2.1882
25104SOL    HW279101   4.181   3.281  10.397 -0.9222  2.2468 -3.1027
25105SOL     OW79102   5.666   9.066   3.715 -0.3869  0.6648  0.1276
25105SOL    HW179103   5.601   8.997   3.703 -1.6115  1.7835  0.0561
25105SOL    HW279104   5.650   9.099   3.803 -0.9145  1.9001 -0.3980
25106SOL     OW79105   3.497   0.402   3.575 -0.3555  0.8467  0.5464
25106SOL    HW179106   3.500   0.376   3.482  1.4114 -2.1776  1.2933
25106SOL    HW279107   3.405   0.418   3.592 -0.7386  1.4541 -1.7163
25107SOL     OW79108   4.735   3.075   1.368  0.0575 -0.7022 -0.4714
25107SOL    HW179109   4.829   3.091   1.382  0.7261 -1.4431 -3.4057
25107SOL    HW279110   4.730   2.981   1.350 -1.5060 -0.9388  0.9827
25108SOL     OW79111   4.162   0.372   4.411  0.1298 -0.0276 -1.0704
25108SOL    HW179112   4.198   0.407   4.330  1.5576 -0.7801 -0.8066
25108SOL    HW279113   4.201   0.285   4.419 -0.4433 -0.2062  0.1258
25109SOL     OW79114   3.056   1.875   6.356  0.2064  0.1565  0.2275
25109SOL    HW179115   3.128   1.937   6.366  0.4280 -0.2475  1.2513
25109SOL    HW279116   2.979   1.923   6.387  0.0744  0.5045 -0.6318
25110SOL     OW79117   8.797   1.754   9.777  0.0654  0.8045  0.4814
25110SOL    HW179118   8.773   1.720   9.691  1.0441  1.6811 -0.1746
25110SOL    HW279119   8.839   1.680   9.821  0.9079  0.7293 -0.3877
25111SOL     OW79120   3.539   9.186   1.301  0.1467  0.8774  0.5129
25111SOL    HW179121   3.546   9.209   1.394 -1.0165 -0.9992  1.1128
25111SOL    HW279122   3.447   9.198   1.280  0.2425  0.4523 -0.1743
25112SOL     OW79123   4.393   4.839   0.907  0.0296 -0.5379  0.6220
25112SOL    HW179124   4.352   4.784   0.973 -1.1028  0.5591  0.8672
25112SOL    HW279125   4.416   4.919   0.954 -0.5396  0.1436 -0.2381
25113SOL     OW79126   2.274   8.545   1.837  0.0382 -0.1747 -0.2070
25113SOL    HW179127   2.333   8.530   1.763  0.4800  1.3235 -0.1837
25113SOL    HW279128   2.332   8.572   1.908 -0.6012  0.6326  0.0198
25114SOL     OW79129   3.439   0.800   6.486  0.2406 -0.0384 -0.0563
25114SOL    HW179130   3.399   0.876   6.527  1.5090 -0.8392  2.9204
25114SOL    HW279131   3.529   0.827   6.467 -0.1604  0.1332 -2.0031
25115SOL     OW79132   5.073   1.733   9.870 -0.2728 -1.3286 -0.2639
25115SOL    HW179133   5.024   1.782   9.804 -1.6946 -0.0736  1.6045
25115SOL    HW279134   5.041   1.643   9.861  1.1045 -1.6735 -2.5938
25116SOL     OW79135   4.528   8.073   9.974  0.7907 -0.2511 -0.4200
25116SOL    HW179136   4.531   7.993   9.921  1.1265 -1.4114  1.2659
25116SOL    HW279137   4.436   8.082   9.997  0.6157  0.3547 -1.3044
25117SOL     OW79138   1.589   9.972   5.827 -0.3521 -0.0625 -0.0433
25117SOL    HW179139   1.526   9.931   5.886 -1.4976  0.6436 -0.7374
25117SOL    HW279140   1.622   9.899   5.773 -3.5161 -0.0184 -2.3337
25118SOL     OW79141   3.657   0.671   0.151 -0.2803 -0.1538 -0.3799
25118SOL    HW179142   3.578   0.690   0.100 -0.6967 -0.9801 -0.0630
25118SOL    HW279143   3.628   0.609   0.218  0.4675  0.1600  0.2559
25119SOL     OW79144   4.369   3.362   4.135 -0.3635  0.3086 -0.7505
25119SOL    HW179145   4.300   3.371   4.069 -0.9633  0.5200 -0.1021
25119SOL    HW279146   4.423   3.440   4.124 -1.6974  1.4611  0.4052
25120SOL     OW79147   4.662   8.488   4.632 -0.0723 -0.3589 -0.4614
25120SOL    HW179148   4.753   8.488   4.661 -0.5991 -0.5964  1.3176
25120SOL    HW279149   4.612   8.459   4.709 -1.9029  2.1817 -0.5458
25121SOL     OW79150   5.212   9.090   5.589  0.4804 -0.0125  0.3310
25121SOL    HW179151   5.207   9.045   5.673  2.9262  0.6325  0.9021
25121SOL    HW279152   5.205   9.020   5.524  0.2445 -0.7140  1.0994
25122SOL     OW79153   3.942   8.216   3.531  0.0496 -0.1414  0.1488
25122SOL    HW179154   3.853   8.202   3.499  0.0933 -0.3470  0.1136
25122SOL    HW279155   3.931   8.228   3.626  0.0382 -0.7317  0.2270
25123SOL     OW79156   7.164   9.405   1.368  0.3093 -0.1474 -0.1364
25123SOL    HW179157   7.116   9.362   1.297 -0.5199  0.3047  0.1399
25123SOL    HW279158   7.196   9.486   1.329  0.2624 -0.1238 -0.1272
25124SOL     OW79159   1.910   1.137   8.524 -0.2096 -0.3745  0.2957
25124SOL    HW179160   1.902   1.124   8.429  0.7006  0.1995  0.1244
25124SOL    HW279161   1.840   1.083   8.562 -0.2630 -1.0146 -0.6722
25125SOL     OW79162   6.136   1.183   3.032 -0.3112 -0.7142  0.1072
25125SOL    HW179163   6.044   1.209   3.040 -0.3121 -0.0085 -1.7253
25125SOL    HW279164   6.175   1.251   2.978  1.5077 -0.5806  1.4910
25126SOL     OW79165   5.249   6.452   6.217 -0.0726  0.1155 -0.2079
25126SOL    HW179166   5.300   6.532   6.201 -0.9030  0.7053  0.0156
25126SOL    HW279167   5.300   6.382   6.175  1.0457  0.6417  0.2358
25127SOL     OW79168   6.742   7.127   5.244  0.4721  0.1228  0.0960
25127SOL    HW179169   6.812   7.072   5.209 -1.3272 -2.4208  0.2031
25127SOL    HW279170   6.682   7.065   5.286 -1.7033  2.2162  0.2781
25128SOL     OW79171   7.496   4.888   8.376 -0.2786  0.0687 -0.0730
25128SOL    HW179172   7.443   4.955   8.333  0.8379  0.2571 -1.2177
25128SOL    HW279173   7.556   4.936   8.432 -1.2865 -0.1464  1.2381
25129SOL     OW79174   8.772   9.679   3.829  0.0151  0.0924  0.2224
25129SOL    HW179175   8.850   9.726   3.801  0.6164 -0.1021  1.4843
25129SOL    HW279176   8.701   9.743   3.819  0.4788  0.5632 -0.0848
25130SOL     OW79177   6.510  10.078   0.744  0.4810 -0.3414  1.2927
25130SOL    HW179178   6.510  10.161   0.792  0.6115 -0.6391  1.8142
25130SOL    HW279179   6.601  10.063   0.722  0.1696  1.1445 -1.4581
25131SOL     OW79180   4.129   1.064   8.576 -0.0395  0.3704  0.2428
25131SOL    HW179181   4.107   1.052   8.668  0.8607  0.4245  0.4738
25131SOL    HW279182   4.189   0.991   8.556  0.4466  0.8474 -0.0587
25132SOL     OW79183   0.713   4.756   5.381  0.3045 -0.0344 -0.5189
25132SOL    HW179184   0.620   4.760   5.405 -0.0435 -1.5437 -1.4806
25132SOL    HW279185   0.713   4.713   5.296  1.7419  2.0036 -1.6181
25133SOL     OW79186   2.983   5.727   5.240  0.2778  0.2888 -0.0554
25133SOL    HW179187   2.932   5.672   5.180 -0.6122  0.5980  0.4106
25133SOL    HW279188   3.033   5.665   5.293 -0.6266 -0.0790  0.3839
25134SOL     OW79189   7.367   0.701   9.252  0.4222  0.1319 -0.0011
25134SOL    HW179190   7.313   0.780   9.248 -0.9812 -0.7529  0.6724
25134SOL    HW279191   7.352   0.656   9.169  1.8864  0.9471 -0.7493
25135SOL     OW79192   4.407   6.299   3.350 -0.3164  0.0625 -0.1401
25135SOL    HW179193   4.439   6.354   3.279 -2.8149 -0.8661 -2.1576
25135SOL    HW279194   4.481   6.242   3.372  0.7989  0.9939 -1.3708
25136SOL     OW79195  10.154   9.278   2.516 -0.3322  0.0423  0.6405
25136SOL    HW179196  10.107   9.252   2.595  0.1343  0.1205  0.9490
25136SOL    HW279197  10.233   9.223   2.517 -1.2891 -1.4450 -0.8453
25137SOL     OW79198  10.240   8.800   9.538 -0.4482  0.4799  0.3771
25137SOL    HW179199  10.194   8.875   9.501 -2.6161 -1.1318 -0.3979
25137SOL    HW279200  10.174   8.756   9.592  0.2046 -1.8163 -0.6004
25138SOL     OW79201   8.354   5.893   9.881  0.2904  0.8055  0.0404
25138SOL    HW179202   8.372   5.912   9.973  0.8020  1.0307 -0.1063
25138SOL    HW279203   8.357   5.978   9.837  2.5507  0.4386 -0.6076
25139SOL     OW79204   8.711   1.490   6.005  0.2284 -0.0265 -0.4085
25139SOL    HW179205   8.797   1.449   5.992  0.6970  0.0531  1.9850
25139SOL    HW279206   8.724   1.581   5.979 -0.0355 -0.6546 -3.0030
25140SOL     OW79207   2.890   8.913   4.963  0.5056  0.2096  0.1905
25140SOL    HW179208   2.865   8.821   4.954  1.4201 -0.0936  0.6651
25140SOL    HW279209   2.817   8.962   4.923  0.4381 -0.7432 -0.8810
25141SOL     OW79210   3.976   9.887   1.317  0.5019  0.4070  0.2450
25141SOL    HW179211   4.035   9.859   1.387  0.1902  2.4026  1.4022
25141SOL    HW279212   3.896   9.914   1.363  0.1271  1.3386 -0.9085
25142SOL     OW79213   6.703   1.772   4.372 -0.5504  0.1437 -0.5015
25142SOL    HW179214   6.745   1.688   4.391 -2.2385 -0.6035  0.1029
25142SOL    HW279215   6.733   1.830   4.442 -0.7137 -0.4415  0.0586
25143SOL     OW79216   2.415   3.245   4.842  0.2758 -0.1524  0.2232
25143SOL    HW179217   2.361   3.254   4.921 -1.5510 -1.2613 -0.8210
25143SOL    HW279218   2.387   3.162   4.803  2.5535 -0.6047 -0.5715
25144SOL     OW79219   2.881   4.383  10.114 -0.4211  0.0710 -0.0322
25144SOL    HW179220   2.809   4.389  10.178  0.5323 -2.7161  1.4703
25144SOL    HW279221   2.946   4.445  10.146 -0.1805 -0.8972  1.4827
25145SOL     OW79222   2.880   4.984   2.049  0.9065  0.3200  0.1991
25145SOL    HW179223   2.827   5.053   2.009 -0.1154  0.1987  1.2917
25145SOL    HW279224   2.908   4.929   1.975 -0.1496  0.6241 -0.4496
25146SOL     OW79225   5.712   8.643   8.835 -0.4000 -0.2722 -0.2860
25146SOL    HW179226   5.628   8.680   8.859 -1.2039 -1.2137 -1.5134
25146SOL    HW279227   5.739   8.593   8.912 -0.1699  1.2753  0.7020
25147SOL     OW79228   8.584   4.668   9.654 -0.5264  0.1702 -0.0014
25147SOL    HW179229   8.620   4.712   9.577  1.6142  1.1376  1.4691
25147SOL    HW279230   8.603   4.575   9.640  0.2347  0.3854 -0.4579
25148SOL     OW79231   6.612   3.812   7.402 -0.3009  0.3421  0.3026
25148SOL    HW179232   6.559   3.738   7.372  0.2791  0.5866 -1.4025
25148SOL    HW279233   6.677   3.772   7.460 -0.1884 -0.4388 -0.3462
25149SOL     OW79234   0.625   6.586   0.259 -0.2394  0.1448  0.5609
25149SOL    HW179235   0.568   6.622   0.190  0.0475 -1.5161 -0.5986
25149SOL    HW279236   0.578   6.509   0.291  0.2931  0.0880  1.2194
25150SOL     OW79237   1.262   1.324   9.521  0.2127 -0.2596 -0.6530
25150SOL    HW179238   1.222   1.410   9.515  0.9634  0.2622  1.2199
25150SOL    HW279239   1.189   1.264   9.537 -0.0664  0.3555  0.4043
25151SOL     OW79240  10.152   5.498   8.763 -0.5670  0.4517 -0.3205
25151SOL    HW179241  10.144   5.453   8.679  0.6963  0.0371 -0.2408
25151SOL    HW279242  10.086   5.568   8.759 -0.0764  0.8669 -1.9389
25152SOL     OW79243   0.144   4.664   8.949  0.1730 -0.0599  0.1180
25152SOL    HW179244   0.124   4.671   9.043  0.4362  0.5002  0.1355
25152SOL    HW279245   0.221   4.607   8.945 -0.2451 -0.6351  0.1909
25153SOL     OW79246   8.558   8.757   2.848 -0.2069  0.2219  0.0082
25153SOL    HW179247   8.488   8.814   2.815 -0.2981  0.5344  0.7137
25153SOL    HW279248   8.594   8.805   2.923 -0.3416 -0.6761  0.6672
25154SOL     OW79249   4.116  10.348   0.323 -0.4512 -0.5064 -0.6105
25154SOL    HW179250   4.171  10.366   0.247 -1.5041 -2.1998 -1.8367
25154SOL    HW279251   4.026  10.348   0.288 -1.2517  1.5525  1.2006
25155SOL     OW79252   3.744   1.820   1.777  0.1188  0.0520 -0.6502
25155SOL    HW179253   3.792   1.756   1.830  0.0421  2.5139  2.7354
25155SOL    HW279254   3.653   1.808   1.803 -0.2018  0.0680 -1.7231
25156SOL     OW79255   6.657   0.423   9.421 -0.0474 -0.1111 -0.2435
25156SOL    HW179256   6.735   0.382   9.383  0.2201 -0.3800  0.5692
25156SOL    HW279257   6.683   0.514   9.436 -0.2832  0.0986 -1.0421
25157SOL     OW79258   2.918   7.622   3.171 -0.0283 -0.0381  0.4815
25157SOL    HW179259   2.862   7.666   3.108  0.4999 -1.1319 -0.8144
25157SOL    HW279260   2.989   7.585   3.119 -0.9300 -3.2417  1.2441
25158SOL     OW79261   0.773   0.668   6.446  0.1778 -0.1776 -0.1103
25158SOL    HW179262   0.682   0.691   6.467 -0.2451 -2.1632  0.3881
25158SOL    HW279263   0.820   0.752   6.450 -1.2537  0.6056  1.5445
25159SOL     OW79264   3.536   2.371   9.992  0.1728  0.0076  0.4394
25159SOL    HW179265   3.544   2.376   9.896 -0.1035  0.5442  0.4382
25159SOL    HW279266   3.443   2.387  10.008 -0.5854 -3.5592  0.5842
25160SOL     OW79267   0.563   8.289   3.908  0.0787  0.2594 -0.2157
25160SOL    HW179268   0.552   8.382   3.928 -1.2261  0.1302 -0.2246
25160SOL    HW279269   0.491   8.269   3.847  0.1643 -0.8229  0.0141
25161SOL     OW79270   4.549   7.804   3.947 -0.5742  0.0297  0.2668
25161SOL    HW179271   4.462   7.812   3.907  0.0413  0.4006 -1.0349
25161SOL    HW279272   4.584   7.893   3.947  0.1650 -0.2553 -0.0658
25162SOL     OW79273   5.220   3.388   0.929 -0.4468 -0.2896  0.4906
25162SOL    HW179274   5.209   3.475   0.890  0.5751 -0.5899 -0.5156
25162SOL    HW279275   5.313   3.382   0.948 -0.5410 -1.0907  0.7179
25163SOL     OW79276   3.215   8.275   0.858 -0.2337 -0.1564  0.0294
25163SOL    HW179277   3.264   8.292   0.778  2.8669  0.8089  1.9402
25163SOL    HW279278   3.197   8.181   0.856  0.5247 -0.2999 -1.4085
25164SOL     OW79279   2.092   7.888   9.170  0.2421 -0.4660  0.3836
25164SOL    HW179280   2.061   7.861   9.256  1.7373 -0.0960  1.0632
25164SOL    HW279281   2.149   7.963   9.187  1.2620 -0.9319 -0.8248
25165SOL     OW79282   2.520   3.535   9.618 -0.0081 -0.1300  0.1890
25165SOL    HW179283   2.438   3.520   9.664 -0.5410 -3.7864 -1.6077
25165SOL    HW279284   2.573   3.458   9.637  1.2778  0.1102 -2.0663
25166SOL     OW79285   7.522   7.850   3.056  0.1022 -0.0016 -0.0555
25166SOL    HW179286   7.477   7.904   3.122  0.3709 -2.0371  1.9030
25166SOL    HW279287   7.469   7.860   2.977  0.3301  3.3371  0.0724
25167SOL     OW79288   9.860   5.539   7.065  0.3087 -0.0881  0.3354
25167SOL    HW179289   9.822   5.526   6.979  0.6705 -2.1132  0.4274
25167SOL    HW279290   9.955   5.541   7.049  0.4145 -1.2117  0.7336
25168SOL     OW79291   4.949   0.833   5.443  0.4761  0.0084  0.1342
25168SOL    HW179292   4.974   0.907   5.500  1.0962  0.8429 -1.1807
25168SOL    HW279293   5.031   0.787   5.427  0.6138  0.7347 -1.3895
25169SOL     OW79294   0.603   5.094   3.817  0.2127  0.2328  0.3171
25169SOL    HW179295   0.637   5.041   3.746  1.7392  0.1186  1.0952
25169SOL    HW279296   0.522   5.132   3.782  0.4411 -0.5486 -1.1352
25170SOL     OW79297   3.489   3.654   3.959  0.1748  0.4581  1.0751
25170SOL    HW179298   3.485   3.646   4.054 -1.3197  0.4916  1.0481
25170SOL    HW279299   3.407   3.698   3.935  0.7420  0.8981 -0.1901
25171SOL     OW79300   1.889   2.580   6.976 -0.2181  0.7391  0.0535
25171SOL    HW179301   1.968   2.631   6.961 -0.2330  0.6468 -0.3424
25171SOL    HW279302   1.899   2.503   6.921 -0.2489  0.3661  0.5618
25172SOL     OW79303   7.128   4.533   3.466 -0.2146 -0.1633  0.0933
25172SOL    HW179304   7.046   4.522   3.514  0.7914 -0.3815  1.8559
25172SOL    HW279305   7.101   4.558   3.378 -2.2035 -1.6928  0.2014
25173SOL     OW79306   1.544   0.741   4.994 -0.8358  0.0939  0.2735
25173SOL    HW179307   1.508   0.754   4.907 -0.9698  0.9473  0.4522
25173SOL    HW279308   1.573   0.649   4.995  0.6041  0.5044 -1.1811
25174SOL     OW79309   0.333   7.181   8.592 -0.1660  0.0547  0.1193
25174SOL    HW179310   0.298   7.171   8.680 -0.2741  0.6409  0.1456
25174SOL    HW279311   0.384   7.101   8.578  0.3819  0.2377  0.9606
25175SOL     OW79312   4.474   3.374   4.630  0.1743  0.3838 -0.0548
25175SOL    HW179313   4.482   3.340   4.540 -0.9319 -1.1785  0.3820
25175SOL    HW279314   4.553   3.426   4.643 -0.3104  1.8730 -2.4173
25176SOL     OW79315   1.604   0.739   6.968  0.1666 -0.0187 -0.1264
25176SOL    HW179316   1.686   0.696   6.946  0.0944  0.1093 -0.6539
25176SOL    HW279317   1.552   0.670   7.012  0.6621 -0.0120  0.4874
25177SOL     OW79318   0.069   8.475   2.948  0.3519  0.2380 -0.1895
25177SOL    HW179319   0.131   8.516   3.008 -0.7318 -0.5315  1.5692
25177SOL    HW279320   0.098   8.384   2.942 -0.4875 -0.0904  0.5317
25178SOL     OW79321   1.064   3.133   8.106 -0.0448  0.2937 -0.2802
25178SOL    HW179322   1.056   3.205   8.169  1.8038 -0.7095  1.1917
25178SOL    HW279323   1.080   3.177   8.022 -3.3059  1.6787 -0.3308
25179SOL     OW79324   8.124   7.813   4.673  0.5901 -0.2530  0.5545
25179SOL    HW179325   8.093   7.794   4.761  2.2305 -0.6525  1.0819
25179SOL    HW279326   8.062   7.878   4.640 -1.5287 -1.9172  1.0160
25180SOL     OW79327   3.723   7.550   9.447 -0.0013  0.0867 -0.5510
25180SOL    HW179328   3.669   7.570   9.370 -0.6625 -0.5077 -0.2610
25180SOL    HW279329   3.688   7.607   9.515 -1.2623 -1.3180  0.0260
25181SOL     OW79330   4.284   3.349   5.486 -0.8877 -0.4943 -0.1521
25181SOL    HW179331   4.207   3.292   5.480 -1.0404 -0.1723 -1.6063
25181SOL    HW279332   4.290   3.390   5.399  2.3102 -2.2873 -0.9109
25182SOL     OW79333   2.500   8.463   0.730 -0.3722  0.2232  0.2979
25182SOL    HW179334   2.497   8.424   0.817  0.2918 -1.6819 -0.4701
25182SOL    HW279335   2.579   8.427   0.690 -1.2052  0.2298 -1.4498
25183SOL     OW79336   5.003   4.207   1.310 -0.3370  0.5934 -0.3812
25183SOL    HW179337   4.956   4.156   1.375 -2.6118 -0.4895 -2.6976
25183SOL    HW279338   5.088   4.163   1.301 -0.1635  0.4865  1.4199
25184SOL     OW79339   7.411   1.641   2.332  0.2513  0.3539 -0.5626
25184SOL    HW179340   7.328   1.609   2.296 -0.3880  0.7131  0.5477
25184SOL    HW279341   7.423   1.727   2.291 -0.7307  0.9863  0.4402
25185SOL     OW79342   1.993   6.657   1.947 -0.0063  0.4347  0.4378
25185SOL    HW179343   2.012   6.568   1.977 -2.2256 -1.5029 -3.0750
25185SOL    HW279344   1.933   6.692   2.012 -0.3130 -1.2932  1.1430
25186SOL     OW79345   0.310   5.779   7.791  0.5263  0.4420  0.3680
25186SOL    HW179346   0.241   5.732   7.836  1.3465 -1.3425 -0.1450
25186SOL    HW279347   0.376   5.795   7.858  1.2489 -1.2222  0.1134
25187SOL     OW79348   6.419   5.132   6.643 -0.6095 -0.2574  0.0535
25187SOL    HW179349   6.457   5.048   6.619 -0.1421 -0.5072  1.5361
25187SOL    HW279350   6.386   5.169   6.561  1.9012 -0.5189 -1.1614
25188SOL     OW79351   0.200   9.718   1.644  0.2300  0.0881  0.2895
25188SOL    HW179352   0.240   9.695   1.560  0.3840  1.4525 -0.0442
25188SOL    HW279353   0.202   9.814   1.645 -1.6373  0.1639  0.9414
25189SOL     OW79354   2.367   4.752   5.126  0.9294 -0.4748 -0.2340
25189SOL    HW179355   2.430   4.725   5.059  1.5116 -0.6495  0.3720
25189SOL    HW279356   2.282   4.735   5.086  1.2577 -0.2418 -1.0667
25190SOL     OW79357   7.536   4.250   4.763 -0.0930 -0.4323  0.1254
25190SOL    HW179358   7.558   4.162   4.735  0.0058  0.2125 -2.0897
25190SOL    HW279359   7.614   4.283   4.806  0.0288 -1.2598  0.5447
25191SOL     OW79360   0.193   3.576   9.665 -0.7165  0.4106  0.0460
25191SOL    HW179361   0.154   3.605   9.582 -0.5725  1.1800  0.2345
25191SOL    HW279362   0.182   3.481   9.665 -3.9775  0.6794  0.7520
25192SOL     OW79363   7.233   8.871   9.065  0.5833 -0.3311 -0.1246
25192SOL    HW179364   7.202   8.784   9.038  2.0600  0.3865 -5.3370
25192SOL    HW279365   7.328   8.867   9.053  0.5266  2.3847 -2.5859
25193SOL     OW79366   3.821   5.060   8.465 -0.1335 -0.1262 -0.0255
25193SOL    HW179367   3.745   5.023   8.421 -1.4396  1.3292  0.9215
25193SOL    HW279368   3.863   5.115   8.400 -0.8907  0.4202 -0.0559
25194SOL     OW79369   4.168   1.195   8.183 -0.2461 -0.0418  0.1409
25194SOL    HW179370   4.097   1.222   8.242 -1.8070 -0.8054 -1.2690
25194SOL    HW279371   4.122   1.152   8.110  1.7492 -1.3686 -0.4023
25195SOL     OW79372   8.942   4.622   8.162  0.1723 -0.6405 -0.1323
25195SOL    HW179373   8.934   4.637   8.068 -3.0452 -1.2067 -0.0597
25195SOL    HW279374   8.856   4.646   8.198  0.1431 -3.6296  2.1818
25196SOL     OW79375   8.814   3.559   2.185 -0.2582  0.6403  0.0891
25196SOL    HW179376   8.760   3.606   2.122 -0.3868 -0.0185 -0.3074
25196SOL    HW279377   8.784   3.590   2.271 -1.0769  0.4825 -0.1333
25197SOL     OW79378   4.605   6.619   1.923 -0.4528 -0.5940  0.5355
25197SOL    HW179379   4.666   6.593   1.992 -0.0886 -0.5352  0.2404
25197SOL    HW279380   4.659   6.623   1.844 -0.9866 -1.2310  0.1326
25198SOL     OW79381   9.384   3.130   0.521  0.4865  0.0062 -0.1681
25198SOL    HW179382   9.308   3.099   0.472 -0.8405 -2.4972  3.1039
25198SOL    HW279383   9.350   3.197   0.580  1.7034  1.7288 -1.3282
25199SOL     OW79384   4.441   7.233   7.157  0.0278  0.4188  0.2490
25199SOL    HW179385   4.377   7.175   7.198  0.7672 -1.2285 -0.7976
25199SOL    HW279386   4.443   7.310   7.213 -0.4027 -0.9151  2.2092
25200SOL     OW79387   2.754   4.007   7.676 -0.2632 -0.1489  0.2313
25200SOL    HW179388   2.697   4.084   7.668 -2.2587 -1.7359 -1.9958
25200SOL    HW279389   2.837   4.035   7.637 -0.8986  0.9046 -0.4139
25201SOL     OW79390   4.089   2.919   8.321 -0.1574 -0.1162  0.8608
25201SOL    HW179391   4.016   2.925   8.259  0.4600  3.2617  0.2790
25201SOL    HW279392   4.111   2.826   8.323 -1.5619 -0.6684 -2.4348
25202SOL     OW79393   6.387   9.380   4.270 -0.0267 -0.1239 -0.4929
25202SOL    HW179394   6.473   9.419   4.256  0.7352 -1.0700  1.3070
25202SOL    HW279395   6.360   9.413   4.356 -0.0437 -2.2670  0.3741
25203SOL     OW79396   2.921   0.679   1.078  0.8151  0.2097 -0.4271
25203SOL    HW179397   2.873   0.639   1.150  1.1604  0.5253 -0.0149
25203SOL    HW279398   3.013   0.668   1.102  0.9258  0.5175 -0.7099
25204SOL     OW79399   3.353  10.076   6.573 -0.1197  0.3052  0.2813
25204SOL    HW179400   3.348  10.171   6.569  1.3950  0.3935 -0.2632
25204SOL    HW279401   3.432  10.054   6.523 -0.7013 -1.2672  0.0065
25205SOL     OW79402   9.163   7.696   2.428  0.3011  0.1964  0.3136
25205SOL    HW179403   9.085   7.698   2.372  0.0250 -0.2717  0.6751
25205SOL    HW279404   9.138   7.746   2.506  0.1670 -0.4233  0.6725
25206SOL     OW79405   2.476   7.044   1.851  0.5675  0.1717 -0.0171
25206SOL    HW179406   2.437   6.959   1.872 -0.3947  0.8929  1.2475
25206SOL    HW279407   2.404   7.094   1.811  0.2083  1.4109  2.0394
25207SOL     OW79408   1.738   9.482   1.363  0.1834  0.1191  0.7935
25207SOL    HW179409   1.766   9.571   1.343  2.3992 -0.6892 -0.0202
25207SOL    HW279410   1.808   9.447   1.419 -0.8874 -0.9536  1.5028
25208SOL     OW79411   2.893   7.555   3.569  0.1689  0.1645 -0.0056
25208SOL    HW179412   2.867   7.514   3.486  3.9134  2.0850 -2.4279
25208SOL    HW279413   2.825   7.530   3.631 -2.4877 -2.0277 -3.4489
25209SOL     OW79414   5.041   0.702   9.358 -0.1443 -0.2979  0.4525
25209SOL    HW179415   5.018   0.682   9.449  1.1970 -1.4868  0.5744
25209SOL    HW279416   4.985   0.776   9.335 -0.4663  0.0832  2.2670
25210SOL     OW79417   4.836   7.950   0.520  0.0494 -0.0163 -0.2075
25210SOL    HW179418   4.880   7.986   0.598 -1.7529  0.2668  0.7195
25210SOL    HW279419   4.904   7.950   0.453  1.0388  1.9672  0.7027
25211SOL     OW79420   7.522  10.059   7.657 -0.3650 -0.3010 -0.3215
25211SOL    HW179421   7.430  10.037   7.642 -0.7953  1.0259  0.2726
25211SOL    HW279422   7.570   9.997   7.602 -1.5991 -1.0306 -0.6270
25212SOL     OW79423   6.991   0.203   0.144 -0.6188  0.5098 -0.1732
25212SOL    HW179424   6.988   0.264   0.218  0.1987  0.2701  0.0667
25212SOL    HW279425   6.998   0.260   0.067  2.1369  0.7416  0.1590
25213SOL     OW79426   8.941   0.597   3.817 -0.1700 -0.5955  0.5340
25213SOL    HW179427   8.899   0.633   3.895 -0.1299 -1.2472  0.8661
25213SOL    HW279428   9.035   0.613   3.831 -0.2756  0.7768 -0.1644
25214SOL     OW79429   3.810   6.177  10.193 -0.0365  0.4498 -0.1735
25214SOL    HW179430   3.904   6.180  10.209 -0.0238  1.0953 -0.3687
25214SOL    HW279431   3.782   6.095  10.234  0.8147 -0.3992 -1.2295
25215SOL     OW79432   8.652   6.195   3.417 -0.4151 -0.4794 -0.0190
25215SOL    HW179433   8.627   6.279   3.378 -0.7960  0.5425  2.2478
25215SOL    HW279434   8.710   6.155   3.353 -1.0790  1.0165 -1.6379
25216SOL     OW79435   1.537   6.148   5.659 -0.4005  0.2432  0.0267
25216SOL    HW179436   1.503   6.237   5.665  1.6121  1.1430 -0.9970
25216SOL    HW279437   1.460   6.093   5.645 -1.7527  1.7029  1.4156
25217SOL     OW79438   8.860   0.274   8.747 -0.1639 -0.0859  0.3268
25217SOL    HW179439   8.843   0.231   8.831  0.6746 -2.3327 -0.5588
25217SOL    HW279440   8.955   0.285   8.744  0.1985 -2.7139 -1.4190
25218SOL     OW79441   1.508   0.650   8.023  0.4134  0.2195 -0.4646
25218SOL    HW179442   1.547   0.695   7.949 -0.6611 -0.1822 -1.2959
25218SOL    HW279443   1.471   0.570   7.986 -2.4314  1.2099 -0.0410
25219SOL     OW79444   6.282   0.817   4.486 -0.3627  0.5604  0.0151
25219SOL    HW179445   6.291   0.868   4.405  0.2846  0.1611 -0.1710
25219SOL    HW279446   6.362   0.765   4.491 -0.3097  0.7203  1.0202
25220SOL     OW79447   1.941   1.432   7.039 -0.1274 -0.2435  0.2591
25220SOL    HW179448   1.852   1.453   7.010  0.0649  0.7572  0.3754
25220SOL    HW279449   1.947   1.337   7.029 -0.6424 -0.1473 -1.3552
25221SOL     OW79450   8.947   7.039   7.868 -0.6351 -0.6791 -0.0982
25221SOL    HW179451   8.945   7.134   7.860 -1.3354 -0.8171 -2.4994
25221SOL    HW279452   8.918   7.021   7.957 -1.4814  1.3297  0.0787
25222SOL     OW79453   1.323   2.432   2.807 -0.1709 -0.2730 -0.0560
25222SOL    HW179454   1.336   2.450   2.900  0.8982 -0.1470 -0.2123
25222SOL    HW279455   1.327   2.336   2.800 -0.9904 -0.3241  0.1211
25223SOL     OW79456   5.057   3.535   6.265 -0.1681  0.5060 -0.1733
25223SOL    HW179457   5.081   3.531   6.173 -1.0657 -2.0776 -0.3799
25223SOL    HW279458   5.126   3.484   6.309  0.1295  1.5279  0.5684
25224SOL     OW79459   0.266   3.438   2.488 -0.2522 -0.0578 -0.2942
25224SOL    HW179460   0.253   3.492   2.566  1.4356  3.1824 -2.0239
25224SOL    HW279461   0.360   3.446   2.468 -0.2046 -2.5362 -1.5181
25225SOL     OW79462   0.829   5.161   4.998  0.2369  0.2622 -0.0634
25225SOL    HW179463   0.756   5.148   4.938 -0.3362  1.0987  0.4326
25225SOL    HW279464   0.807   5.106   5.074 -0.5591  1.4938  0.6419
25226SOL     OW79465   5.271   2.300   4.915 -0.9078  0.3845 -0.1791
25226SOL    HW179466   5.221   2.352   4.853 -0.6349  0.0304 -0.7031
25226SOL    HW279467   5.361   2.331   4.905 -0.7784 -0.0358 -0.3467
25227SOL     OW79468   1.022   2.449   5.692  0.8893 -0.5069 -0.4203
25227SOL    HW179469   0.973   2.470   5.613  0.0982 -1.1757 -0.1189
25227SOL    HW279470   1.038   2.534   5.734  0.1915 -0.2612 -0.6499
25228SOL     OW79471   3.155  10.318   9.942  0.0291 -0.3513 -0.4089
25228SOL    HW179472   3.241  10.295   9.906  0.2134 -0.0986 -0.1408
25228SOL    HW279473   3.093  10.296   9.873  0.4867  1.5496 -1.4999
25229SOL     OW79474   8.344   7.640   0.656  0.7183 -0.4507 -0.3486
25229SOL    HW179475   8.282   7.616   0.587 -0.1602  1.1091 -0.1305
25229SOL    HW279476   8.414   7.574   0.649 -0.8001 -2.0827 -0.7784
25230SOL     OW79477   9.359   4.078   8.960 -0.0052 -0.3510  0.5036
25230SOL    HW179478   9.308   4.159   8.968 -0.7227 -0.8857  1.5317
25230SOL    HW279479   9.313   4.015   9.016  0.9637 -1.2670  0.2973
25231SOL     OW79480   8.393   6.077   0.056 -0.5613  0.6949  0.8115
25231SOL    HW179481   8.310   6.105   0.094 -1.7941  0.2404 -1.3401
25231SOL    HW279482   8.419   6.149  -0.001 -0.3992  0.1372  0.1652
25232SOL     OW79483   8.212   1.211   7.441  0.0297  0.5272 -0.1023
25232SOL    HW179484   8.190   1.158   7.364  0.7250 -0.1513  0.1520
25232SOL    HW279485   8.203   1.302   7.411 -0.2935  0.2686 -0.8079
25233SOL     OW79486   8.324   9.632   0.044  0.0872 -0.4992  0.2121
25233SOL    HW179487   8.402   9.646  -0.009 -1.1174  1.3183 -1.2231
25233SOL    HW279488   8.345   9.670   0.129  0.5301  0.6441 -0.3902
25234SOL     OW79489   8.624   1.851   9.252 -0.1644 -0.3726 -0.0825
25234SOL    HW179490   8.623   1.772   9.306 -0.4562 -0.4106 -0.1463
25234SOL    HW279491   8.713   1.854   9.216 -0.0796 -0.5406  0.1119
25235SOL     OW79492   5.747   4.915   8.637 -0.6042  0.0898  0.3133
25235SOL    HW179493   5.739   4.835   8.690 -2.2838 -1.1953 -1.6960
25235SOL    HW279494   5.839   4.917   8.611  0.0137  0.1898  2.3778
25236SOL     OW79495   7.497   2.853   3.066 -0.1174 -0.1174 -0.6387
25236SOL    HW179496   7.557   2.781   3.047  1.5286  0.0993  2.8832
25236SOL    HW279497   7.410   2.819   3.044  0.8613 -2.1485 -1.6149
25237SOL     OW79498   9.040   3.619   1.472  0.0738 -0.2466 -0.2617
25237SOL    HW179499   9.077   3.585   1.554 -0.0687  0.6802  0.2052
25237SOL    HW279500   9.023   3.541   1.419 -3.6574 -1.3507  2.1340
25238SOL     OW79501   1.985   2.597   0.597 -0.1559  0.2566 -0.2850
25238SOL    HW179502   1.998   2.549   0.679 -0.5444  0.0961 -0.3144
25238SOL    HW279503   1.972   2.688   0.624  1.2150  0.4614 -0.2690
25239SOL     OW79504   3.910   2.290   4.613  0.2611  0.5058 -0.0812
25239SOL    HW179505   3.988   2.314   4.663  0.1628  0.7872 -0.0634
25239SOL    HW279506   3.868   2.373   4.591  0.0988  0.3667 -0.3056
25240SOL     OW79507   5.921   5.029   7.211  0.1567 -0.0792 -0.3970
25240SOL    HW179508   5.834   4.990   7.204 -0.1747  0.7972 -1.6388
25240SOL    HW279509   5.965   5.004   7.130  1.1505 -0.6800  0.3121
25241SOL     OW79510   8.132   2.335   5.041 -0.1386 -0.7238  0.3316
25241SOL    HW179511   8.211   2.339   4.987  0.0159  2.8977  0.5212
25241SOL    HW279512   8.060   2.325   4.978  0.2756 -0.3041 -0.2225
25242SOL     OW79513   9.443   5.356   6.570 -0.1546 -0.0908 -0.0613
25242SOL    HW179514   9.486   5.378   6.652  2.8240 -0.8896 -1.2791
25242SOL    HW279515   9.469   5.426   6.509 -0.9061 -0.4013 -0.7697
25243SOL     OW79516   7.731   6.429   5.375 -0.0280 -0.0327  0.6208
25243SOL    HW179517   7.785   6.369   5.324  1.2868  1.3344  0.3504
25243SOL    HW279518   7.674   6.470   5.310  0.4159  0.4100  0.5048
25244SOL     OW79519   8.726   0.617   8.218 -1.0672  0.8425 -0.1093
25244SOL    HW179520   8.720   0.522   8.230 -0.6958  0.8716  0.3288
25244SOL    HW279521   8.701   0.653   8.304  1.0157  1.0790  0.4572
25245SOL     OW79522   5.937   5.983   4.679 -0.5347 -0.0022  0.9560
25245SOL    HW179523   5.943   6.019   4.591  2.0806 -0.2331  0.9547
25245SOL    HW279524   5.964   5.891   4.669 -0.6988 -0.1610  1.9124
25246SOL     OW79525   6.687   6.753   3.150 -0.5329 -0.5255 -0.3791
25246SOL    HW179526   6.626   6.707   3.091  0.0960 -1.5629 -0.2486
25246SOL    HW279527   6.774   6.727   3.120 -0.1653  0.2357 -0.0011
25247SOL     OW79528   8.399   1.889   9.759  0.0402 -0.2371  0.0798
25247SOL    HW179529   8.325   1.865   9.814  0.5348 -1.7451  0.1296
25247SOL    HW279530   8.363   1.891   9.670 -0.5171  1.1507  0.3184
25248SOL     OW79531   5.169   6.403   1.112 -0.3201 -0.1940  0.0201
25248SOL    HW179532   5.083   6.368   1.088 -1.0884  0.7773  1.2847
25248SOL    HW279533   5.230   6.348   1.063 -1.6489 -0.7650 -1.0916
25249SOL     OW79534  10.158   5.805   5.777 -0.0989 -0.6067 -0.1120
25249SOL    HW179535  10.109   5.815   5.695 -1.2765  1.7095  0.7936
25249SOL    HW279536  10.205   5.888   5.787 -0.9731 -0.3060  2.1460
25250SOL     OW79537   3.263   9.548   0.454  0.0537  0.1063  0.5607
25250SOL    HW179538   3.320   9.591   0.518 -0.2693 -0.1205  1.0147
25250SOL    HW279539   3.322   9.502   0.395  0.3936  1.0621  0.1534
25251SOL     OW79540   8.255   9.986   2.143 -0.0580 -0.0237 -0.1797
25251SOL    HW179541   8.333   9.993   2.088 -1.0686 -1.1553 -1.8196
25251SOL    HW279542   8.285   9.940   2.221  0.9077 -0.4951 -0.8158
25252SOL     OW79543   3.159   9.783   3.267  0.3994 -0.1255  0.3021
25252SOL    HW179544   3.246   9.818   3.251  1.1838 -0.6644  2.8651
25252SOL    HW279545   3.174   9.692   3.294 -0.8800 -0.0323  1.4558
25253SOL     OW79546   4.799   5.737   2.498 -0.4753  0.4237 -0.5233
25253SOL    HW179547   4.719   5.685   2.493 -1.8464  2.4546 -0.9202
25253SOL    HW279548   4.811   5.771   2.409 -0.0249  1.3479 -0.1177
25254SOL     OW79549   3.925   9.234   4.394 -0.0874 -0.7303  0.0958
25254SOL    HW179550   3.991   9.216   4.461 -0.1614 -1.7120 -0.0801
25254SOL    HW279551   3.870   9.302   4.433  0.0210 -1.1002  0.9306
25255SOL     OW79552   0.368   6.960   9.819  0.1103  0.2848  0.0694
25255SOL    HW179553   0.365   7.032   9.881 -1.5231  0.4793 -0.1823
25255SOL    HW279554   0.418   6.993   9.745 -0.7676  1.2565 -0.1194
25256SOL     OW79555   0.238   1.175   9.910  0.5354 -0.0134  0.0564
25256SOL    HW179556   0.278   1.216   9.833  1.2160 -0.5738  0.0991
25256SOL    HW279557   0.292   1.098   9.926 -0.1002 -0.3513  0.6049
25257SOL     OW79558   5.964  10.043   4.415  0.0254  0.1837 -0.2114
25257SOL    HW179559   5.870  10.032   4.401  0.3627 -1.0735 -1.6979
25257SOL    HW279560   5.975  10.034   4.510 -1.1172 -1.9506 -0.2167
25258SOL     OW79561   4.796   5.644   1.139 -0.6606 -0.1510 -0.2768
25258SOL    HW179562   4.891   5.647   1.136 -0.5440 -1.8667  0.2869
25258SOL    HW279563   4.770   5.715   1.197  0.3622 -0.4319  0.5329
25259SOL     OW79564  10.329   2.397   5.498  0.9112 -0.2120 -0.4211
25259SOL    HW179565  10.366   2.450   5.569 -0.2422 -2.1152  1.7442
25259SOL    HW279566  10.241   2.374   5.529 -0.1129 -0.1401 -3.0493
25260SOL     OW79567   1.300   2.345   0.110  0.2575  0.4299  0.0546
25260SOL    HW179568   1.227   2.283   0.119  2.0386 -1.5866  1.4912
25260SOL    HW279569   1.334   2.329   0.022 -0.9654  1.3983 -0.6344
25261SOL     OW79570   3.036   6.894   9.629  0.6048 -0.5272  0.2152
25261SOL    HW179571   3.010   6.898   9.537  0.0906 -2.0442  0.2688
25261SOL    HW279572   3.088   6.973   9.643 -0.4252  0.4026 -1.0188
25262SOL     OW79573   5.477   1.479   0.056  0.3336 -0.4894  0.2437
25262SOL    HW179574   5.479   1.443   0.145 -0.0449  0.0337  0.4667
25262SOL    HW279575   5.385   1.472   0.030  0.3980 -0.4040 -0.0091
25263SOL     OW79576   8.991   0.072   6.989  0.3860  0.2025  0.2941
25263SOL    HW179577   9.032   0.045   6.907  1.7023  1.2785  0.5686
25263SOL    HW279578   8.970   0.164   6.975 -1.1748 -0.1044  0.4846
25264SOL     OW79579   9.713   0.874   0.462 -0.1434  0.4031  0.1450
25264SOL    HW179580   9.764   0.805   0.419  0.4229  1.6006 -1.1751
25264SOL    HW279581   9.727   0.859   0.555  1.2952 -0.2815 -0.1495
25265SOL     OW79582   4.870   6.056   6.812 -0.2212 -0.1635 -0.1871
25265SOL    HW179583   4.962   6.060   6.784 -0.1993  1.2087 -0.0030
25265SOL    HW279584   4.822   6.029   6.734  0.2951 -0.4997 -0.3919
25266SOL     OW79585   4.786   4.004   5.332 -0.1323  0.1785  0.6513
25266SOL    HW179586   4.818   4.056   5.259 -1.4897 -1.0933 -0.9252
25266SOL    HW279587   4.754   3.923   5.292 -1.5790 -0.2752  2.5737
25267SOL     OW79588   5.227   4.610   5.357 -0.2350  0.5468 -0.1464
25267SOL    HW179589   5.272   4.539   5.311 -1.3745 -0.8159  0.7721
25267SOL    HW279590   5.278   4.688   5.335  2.3231 -0.8148  0.4596
25268SOL     OW79591   5.994   7.293   2.185 -0.2502  0.6034  0.5652
25268SOL    HW179592   5.999   7.246   2.268 -0.8450  2.0277  1.4542
25268SOL    HW279593   6.039   7.376   2.202  1.2735  0.1927 -1.1140
25269SOL     OW79594   3.086   9.494   3.665  0.1259  0.0395  0.4147
25269SOL    HW179595   3.172   9.495   3.707 -0.2071  1.6561  1.1314
25269SOL    HW279596   3.033   9.436   3.720  0.3081  0.3581  0.9287
25270SOL     OW79597   0.135   8.229   9.767 -0.4584  0.0359 -0.5459
25270SOL    HW179598   0.063   8.171   9.742  1.3040 -2.4687 -0.1415
25270SOL    HW279599   0.112   8.261   9.854 -0.7716 -1.3400 -0.1046
25271SOL     OW79600  10.240   4.040   5.453  0.1182  0.1782 -0.0653
25271SOL    HW179601  10.244   4.092   5.373  0.8011  0.0419 -0.1258
25271SOL    HW279602  10.206   3.955   5.425 -1.0265  0.5784  0.0383
25272SOL     OW79603   0.415   1.570   8.909 -0.4555 -0.0550  0.0006
25272SOL    HW179604   0.444   1.632   8.975 -2.2470  0.0941  0.6956
25272SOL    HW279605   0.444   1.485   8.941 -0.2663  0.1515  0.3745
25273SOL     OW79606   8.897   3.766   7.925 -0.2313 -0.5834  0.0443
25273SOL    HW179607   8.992   3.777   7.916 -0.1576 -1.3047 -0.0661
25273SOL    HW279608   8.886   3.675   7.952 -0.9539 -0.7876 -0.8998
25274SOL     OW79609   2.765   9.333   9.202 -0.2783 -0.3256  0.4892
25274SOL    HW179610   2.761   9.249   9.247  1.4440  0.5287  2.4314
25274SOL    HW279611   2.744   9.397   9.270  0.6227  0.9395 -0.3833
25275SOL     OW79612   6.382   0.860   0.916 -0.1495  0.4642  0.0950
25275SOL    HW179613   6.434   0.799   0.864 -0.7103 -0.2641  0.3652
25275SOL    HW279614   6.324   0.804   0.967  0.9253  1.1014  2.1247
25276SOL     OW79615   9.671   2.509   4.858 -0.3527  0.4614  0.0005
25276SOL    HW179616   9.588   2.517   4.905 -1.9731  0.4762 -2.6320
25276SOL    HW279617   9.722   2.447   4.910 -1.9057  0.6348  1.8437
25277SOL     OW79618   8.566   1.346   4.196  0.1957 -0.0039 -0.3499
25277SOL    HW179619   8.641   1.338   4.138 -0.3753 -2.2445 -0.8650
25277SOL    HW279620   8.493   1.309   4.147 -0.5745 -0.7700  1.3009
25278SOL     OW79621   9.672   8.005   6.969 -0.3573  0.4045  0.3408
25278SOL    HW179622   9.625   7.949   6.907 -0.9225  1.2228 -0.0036
25278SOL    HW279623   9.697   7.947   7.041 -0.8176 -0.3021 -0.0567
25279SOL     OW79624   7.137   0.139   4.954 -0.1676 -0.1041 -0.3101
25279SOL    HW179625   7.134   0.227   4.915  1.0237  0.3508  0.5496
25279SOL    HW279626   7.212   0.097   4.912  0.6448  0.1122  0.8668
25280SOL     OW79627   8.672   4.697   9.101  0.3899 -0.2469  0.5758
25280SOL    HW179628   8.585   4.658   9.100  0.1607  0.2623  0.3301
25280SOL    HW279629   8.684   4.731   9.013  0.1574  1.1544  1.0589
25281SOL     OW79630   3.257   1.339   9.324 -0.3959  0.5859  0.0523
25281SOL    HW179631   3.197   1.341   9.398 -2.4992  1.2830 -1.5797
25281SOL    HW279632   3.251   1.426   9.285  1.4326  0.5569 -0.3804
25282SOL     OW79633   9.295   1.661   0.494 -0.3548 -0.0276  0.2544
25282SOL    HW179634   9.335   1.628   0.575 -0.4843 -0.4046  0.1709
25282SOL    HW279635   9.265   1.749   0.516  1.1799  0.5568  0.0970
25283SOL     OW79636   5.141   7.340   2.869 -0.4850  0.1164  0.3604
25283SOL    HW179637   5.120   7.281   2.942 -4.0176 -0.9808 -1.3047
25283SOL    HW279638   5.086   7.417   2.885  1.4826  1.5321  0.6691
25284SOL     OW79639   6.225   3.884   3.827 -0.5308 -0.2161 -0.4214
25284SOL    HW179640   6.162   3.941   3.872 -0.4459  0.1181 -0.7169
25284SOL    HW279641   6.208   3.797   3.863  0.2688  0.2014  1.0613
25285SOL     OW79642   6.853   0.591   1.481  0.3505  0.2005  0.0381
25285SOL    HW179643   6.862   0.673   1.433  0.2475 -0.4759 -1.1488
25285SOL    HW279644   6.800   0.536   1.425  1.5997 -1.1949  0.1703
25286SOL     OW79645   6.630   9.452   1.413 -0.4646  0.5137  0.6072
25286SOL    HW179646   6.624   9.362   1.443  0.2530  0.3555  0.2939
25286SOL    HW279647   6.667   9.446   1.325  0.5944  1.1597  0.9793
25287SOL     OW79648   3.249   7.936   4.961  0.1528  0.4237 -0.0982
25287SOL    HW179649   3.335   7.894   4.964  0.1752  0.5123  1.7177
25287SOL    HW279650   3.263   8.018   4.915  0.6371 -0.3890 -1.4492
25288SOL     OW79651   0.040   5.635   4.568  0.1287 -0.4914 -0.2482
25288SOL    HW179652   0.114   5.584   4.535  0.8339 -0.4636  1.1840
25288SOL    HW279653   0.037   5.712   4.512  0.7617 -0.8280 -0.7604
25289SOL     OW79654   1.377   5.782   4.223  0.0337 -0.3827  0.1206
25289SOL    HW179655   1.304   5.841   4.203 -0.4747 -0.6983  0.9954
25289SOL    HW279656   1.405   5.808   4.311  1.5955  0.3419 -0.5359
25290SOL     OW79657   1.930   1.539   2.001 -0.2206 -0.3913 -0.5368
25290SOL    HW179658   2.022   1.513   2.002 -0.2624 -0.5634 -0.8647
25290SOL    HW279659   1.930   1.624   1.957 -0.2061 -0.3401 -0.4379
25291SOL     OW79660   7.114   2.291   7.146 -0.3127  0.3646  0.1826
25291SOL    HW179661   7.045   2.298   7.080 -0.4654  0.9508  0.3977
25291SOL    HW279662   7.190   2.332   7.106 -0.3932  0.6819  0.3552
25292SOL     OW79663   9.645  10.034   4.901 -0.1659 -0.1968  0.4164
25292SOL    HW179664   9.706  10.039   4.828 -0.0672 -0.2709  0.4931
25292SOL    HW279665   9.562  10.067   4.866 -0.2838 -0.8249  0.0972
25293SOL     OW79666   3.889   7.868   7.001 -0.7797  0.2574 -0.3189
25293SOL    HW179667   3.895   7.772   7.005 -0.1553  0.2875 -0.5125
25293SOL    HW279668   3.955   7.894   6.937 -0.4677  0.8683  0.2373
25294SOL     OW79669   7.321   5.724   4.959  0.2781  0.0541  0.0283
25294SOL    HW179670   7.364   5.790   4.905  0.8892  0.1841  0.6681
25294SOL    HW279671   7.327   5.644   4.907  1.1413  0.1104  0.0304
25295SOL     OW79672   5.857   5.665   7.448 -0.0318  0.3576 -0.2115
25295SOL    HW179673   5.893   5.591   7.400 -0.7200  0.6160 -1.1584
25295SOL    HW279674   5.884   5.742   7.398  0.3541  0.7338  0.5510
25296SOL     OW79675   8.506   2.126   9.683  0.4511 -0.1735  0.2694
25296SOL    HW179676   8.462   2.044   9.707  0.4848 -0.1736  0.3305
25296SOL    HW279677   8.550   2.106   9.600  0.2228 -0.1326  0.1347
25297SOL     OW79678   1.044   4.956   1.197 -0.4133 -0.1379  0.3217
25297SOL    HW179679   0.955   4.928   1.217  0.1313 -0.7744  2.0285
25297SOL    HW279680   1.035   5.014   1.121 -2.0307 -1.8558 -0.8857
25298SOL     OW79681   3.155   3.893   0.036 -0.1488  0.3510 -0.4033
25298SOL    HW179682   3.210   3.888   0.114  0.2737  1.8385 -0.5706
25298SOL    HW279683   3.098   3.816   0.041  0.1977  0.1676  1.0985
25299SOL     OW79684   2.390   8.064   3.604  0.0927 -0.6665 -0.0612
25299SOL    HW179685   2.433   8.150   3.605  2.0771 -1.5679  2.0220
25299SOL    HW279686   2.457   8.005   3.570 -0.9365 -1.5438 -0.6060
25300SOL     OW79687   5.557   5.794   5.919  0.6335 -0.0584 -0.1844
25300SOL    HW179688   5.565   5.834   6.005  0.2971 -0.6904  0.1452
25300SOL    HW279689   5.609   5.714   5.924  0.8221  0.0303 -0.6471
25301SOL     OW79690   6.139   1.700   5.894 -0.0760 -0.1488 -0.1361
25301SOL    HW179691   6.139   1.613   5.854 -1.5165  0.3256 -1.2479
25301SOL    HW279692   6.060   1.743   5.860  0.4082  1.4789  0.6592
25302SOL     OW79693   8.380   7.113   5.394  0.1500 -0.4738  0.9395
25302SOL    HW179694   8.468   7.104   5.431  2.3444 -0.3408 -3.5285
25302SOL    HW279695   8.346   7.024   5.393  1.6785 -1.1014 -0.1362
25303SOL     OW79696   4.621   3.880   3.934  0.5163  0.4824 -0.1156
25303SOL    HW179697   4.668   3.961   3.914  2.6438  0.0925  2.6232
25303SOL    HW279698   4.541   3.884   3.882  1.0424  3.8291 -0.8544
25304SOL     OW79699   2.105   0.119   5.756 -0.3395 -0.2040 -0.1594
25304SOL    HW179700   2.173   0.171   5.713 -0.3854 -1.5702 -2.0117
25304SOL    HW279701   2.028   0.129   5.699 -0.9271 -0.7111  0.5258
25305SOL     OW79702   4.580   9.856   7.121  0.0463 -0.2578 -0.5477
25305SOL    HW179703   4.543   9.877   7.207 -0.5157 -1.3490 -0.5144
25305SOL    HW279704   4.578   9.939   7.073  2.3391  0.9171  1.1638
25306SOL     OW79705   1.052   8.628   1.369  0.7516 -0.7247 -0.4623
25306SOL    HW179706   1.084   8.540   1.387  1.9748 -0.0864  0.6893
25306SOL    HW279707   1.094   8.652   1.286 -1.4659 -2.0584 -2.0722
25307SOL     OW79708   3.991   2.186   1.336 -0.0668 -0.3069 -0.3417
25307SOL    HW179709   4.017   2.184   1.244  0.8466 -0.8437 -0.0892
25307SOL    HW279710   3.938   2.265   1.344  1.9443  1.1790 -0.8028
25308SOL     OW79711   1.735   1.739   5.946  0.2980  0.2775 -1.0620
25308SOL    HW179712   1.751   1.645   5.934 -1.0781  0.1035 -1.6891
25308SOL    HW279713   1.766   1.757   6.035 -1.2727 -1.2346 -0.1379
25309SOL     OW79714   1.729   0.045   6.446 -0.1303  0.1702  0.2989
25309SOL    HW179715   1.736   0.138   6.466  0.9054  0.3178 -0.6626
25309SOL    HW279716   1.708   0.042   6.353 -1.0825 -0.5573  0.5185
25310SOL     OW79717   5.848   0.630   6.874 -0.3095  0.6993  0.2374
25310SOL    HW179718   5.812   0.654   6.789  0.3023 -0.9880 -0.5496
25310SOL    HW279719   5.848   0.711   6.925 -5.4053  0.8512  0.4587
25311SOL     OW79720   2.412   5.564   8.541  0.0537 -0.6535 -0.8092
25311SOL    HW179721   2.347   5.587   8.607  1.7716  0.8416  0.4436
25311SOL    HW279722   2.424   5.469   8.551 -0.1398 -0.5437  0.6182
25312SOL     OW79723   1.477   9.732   1.540 -0.5615  0.3210 -0.1707
25312SOL    HW179724   1.528   9.791   1.595  0.0302  0.3649 -0.7492
25312SOL    HW279725   1.456   9.784   1.462 -1.6085  0.3428  0.1104
25313SOL     OW79726   5.197   1.458   5.241  0.5381 -0.1096  0.4857
25313SOL    HW179727   5.245   1.423   5.166  1.5010 -0.6230  1.3230
25313SOL    HW279728   5.200   1.389   5.307 -1.1612 -0.0704  0.6719
25314SOL     OW79729   7.876   0.523   9.274  0.0972 -0.3882 -0.1153
25314SOL    HW179730   7.816   0.482   9.211 -1.6268  0.2641  1.0181
25314SOL    HW279731   7.851   0.485   9.358  1.4509 -0.2381  0.3806
25315SOL     OW79732   4.060   2.535   2.149  0.0100 -0.2712  0.0398
25315SOL    HW179733   4.113   2.584   2.087  1.4106  0.5256  1.7809
25315SOL    HW279734   4.111   2.456   2.167 -0.3639 -0.4759  0.2335
25316SOL     OW79735   9.234   1.488   4.623  0.3206  0.0283  0.0940
25316SOL    HW179736   9.277   1.433   4.557 -0.9777 -0.0036 -0.7467
25316SOL    HW279737   9.187   1.426   4.679  0.5164  0.1409  0.3877
25317SOL     OW79738   7.823   9.288   0.822  0.0248  0.4305  0.4335
25317SOL    HW179739   7.903   9.334   0.847  0.6225 -0.5510  0.3866
25317SOL    HW279740   7.847   9.242   0.741 -1.2868  1.9882 -0.9216
25318SOL     OW79741   7.308   6.773   0.388 -0.0096 -0.3252 -0.4016
25318SOL    HW179742   7.298   6.678   0.381 -1.5211 -0.3846  1.6477
25318SOL    HW279743   7.236   6.801   0.444  0.2148  2.1007 -1.1862
25319SOL     OW79744   1.505   6.353   3.544  0.1713 -0.3539  0.0073
25319SOL    HW179745   1.440   6.311   3.487  1.9308 -2.9105 -0.2428
25319SOL    HW279746   1.552   6.413   3.485  0.3941 -1.1741 -0.6648
25320SOL     OW79747   0.150   2.698   5.212 -0.6248 -0.1369 -1.0125
25320SOL    HW179748   0.151   2.750   5.131 -0.7490 -1.0035 -1.5882
25320SOL    HW279749   0.242   2.676   5.227 -0.4790  0.9149 -0.3198
25321SOL     OW79750   4.616   3.574   1.112 -0.6883 -0.3576 -0.4211
25321SOL    HW179751   4.675   3.635   1.158 -0.0189  0.1446 -1.8773
25321SOL    HW279752   4.593   3.620   1.032 -0.5000 -1.8763 -1.3716
25322SOL     OW79753   1.795   3.695   0.775  0.4090  0.2874  0.5597
25322SOL    HW179754   1.790   3.683   0.870 -0.4741 -0.2794  0.4520
25322SOL    HW279755   1.889   3.699   0.756  0.6260 -0.8669  1.3077
25323SOL     OW79756   7.006   9.681   8.343 -0.1852 -0.3572 -0.3068
25323SOL    HW179757   7.035   9.717   8.427 -0.6008 -0.1291 -0.2545
25323SOL    HW279758   6.924   9.637   8.363 -0.1592 -0.5156 -0.5496
25324SOL     OW79759   5.401   3.738   1.648  0.2842  0.2716 -0.2406
25324SOL    HW179760   5.314   3.749   1.686 -0.2513  1.6290 -1.7663
25324SOL    HW279761   5.385   3.713   1.557  1.3982  2.5263 -1.1345
25325SOL     OW79762   0.827   4.838   6.242  0.3350  0.0519 -0.6701
25325SOL    HW179763   0.772   4.859   6.166 -0.5852  0.9098  0.1981
25325SOL    HW279764   0.783   4.880   6.316  0.0933 -2.4027  0.7033
25326SOL     OW79765   3.799  10.034   0.079  0.2030  0.4287 -0.7350
25326SOL    HW179766   3.779   9.958   0.134 -0.3629  0.9328 -0.2341
25326SOL    HW279767   3.719  10.087   0.080  0.4746  0.8704 -1.3534
25327SOL     OW79768   4.367   2.055   6.732  0.5762 -0.3064 -0.3044
25327SOL    HW179769   4.395   2.141   6.764  0.7500 -1.1877  2.1276
25327SOL    HW279770   4.333   2.011   6.810 -0.8237 -1.9536 -1.7711
25328SOL     OW79771   2.120   1.890   5.782 -0.2090 -0.2742  0.0048
25328SOL    HW179772   2.153   1.965   5.832  0.0038 -1.2088  1.3244
25328SOL    HW279773   2.152   1.904   5.693  0.2531  0.9296  0.3406
25329SOL     OW79774   9.770   6.933   7.705 -0.0913 -0.2526 -0.3533
25329SOL    HW179775   9.802   6.844   7.717  1.6487  0.1249 -1.7473
25329SOL    HW279776   9.835   6.988   7.750 -1.0116  0.3403  0.2840
25330SOL     OW79777   0.341   0.994   6.035 -0.1973 -0.1293  0.0830
25330SOL    HW179778   0.340   1.074   5.982 -1.0724 -0.4890 -0.4688
25330SOL    HW279779   0.374   0.927   5.975 -1.1330 -0.5269 -0.0052
25331SOL     OW79780   8.793   7.051   8.143  0.4601  0.2295 -0.6612
25331SOL    HW179781   8.838   7.098   8.213  2.3092 -1.2250 -0.7902
25331SOL    HW279782   8.769   6.966   8.181 -1.7707  0.7433 -0.7685
25332SOL     OW79783   4.080   2.348   3.662 -0.5910  0.3683 -0.2394
25332SOL    HW179784   4.065   2.298   3.582  1.2584 -0.2600 -0.2252
25332SOL    HW279785   4.082   2.283   3.732 -1.0231  0.7916  0.1781
25333SOL     OW79786   8.032   7.409   1.503 -0.0036 -0.5150 -0.8250
25333SOL    HW179787   7.964   7.411   1.570 -1.8126 -0.3405 -2.5613
25333SOL    HW279788   8.058   7.317   1.497 -0.5146 -0.6812 -0.5349
25334SOL     OW79789   1.677   3.254   1.168  0.0075 -0.2189 -0.1680
25334SOL    HW179790   1.701   3.224   1.080  0.1533 -1.2959  0.2289
25334SOL    HW279791   1.642   3.342   1.154 -2.0643 -1.1717 -1.6279
25335SOL     OW79792   3.119   1.157   0.852  0.3302 -0.1168 -0.1028
25335SOL    HW179793   3.047   1.210   0.885  0.3114  0.5820 -1.2240
25335SOL    HW279794   3.170   1.217   0.797  1.2795 -0.8205 -0.0154
25336SOL     OW79795  10.152   0.063   3.678 -0.3489 -0.1755 -0.6152
25336SOL    HW179796  10.097   0.076   3.756  0.7147 -0.7226  0.2590
25336SOL    HW279797  10.116   0.123   3.613 -2.1786 -0.7498 -0.1936
25337SOL     OW79798   1.796   0.792   1.078 -0.1710 -0.2700 -0.1137
25337SOL    HW179799   1.770   0.879   1.047  2.1475  0.5740  0.0980
25337SOL    HW279800   1.884   0.780   1.042 -0.1517 -2.2085  0.5075
25338SOL     OW79801   6.607   7.164   1.626  0.0960  0.0210  0.0427
25338SOL    HW179802   6.629   7.090   1.682 -0.7907  0.2312  0.7030
25338SOL    HW279803   6.642   7.141   1.540 -1.9547 -2.1381 -0.3065
25339SOL     OW79804   3.669   9.449   7.502 -1.3212  0.0392 -0.0727
25339SOL    HW179805   3.740   9.474   7.562 -0.6758  0.8813 -1.1452
25339SOL    HW279806   3.614   9.389   7.553  0.2862 -0.8278  0.7067
25340SOL     OW79807   4.025   3.866   1.910  0.0933  0.0305  0.5977
25340SOL    HW179808   3.946   3.815   1.892 -0.4626  0.7260  1.0236
25340SOL    HW279809   4.064   3.826   1.987  0.1973 -0.3512  0.3502
25341SOL     OW79810   3.391   8.158   3.112 -0.4187  0.7072 -0.8693
25341SOL    HW179811   3.456   8.227   3.123  0.3024 -0.0635 -0.1975
25341SOL    HW279812   3.314   8.203   3.076  0.5041  1.6203 -1.7732
25342SOL     OW79813   0.263   5.906   4.181 -0.2175 -0.1487  0.5560
25342SOL    HW179814   0.342   5.886   4.131  0.4132  2.7988  0.2047
25342SOL    HW279815   0.293   5.956   4.256 -1.3724 -2.8892  3.0397
25343SOL     OW79816   5.630   3.454   5.306  0.0578  0.5227 -0.0780
25343SOL    HW179817   5.551   3.506   5.296 -0.3683 -0.1410 -0.2515
25343SOL    HW279818   5.617   3.379   5.248  1.2208  0.8680 -0.8321
25344SOL     OW79819   7.721   0.164   7.834  0.1351  0.1327  0.4373
25344SOL    HW179820   7.678   0.177   7.919 -1.5954  2.0959 -0.6478
25344SOL    HW279821   7.675   0.090   7.795  1.7206 -1.5680  1.5900
25345SOL     OW79822   4.704   0.488   1.935  0.9657 -0.1628 -0.1463
25345SOL    HW179823   4.785   0.453   1.972  2.2947  2.1127 -0.7036
25345SOL    HW279824   4.716   0.482   1.840  0.8392  0.8999 -0.2423
25346SOL     OW79825   4.072   3.486   0.021 -0.0110  0.4883  0.0525
25346SOL    HW179826   4.069   3.420   0.090 -2.1322 -1.1831 -1.4965
25346SOL    HW279827   4.029   3.562   0.059 -1.0141 -0.3538  0.6602
25347SOL     OW79828   5.411   7.057   5.787 -0.1075 -0.5624  0.5620
25347SOL    HW179829   5.422   7.077   5.694  1.7238 -0.3734  0.7891
25347SOL    HW279830   5.350   7.124   5.818 -0.0444 -0.0764 -0.3146
25348SOL     OW79831  10.059   6.226   1.203 -0.1793  0.3461  0.4262
25348SOL    HW179832  10.143   6.204   1.162 -1.2110 -0.7641 -1.2049
25348SOL    HW279833  10.055   6.171   1.281  1.1321  1.3554  1.2567
25349SOL     OW79834   0.974   4.343   0.897  0.1739 -0.0351 -0.7475
25349SOL    HW179835   1.002   4.310   0.811 -0.8332 -1.5414 -0.5422
25349SOL    HW279836   0.923   4.421   0.877  1.2767  0.5618 -1.3797
25350SOL     OW79837   6.278   7.962   8.833  0.0055 -0.7066  0.1862
25350SOL    HW179838   6.285   7.945   8.927 -0.7896  0.5724  0.5132
25350SOL    HW279839   6.369   7.968   8.803  0.3253  0.9671  1.3222
25351SOL     OW79840   9.188   0.586   4.628  0.5089 -0.7727  0.0181
25351SOL    HW179841   9.191   0.682   4.634 -0.9834 -0.6896 -0.1490
25351SOL    HW279842   9.221   0.566   4.541  2.5343 -0.5523  0.7007
25352SOL     OW79843   6.195  10.122   3.912  0.1449  0.0143  0.2708
25352SOL    HW179844   6.186  10.204   3.961  1.7416 -0.2012  0.9948
25352SOL    HW279845   6.117  10.071   3.937 -1.0662  1.4272 -0.4945
25353SOL     OW79846   3.080   8.482  10.321 -0.1060  0.2535 -0.4172
25353SOL    HW179847   3.130   8.401  10.309 -1.8084 -0.9552  0.2662
25353SOL    HW279848   3.105   8.536  10.246  1.6915 -0.5481 -0.4568
25354SOL     OW79849   0.264   1.256   2.023  0.1843  0.5905  0.0391
25354SOL    HW179850   0.259   1.295   2.110 -2.5219 -0.5576  0.4966
25354SOL    HW279851   0.201   1.305   1.970 -0.1028 -0.3649 -0.5453
25355SOL     OW79852   3.340   1.618   0.822 -0.0587 -0.0533  0.0742
25355SOL    HW179853   3.421   1.653   0.787  0.1420  0.6371  1.1820
25355SOL    HW279854   3.271   1.667   0.778  0.2040  1.3436  1.1650
25356SOL     OW79855   2.687   8.904   4.305  0.3161  0.3554  0.3725
25356SOL    HW179856   2.642   8.822   4.323  0.9285 -0.2258 -0.6673
25356SOL    HW279857   2.622   8.958   4.259 -0.2378  0.6478  1.4786
25357SOL     OW79858   4.471   5.601  10.120  0.0156 -0.5365 -0.1454
25357SOL    HW179859   4.433   5.571  10.038 -1.6773  1.2726 -0.0861
25357SOL    HW279860   4.500   5.690  10.102  2.4095 -1.1199  0.4325
25358SOL     OW79861   4.190   9.292   1.982 -0.3674 -0.1938 -0.2018
25358SOL    HW179862   4.137   9.322   2.056 -0.0783  1.6654 -0.7064
25358SOL    HW279863   4.154   9.206   1.961 -1.7496  0.0813  0.8567
25359SOL     OW79864   2.032  10.070   9.824 -0.1527 -0.3106  0.3510
25359SOL    HW179865   2.067  10.155   9.851 -0.5471  0.0307 -0.1930
25359SOL    HW279866   2.085  10.006   9.872  0.9143  0.2047 -0.1047
25360SOL     OW79867   8.859   8.046   2.074  0.0510  0.4334  0.2897
25360SOL    HW179868   8.932   8.104   2.056 -0.1565  0.3370 -0.9348
25360SOL    HW279869   8.792   8.071   2.010  0.7645 -2.5909 -1.8580
25361SOL     OW79870   1.911  10.219   7.680  0.4072 -0.0249  0.3408
25361SOL    HW179871   1.820  10.234   7.653  0.1659 -0.2489  1.0051
25361SOL    HW279872   1.944  10.153   7.618  1.2966  2.6477 -2.2369
25362SOL     OW79873   1.427   7.009   9.120  0.3996  0.0621  0.2947
25362SOL    HW179874   1.379   6.940   9.073  1.4264  0.4228 -1.3641
25362SOL    HW279875   1.367   7.037   9.189 -1.8143  0.4835 -1.6597
25363SOL     OW79876   6.171   4.086   6.381  0.8271  0.2478 -0.1258
25363SOL    HW179877   6.211   4.032   6.448  0.9617 -1.0792 -1.2349
25363SOL    HW279878   6.172   4.032   6.302 -1.2087  0.9600 -0.7080
25364SOL     OW79879   7.194   4.310   8.103  0.0989 -0.0285  0.0791
25364SOL    HW179880   7.133   4.383   8.114 -2.4848 -1.9762 -0.0958
25364SOL    HW279881   7.177   4.278   8.014  0.4051 -1.4447  0.5080
25365SOL     OW79882   1.870   5.680   8.226 -0.2002  0.5316  0.6355
25365SOL    HW179883   1.917   5.608   8.268  1.2658 -0.0465 -1.7976
25365SOL    HW279884   1.797   5.698   8.285  0.8234 -1.2196  2.5899
25366SOL     OW79885   7.388   3.230   1.815 -0.1214 -0.0611  0.4028
25366SOL    HW179886   7.357   3.282   1.889  0.3866 -1.5756  1.7434
25366SOL    HW279887   7.334   3.152   1.816  0.8340 -0.7441  0.0524
25367SOL     OW79888   9.502   8.093   9.280 -0.0101 -0.1061  0.1157
25367SOL    HW179889   9.488   8.116   9.188 -1.7061 -0.1081  0.3437
25367SOL    HW279890   9.561   8.018   9.278 -0.4763 -0.4549 -0.9978
25368SOL     OW79891   2.651   0.644   2.530  0.2884 -0.7161 -0.5438
25368SOL    HW179892   2.716   0.712   2.515  0.3549 -0.9197 -1.2038
25368SOL    HW279893   2.698   0.562   2.515  1.0192 -1.1252  3.0125
25369SOL     OW79894   9.279   5.960   9.398 -0.1882 -0.1432 -0.3675
25369SOL    HW179895   9.188   5.967   9.426 -0.5370 -1.9755 -0.8911
25369SOL    HW279896   9.321   5.903   9.463  0.2125 -0.4805 -0.9066
25370SOL     OW79897   0.287   8.167   0.848  0.4840  0.4386 -0.5590
25370SOL    HW179898   0.261   8.256   0.824 -1.1949  0.0122 -0.4532
25370SOL    HW279899   0.214   8.112   0.819 -0.3790 -0.4375  2.7931
25371SOL     OW79900   9.969   8.997   6.751 -0.5062  0.1102 -0.3373
25371SOL    HW179901   9.937   8.920   6.704 -1.3189  0.6260 -0.6533
25371SOL    HW279902   9.894   9.027   6.801  0.3550 -0.4343  1.3343
25372SOL     OW79903   4.888   0.256   7.055  0.0603  0.5126  0.1378
25372SOL    HW179904   4.922   0.174   7.090 -0.5990 -0.5128 -1.5105
25372SOL    HW279905   4.931   0.266   6.971  0.3042  2.0066  0.4136
25373SOL     OW79906   1.111   7.103   5.508 -0.0307 -0.5493  0.0261
25373SOL    HW179907   1.032   7.113   5.454 -1.9011 -2.6896  2.1322
25373SOL    HW279908   1.078   7.101   5.598  2.7921  1.3938  1.2563
25374SOL     OW79909   5.198   0.374   1.229 -0.0041 -0.1308  0.2831
25374SOL    HW179910   5.233   0.296   1.271  0.2442 -0.2733 -0.1866
25374SOL    HW279911   5.199   0.354   1.135 -0.9929 -0.0015  0.2321
25375SOL     OW79912   6.938   7.002   5.450 -0.0976  0.3762  0.1327
25375SOL    HW179913   6.866   6.944   5.474  2.1524 -1.6539  2.5889
25375SOL    HW279914   6.912   7.088   5.483 -1.3088 -0.3574  1.1695
25376SOL     OW79915   0.374   5.425   0.610  0.3383  0.1294 -0.0234
25376SOL    HW179916   0.342   5.495   0.667  0.1437 -0.2597  0.3475
25376SOL    HW279917   0.468   5.420   0.629  0.5024  0.8343 -0.6404
25377SOL     OW79918   0.864   0.916   3.190  0.1863  0.4108 -0.0667
25377SOL    HW179919   0.799   0.914   3.261  1.8365  0.2601  1.5201
25377SOL    HW279920   0.931   0.977   3.221  2.3619 -1.7977 -0.1496
25378SOL     OW79921   1.576   2.932   6.922  0.3030 -0.1809  0.3123
25378SOL    HW179922   1.613   2.851   6.887 -3.4779 -1.3957 -1.4161
25378SOL    HW279923   1.527   2.905   6.999 -0.5783  0.5338  0.0215
25379SOL     OW79924   1.821   0.589   2.375  0.1544  0.2545 -0.1758
25379SOL    HW179925   1.778   0.672   2.396 -3.2279 -1.6002  1.0177
25379SOL    HW279926   1.767   0.551   2.306  1.9092 -0.7987 -1.0240
25380SOL     OW79927   4.799   2.838   7.630  0.7535 -0.1797  0.2947
25380SOL    HW179928   4.826   2.766   7.687 -0.5320  0.0413  1.2232
25380SOL    HW279929   4.733   2.799   7.572 -1.5701  0.6501  2.2129
25381SOL     OW79930   2.628   0.072   0.097 -0.0750  0.0832 -0.2455
25381SOL    HW179931   2.551   0.072   0.040 -1.6810  0.3134  1.7656
25381SOL    HW279932   2.682  -0.000   0.066 -1.8562 -1.0752 -0.8039
25382SOL     OW79933   9.350   5.561   3.293  0.3985  0.0302 -0.5637
25382SOL    HW179934   9.345   5.563   3.389 -0.0022  0.2615 -0.5916
25382SOL    HW279935   9.314   5.644   3.265  1.4028  0.3718 -0.8848
25383SOL     OW79936   0.299   0.150   2.022  0.3080  0.2441  0.2892
25383SOL    HW179937   0.383   0.192   2.003  0.6523 -0.8082 -0.6446
25383SOL    HW279938   0.323   0.060   2.046 -0.6003 -0.3332 -0.9184
25384SOL     OW79939  10.015   7.093   1.671  0.3005  0.1014  1.1560
25384SOL    HW179940   9.989   7.181   1.643 -0.2986 -0.2894  0.4780
25384SOL    HW279941   9.960   7.034   1.620  0.2612 -0.6609  2.0579
25385SOL     OW79942   5.145   3.586   2.881  0.7388 -0.4109  0.3721
25385SOL    HW179943   5.211   3.516   2.882  0.9933 -0.1667  0.5755
25385SOL    HW279944   5.156   3.631   2.965  1.0933  0.3528 -0.0703
25386SOL     OW79945   5.710   7.729   3.104  0.0808 -0.2761  0.0239
25386SOL    HW179946   5.721   7.674   3.182 -1.9078 -1.1864 -0.2797
25386SOL    HW279947   5.621   7.711   3.074  0.4249  0.8661 -1.8574
25387SOL     OW79948   6.905   5.441   8.610 -0.1799 -0.3058  0.0151
25387SOL    HW179949   6.810   5.447   8.624 -0.4182  1.5625 -1.9298
25387SOL    HW279950   6.914   5.395   8.527  0.6101  0.0809 -0.1196
25388SOL     OW79951   9.649   6.927   7.267 -0.0589 -0.4569  0.1854
25388SOL    HW179952   9.708   6.989   7.309  1.1202 -2.1597  1.1955
25388SOL    HW279953   9.668   6.934   7.174  1.2715 -0.4836  0.4353
25389SOL     OW79954   0.528   5.900   1.401  0.0695  0.6950  0.9218
25389SOL    HW179955   0.609   5.950   1.390  0.5815 -0.2027  0.5267
25389SOL    HW279956   0.545   5.843   1.476  0.6603 -1.0708 -0.4660
25390SOL     OW79957   9.166   1.833   6.706  0.0076 -0.3992 -0.8525
25390SOL    HW179958   9.162   1.742   6.735  0.8979 -0.5036 -1.0320
25390SOL    HW279959   9.096   1.877   6.755 -0.6105 -1.2324 -0.9743
25391SOL     OW79960   5.651  10.161   9.424 -0.4899 -0.4042 -0.1548
25391SOL    HW179961   5.593  10.085   9.419 -0.3761 -0.5255  0.3251
25391SOL    HW279962   5.599  10.228   9.469  0.1586 -0.9274  1.4464
25392SOL     OW79963   1.552   6.989   2.803 -0.0300  0.0747  0.3974
25392SOL    HW179964   1.589   7.069   2.840 -0.0707  0.8135 -1.0622
25392SOL    HW279965   1.475   7.018   2.755  0.7405 -0.6054 -1.3426
25393SOL     OW79966   3.493   4.509   0.286 -0.3847 -0.5840 -0.0425
25393SOL    HW179967   3.408   4.467   0.296 -0.4371 -0.2917  0.8772
25393SOL    HW279968   3.481   4.571   0.214 -1.0421 -0.3280  0.2762
25394SOL     OW79969   6.604   1.837   7.991  0.5921  0.5019  0.1953
25394SOL    HW179970   6.670   1.858   7.924 -0.1907  2.1043 -0.1155
25394SOL    HW279971   6.654   1.837   8.073  0.9835  1.9502 -0.0035
25395SOL     OW79972   7.894   5.901   9.043  0.3813  0.2821 -0.3332
25395SOL    HW179973   7.864   5.819   9.084  0.6054 -0.8073 -2.2400
25395SOL    HW279974   7.982   5.880   9.010  0.1045  1.0046 -1.5916
25396SOL     OW79975   9.604   8.702   6.865 -0.6869 -0.0132 -0.8704
25396SOL    HW179976   9.673   8.760   6.897 -1.2287  1.4833 -2.2960
25396SOL    HW279977   9.535   8.710   6.931 -0.6579  0.7843 -0.9275
25397SOL     OW79978   4.128   9.994   6.541  0.0653 -0.0535 -0.3384
25397SOL    HW179979   4.139  10.009   6.447  1.2200 -0.3326 -0.2618
25397SOL    HW279980   4.042  10.030   6.561  0.1582  0.7671 -1.3426
25398SOL     OW79981   0.094   3.336   9.962  0.4982  0.1683  0.2433
25398SOL    HW179982   0.145   3.416   9.975 -1.2320  1.5222 -0.7587
25398SOL    HW279983   0.021   3.343  10.024  0.1068 -0.4446 -0.1329
25399SOL     OW79984   4.388   2.927   7.105  0.4810 -0.0536  0.1543
25399SOL    HW179985   4.376   3.022   7.106 -0.4708 -0.1537 -0.2936
25399SOL    HW279986   4.473   2.913   7.146  0.5871  0.9846  0.3188
25400SOL     OW79987   4.191   9.726   0.439  0.0726  0.0914  0.5156
25400SOL    HW179988   4.127   9.661   0.409  0.4220 -0.6555  1.3448
25400SOL    HW279989   4.237   9.683   0.511  0.2654  1.3039  1.1335
25401SOL     OW79990   8.028   0.439   9.706 -0.1084 -0.1320  0.4190
25401SOL    HW179991   8.030   0.521   9.755  1.0451 -0.9873  1.9041
25401SOL    HW279992   8.120   0.423   9.683 -0.2508 -1.2105  0.5417
25402SOL     OW79993   7.752   7.969   7.764  0.0418 -0.6501 -0.2547
25402SOL    HW179994   7.813   8.009   7.826  1.6032 -1.3906 -1.2509
25402SOL    HW279995   7.681   7.936   7.819  1.0114 -0.6382  1.0646
25403SOL     OW79996   1.521   9.060   3.492  0.3958  0.0053 -0.0180
25403SOL    HW179997   1.502   9.105   3.575  0.3420 -1.5276  0.8510
25403SOL    HW279998   1.606   9.094   3.464  1.1604 -0.5493  1.5036
25404SOL     OW79999   7.944   1.911   5.466 -0.7772 -0.3246 -0.5918
25404SOL    HW180000   7.893   1.847   5.417  0.8399 -0.5548 -2.0553
25404SOL    HW280001   7.996   1.956   5.400  0.1007  0.6507  0.7243
25405SOL     OW80002   0.794  10.313   3.470  0.4783  0.0510 -0.4027
25405SOL    HW180003   0.834  10.233   3.506 -0.7636 -0.7353 -0.7126
25405SOL    HW280004   0.851  10.383   3.500  1.3503 -0.9050  0.2706
25406SOL     OW80005   9.256   9.278   7.635 -0.4709 -0.2663 -0.0350
25406SOL    HW180006   9.233   9.227   7.713 -0.2549 -0.4820 -0.1106
25406SOL    HW280007   9.352   9.284   7.638 -0.5317  0.7367  0.3561
25407SOL     OW80008   3.080   1.382   9.551  0.3160  0.4512 -0.3344
25407SOL    HW180009   3.070   1.353   9.641  2.1271 -1.2900 -0.6272
25407SOL    HW280010   3.105   1.475   9.559  0.4219  0.3353  0.9483
25408SOL     OW80011   9.920   6.125   5.821  0.4420  0.1521  0.5018
25408SOL    HW180012   9.948   6.085   5.738  1.2853 -0.9579  1.2757
25408SOL    HW280013   9.859   6.061   5.858 -0.3512  0.8981  0.4950
25409SOL     OW80014   2.742   0.536   4.278  0.0184 -0.6684 -0.5635
25409SOL    HW180015   2.649   0.562   4.277  0.4116  0.9425  0.5906
25409SOL    HW280016   2.746   0.461   4.219 -2.1271 -1.1451 -0.2109
25410SOL     OW80017  10.169   1.498   2.131 -0.2950  0.1049  0.6208
25410SOL    HW180018  10.255   1.526   2.161  0.1836 -1.0695  0.4042
25410SOL    HW280019  10.120   1.579   2.120  0.7132  0.7793  0.9451
25411SOL     OW80020   1.232   0.565   2.806  0.1403 -0.4955 -0.3897
25411SOL    HW180021   1.207   0.475   2.786 -1.8184 -0.4396  1.4592
25411SOL    HW280022   1.327   0.564   2.809  0.1588 -2.4150 -0.7916
25412SOL     OW80023   7.606   3.440   6.046 -0.7351  0.4268  0.2756
25412SOL    HW180024   7.544   3.456   5.975  0.1834 -0.9609 -0.9014
25412SOL    HW280025   7.561   3.378   6.103 -0.2630 -1.0874 -0.9190
25413SOL     OW80026   2.793   2.367   8.323  0.3885 -0.2977  0.6968
25413SOL    HW180027   2.769   2.417   8.401  0.0174  0.4106  0.1401
25413SOL    HW280028   2.866   2.417   8.285  0.1948 -0.3313  0.2826
25414SOL     OW80029  10.298   6.577   2.017  0.7935 -0.0310 -0.4485
25414SOL    HW180030  10.284   6.669   1.995  0.3459 -0.1953 -0.8784
25414SOL    HW280031  10.385   6.574   2.055  0.9889  0.5033 -0.8431
25415SOL     OW80032   2.087   8.733   8.981  0.0058  0.2664 -0.0700
25415SOL    HW180033   2.166   8.744   9.033 -1.0239  0.8028  1.4508
25415SOL    HW280034   2.091   8.803   8.916  1.5927 -0.7609 -1.1341
25416SOL     OW80035   7.591   7.188   0.816  0.5311 -0.0732  0.0228
25416SOL    HW180036   7.555   7.276   0.819  1.3159  0.2949 -0.8167
25416SOL    HW280037   7.583   7.162   0.724  0.5948 -0.7506  0.2057
25417SOL     OW80038   9.526   8.431   5.011  0.4824  0.2825 -0.6754
25417SOL    HW180039   9.510   8.466   4.923 -1.9730 -0.6426 -0.6727
25417SOL    HW280040   9.473   8.487   5.068  0.0292 -0.6743 -0.1334
25418SOL     OW80041   9.377  10.102   9.304  0.0167 -0.1104  0.0643
25418SOL    HW180042   9.383  10.045   9.381  1.9923 -1.5387 -1.0759
25418SOL    HW280043   9.460  10.150   9.303  0.5960 -1.0643 -1.8545
25419SOL     OW80044   9.755   3.617   9.557 -0.6150 -0.0328  0.3309
25419SOL    HW180045   9.720   3.615   9.646  0.6998  2.8729  1.0512
25419SOL    HW280046   9.710   3.691   9.515  1.8740  1.5180  0.1547
25420SOL     OW80047   1.168   4.783   8.159  0.2103 -0.3810 -0.6626
25420SOL    HW180048   1.177   4.848   8.089  0.4429 -0.3339 -0.5902
25420SOL    HW280049   1.221   4.709   8.130  0.7240 -0.1606 -0.3011
25421SOL     OW80050   7.554   7.084   4.617  0.3406  0.2161  0.1161
25421SOL    HW180051   7.530   6.992   4.619  0.7203  0.1223  0.9203
25421SOL    HW280052   7.650   7.084   4.616  0.3477  0.6067  0.5539
25422SOL     OW80053   2.009   5.458   8.343  0.0916  0.3750 -0.1520
25422SOL    HW180054   2.072   5.415   8.285  1.3546  1.6869  0.1939
25422SOL    HW280055   1.987   5.392   8.408  0.8349 -0.2218 -0.4888
25423SOL     OW80056   9.896   7.586   3.097  0.5221 -0.0552 -0.6276
25423SOL    HW180057   9.971   7.532   3.070  1.1127  0.2144  0.4190
25423SOL    HW280058   9.826   7.561   3.037  0.6098 -2.3364  0.1158
25424SOL     OW80059   0.516   0.985   3.241  0.1122  0.0596 -0.0261
25424SOL    HW180060   0.464   0.905   3.246 -1.7256  1.2867  1.6329
25424SOL    HW280061   0.596   0.964   3.289  0.5675 -1.3699 -1.3175
25425SOL     OW80062   5.253   2.848   2.724  0.6264  0.2808  0.7029
25425SOL    HW180063   5.171   2.810   2.691  0.9794  0.2472 -0.1730
25425SOL    HW280064   5.236   2.864   2.817 -0.4499  0.4661  0.4976
25426SOL     OW80065   9.442   1.023   9.880  0.0047  0.5612 -0.8106
25426SOL    HW180066   9.392   0.946   9.907  1.3070 -0.0847 -0.1294
25426SOL    HW280067   9.397   1.097   9.920 -1.3802  0.1934 -1.6315
25427SOL     OW80068   5.714   8.381   2.084 -0.4931  0.4679  0.2786
25427SOL    HW180069   5.644   8.393   2.020  0.4916 -1.0998 -1.1951
25427SOL    HW280070   5.747   8.470   2.101 -1.0890  0.9653 -1.0378
25428SOL     OW80071   8.520   1.379   0.101  0.4213 -0.0853  0.5769
25428SOL    HW180072   8.494   1.315   0.168 -0.4728  0.4042  0.7223
25428SOL    HW280073   8.475   1.460   0.127 -2.5615 -0.6282 -2.2741
25429SOL     OW80074   8.269   1.537   9.782 -0.1507  0.3210  0.6109
25429SOL    HW180075   8.250   1.489   9.862  0.4295  0.0795  0.6069
25429SOL    HW280076   8.330   1.482   9.733  1.1261  1.3670  0.9545
25430SOL     OW80077   9.496   0.858   4.605  0.0211  0.0198 -0.5762
25430SOL    HW180078   9.544   0.869   4.523  0.1397 -0.5428 -0.5867
25430SOL    HW280079   9.405   0.843   4.578  0.2174 -1.1524 -0.6649
25431SOL     OW80080   4.370   0.444   4.578  0.2080  0.4566  0.5487
25431SOL    HW180081   4.452   0.406   4.545  0.2313 -0.5777  1.7148
25431SOL    HW280082   4.312   0.446   4.502  1.0146  0.3312 -0.0813
25432SOL     OW80083   6.593   6.274   0.569 -0.5296  0.3304  0.1611
25432SOL    HW180084   6.668   6.311   0.615  0.1889 -0.7187 -0.1191
25432SOL    HW280085   6.544   6.226   0.636  0.4541 -1.1010 -0.0928
25433SOL     OW80086   3.830   2.571   4.596  0.3703  0.6383 -0.4346
25433SOL    HW180087   3.859   2.600   4.509  0.3315  0.2088 -0.5944
25433SOL    HW280088   3.742   2.537   4.583  1.2085 -1.6046 -0.7079
25434SOL     OW80089   8.099  10.147   7.464  0.7626 -0.0507  0.4311
25434SOL    HW180090   8.022  10.163   7.518  0.8660  2.1290  0.0058
25434SOL    HW280091   8.156  10.094   7.520  0.8562  2.0923  2.5516
25435SOL     OW80092   6.072   0.539  10.218 -0.1148  0.3642 -0.1674
25435SOL    HW180093   5.984   0.503  10.229  0.3444 -0.7388 -0.0577
25435SOL    HW280094   6.109   0.538  10.306 -0.0162  0.9209 -0.1984
25436SOL     OW80095   3.496   8.982   0.795  0.2325 -0.1348  0.2762
25436SOL    HW180096   3.509   8.961   0.702 -0.6238  0.2153  0.0711
25436SOL    HW280097   3.402   8.979   0.807  0.3093  0.3267  1.0194
25437SOL     OW80098   4.722   4.666   7.419 -0.2631 -0.2715 -0.5015
25437SOL    HW180099   4.699   4.578   7.388  0.7425 -0.4891 -0.6508
25437SOL    HW280100   4.778   4.651   7.495 -0.8812  0.2551  0.0699
25438SOL     OW80101   2.048   3.388   6.973 -0.2501  0.2025  0.1717
25438SOL    HW180102   2.045   3.366   7.066 -0.7068 -1.4383 -0.1922
25438SOL    HW280103   1.971   3.442   6.959 -1.4075 -1.3214  0.3657
25439SOL     OW80104   9.891   0.699   4.560 -0.0095 -0.2889  0.8114
25439SOL    HW180105   9.816   0.648   4.589 -0.4999  0.3816  0.7418
25439SOL    HW280106   9.907   0.762   4.630 -0.7532  0.8639 -0.0223
25440SOL     OW80107   5.434   8.925   9.158  0.1212 -0.3530 -0.6473
25440SOL    HW180108   5.473   8.990   9.216  2.7296 -1.0136 -1.4886
25440SOL    HW280109   5.434   8.844   9.209 -1.3747 -0.1105 -0.2336
25441SOL     OW80110   6.667   0.112   5.211  0.8517 -0.3006 -0.2364
25441SOL    HW180111   6.751   0.154   5.194  0.5477  0.9146  1.1049
25441SOL    HW280112   6.622   0.113   5.126  0.5305  2.9031 -0.1439
25442SOL     OW80113   5.693   8.268   9.289  0.1018  0.0082  0.4978
25442SOL    HW180114   5.650   8.185   9.308  1.7705 -1.5616 -1.9074
25442SOL    HW280115   5.703   8.268   9.193  1.2546  2.3985  0.5432
25443SOL     OW80116   9.562   1.844   3.924 -0.7379 -0.1696 -0.3269
25443SOL    HW180117   9.602   1.819   3.841 -0.8765 -0.3673 -0.3365
25443SOL    HW280118   9.636   1.851   3.985 -0.7411 -1.1790 -0.1873
25444SOL     OW80119   6.756   7.839   5.094  0.4540 -0.1668  0.0332
25444SOL    HW180120   6.709   7.798   5.022 -0.5188  2.1098 -0.6968
25444SOL    HW280121   6.747   7.777   5.167 -1.9380 -0.7395 -0.6637
25445SOL     OW80122   2.836   5.677   2.000  0.3727  1.0722  0.1780
25445SOL    HW180123   2.753   5.714   2.029  0.0685 -0.2587  1.1067
25445SOL    HW280124   2.825   5.582   2.010  2.0232  0.8700  0.4019
25446SOL     OW80125   6.877   0.787   2.099 -0.2714  0.1001 -0.1463
25446SOL    HW180126   6.828   0.708   2.121  1.0031 -1.6241 -2.9156
25446SOL    HW280127   6.816   0.838   2.045 -0.1961 -0.3914 -0.7144
25447SOL     OW80128   6.651   8.941   3.694 -0.4712 -0.7806  0.0032
25447SOL    HW180129   6.686   8.979   3.775  0.1370 -0.5969 -0.3431
25447SOL    HW280130   6.572   8.993   3.676  0.6288  0.6949 -0.7470
25448SOL     OW80131  10.183  10.285   9.425 -0.7717  0.0075  0.7768
25448SOL    HW180132  10.091  10.260   9.418 -1.3029  1.6283  1.5367
25448SOL    HW280133  10.224  10.249   9.347 -2.2973  0.2455 -0.1713
25449SOL     OW80134   0.130   1.722   8.023  0.0537 -0.6785  0.6737
25449SOL    HW180135   0.123   1.679   7.938  1.8919 -1.5914  0.9242
25449SOL    HW280136   0.144   1.650   8.085 -0.5047  0.0308  1.6423
25450SOL     OW80137   1.720   8.052   3.670 -0.0560  0.1124 -0.1697
25450SOL    HW180138   1.707   8.121   3.734  1.5141 -0.7891  1.1997
25450SOL    HW280139   1.665   7.980   3.701 -0.1261  0.0485 -0.4416
25451SOL     OW80140   7.668   7.476   3.077 -0.3470  0.2131  0.6128
25451SOL    HW180141   7.743   7.434   3.035 -0.2648  0.9506 -0.0187
25451SOL    HW280142   7.594   7.418   3.059 -0.1866  0.1876 -0.0100
25452SOL     OW80143   1.305   3.487   5.421 -0.5599 -0.3896 -0.3958
25452SOL    HW180144   1.215   3.453   5.412 -1.4542  1.5670  0.6502
25452SOL    HW280145   1.317   3.542   5.344  0.2515 -1.6174 -1.1850
25453SOL     OW80146   4.601   6.759   9.930 -0.1532  0.2833  0.4866
25453SOL    HW180147   4.547   6.836   9.913 -0.3446  0.0944  0.2355
25453SOL    HW280148   4.618   6.722   9.843  0.9732  0.7437  0.4911
25454SOL     OW80149   3.436  10.247   3.044  0.9130  0.1520 -0.7107
25454SOL    HW180150   3.502  10.187   3.080  0.7012 -0.3061 -1.0761
25454SOL    HW280151   3.363  10.241   3.105  1.1348  0.5311 -0.3981
25455SOL     OW80152   2.574   3.688   8.714  0.0344  0.2332 -0.3622
25455SOL    HW180153   2.560   3.771   8.760  2.0981  0.8350 -0.7473
25455SOL    HW280154   2.595   3.713   8.624 -1.9886 -0.8567 -1.2070
25456SOL     OW80155   3.557   8.817   1.037  0.5556  0.6444 -0.1027
25456SOL    HW180156   3.556   8.732   0.993 -0.6440  0.0847  0.9199
25456SOL    HW280157   3.526   8.879   0.970 -0.9656 -0.1402 -0.1874
25457SOL     OW80158   9.755   6.692   8.622 -0.3182  0.7558  0.1385
25457SOL    HW180159   9.783   6.774   8.581  0.6201  0.7575  0.7586
25457SOL    HW280160   9.786   6.698   8.712  0.6674 -0.7142 -0.0818
25458SOL     OW80161   8.180   0.419   8.171 -0.4513  0.6341  0.6930
25458SOL    HW180162   8.164   0.513   8.168  1.0987  0.9128 -0.4982
25458SOL    HW280163   8.096   0.381   8.196 -1.7023  2.1894 -0.8630
25459SOL     OW80164   2.577   9.092   8.985 -0.4844 -0.5121  0.1485
25459SOL    HW180165   2.611   9.004   9.003 -0.7460 -0.8860 -1.1033
25459SOL    HW280166   2.555   9.127   9.072 -0.6731 -1.8002  0.6443
25460SOL     OW80167   9.712   7.152   6.388  0.4240  0.3783 -0.2833
25460SOL    HW180168   9.687   7.065   6.418  2.4126 -0.3323 -0.5559
25460SOL    HW280169   9.713   7.146   6.292 -0.6364  1.0812 -0.3565
25461SOL     OW80170   4.073   2.171   8.865 -1.0516  0.4047 -0.9849
25461SOL    HW180171   4.022   2.248   8.840 -1.2010  0.1472 -1.4895
25461SOL    HW280172   4.146   2.206   8.915 -1.1004  0.8828 -1.2410
25462SOL     OW80173   1.879   8.721   6.878  0.5318 -0.3626  0.5442
25462SOL    HW180174   1.839   8.802   6.847  0.9639 -0.1285  0.5780
25462SOL    HW280175   1.867   8.659   6.806  0.5858 -0.1355  0.3377
25463SOL     OW80176   4.178   0.728   4.886  0.5074  0.0127 -0.2271
25463SOL    HW180177   4.098   0.681   4.909  0.4115 -1.9874 -3.8124
25463SOL    HW280178   4.149   0.809   4.845  0.4288  0.5030  0.7980
25464SOL     OW80179   1.496   8.035   6.135  0.2679 -0.4735  0.3092
25464SOL    HW180180   1.400   8.036   6.142  0.2566  0.4731  0.0876
25464SOL    HW280181   1.526   8.078   6.215  0.4187  1.6190 -0.8165
25465SOL     OW80182   2.426   8.958   3.619 -0.1293 -0.4175  0.2002
25465SOL    HW180183   2.341   8.942   3.578 -0.5692  0.7033  0.6164
25465SOL    HW280184   2.485   8.975   3.545  0.0016 -2.2453 -0.1512
25466SOL     OW80185   3.174   0.094   3.137 -0.4799  0.4028 -0.0026
25466SOL    HW180186   3.116   0.071   3.210 -0.5783  1.3705  0.2315
25466SOL    HW280187   3.209   0.180   3.160  1.5501 -0.4137  0.1589
25467SOL     OW80188   4.121   7.969   1.273 -0.2988  0.9533  1.0646
25467SOL    HW180189   4.052   8.021   1.315  0.1096  0.9058  1.7909
25467SOL    HW280190   4.073   7.912   1.212 -0.7994  1.7446  0.6945
25468SOL     OW80191   3.028   3.856   4.291  0.7025 -0.4475 -0.2401
25468SOL    HW180192   2.977   3.786   4.331 -1.1808  0.3285 -1.1414
25468SOL    HW280193   2.964   3.926   4.275  1.8179  0.1901 -2.3808
25469SOL     OW80194   8.188   8.167   8.916  0.4811  0.2953 -0.0175
25469SOL    HW180195   8.236   8.221   8.979 -0.9174  0.4043  0.9893
25469SOL    HW280196   8.125   8.118   8.969  0.9408 -1.4989 -1.0416
25470SOL     OW80197   8.527   1.031   3.910  0.8397 -0.4274  0.6421
25470SOL    HW180198   8.515   0.955   3.853  0.8473 -0.2625  0.4192
25470SOL    HW280199   8.606   1.011   3.960  0.0411 -1.2182  1.6393
25471SOL     OW80200   3.467   3.070   2.410  0.3111 -0.5602 -0.1875
25471SOL    HW180201   3.495   2.994   2.360  0.8617 -0.5398  0.0816
25471SOL    HW280202   3.377   3.051   2.435  0.6948 -1.4781  0.5418
25472SOL     OW80203   7.989   9.724   8.818  0.0506  0.7806 -0.4017
25472SOL    HW180204   8.074   9.692   8.851  0.0370  0.8768 -0.2731
25472SOL    HW280205   7.960   9.656   8.757  0.0342  0.5573 -0.1495
25473SOL     OW80206   5.834   4.105  10.112  0.1864 -0.0180 -0.0878
25473SOL    HW180207   5.925   4.086  10.089 -0.5254 -1.4731 -2.0016
25473SOL    HW280208   5.787   4.023  10.094 -1.3233  0.2533  2.1375
25474SOL     OW80209   8.868   1.130   7.823  1.0918 -0.3203 -0.5289
25474SOL    HW180210   8.795   1.070   7.836  0.3752  0.6717  0.1490
25474SOL    HW280211   8.935   1.076   7.782  0.5902 -1.6553  0.3202
25475SOL     OW80212   8.438   3.427   9.761 -0.2943  0.4771 -0.1328
25475SOL    HW180213   8.486   3.396   9.684 -0.1185  0.2767  0.0564
25475SOL    HW280214   8.467   3.370   9.832 -0.7788  0.3827 -0.0046
25476SOL     OW80215   8.855   9.046   6.099 -0.1249  0.2738 -0.2592
25476SOL    HW180216   8.772   9.002   6.119 -0.5005  0.8217 -0.5850
25476SOL    HW280217   8.838   9.138   6.118  0.3429  0.4209 -0.5380
25477SOL     OW80218   1.007   4.627   2.506  0.4082  0.4209 -0.4915
25477SOL    HW180219   1.075   4.618   2.572 -0.9435  1.0854  1.0476
25477SOL    HW280220   0.949   4.553   2.522  1.0872 -0.5732 -2.2745
25478SOL     OW80221   3.101   3.529   0.452  0.4467 -0.5494  1.4085
25478SOL    HW180222   3.117   3.436   0.435  0.7788 -0.2901  0.1423
25478SOL    HW280223   3.030   3.530   0.516 -1.3211 -1.7000 -0.3957
25479SOL     OW80224   1.485   4.143  10.258 -0.2028  0.0563 -0.1313
25479SOL    HW180225   1.484   4.230  10.218 -0.6807 -1.0411 -2.7239
25479SOL    HW280226   1.394   4.114  10.256 -0.2096 -0.1253  1.6848
25480SOL     OW80227   8.616   1.934   1.121  0.6282 -0.0560  0.4716
25480SOL    HW180228   8.656   1.871   1.062  2.1198  0.7495  0.5848
25480SOL    HW280229   8.688   1.989   1.151 -0.2787  0.3179  2.1129
25481SOL     OW80230   4.552  10.221   9.453 -0.1221  0.7454  0.0055
25481SOL    HW180231   4.599  10.145   9.418  0.0493  0.5628  0.6185
25481SOL    HW280232   4.488  10.242   9.386  0.6984  0.8732 -0.7651
25482SOL     OW80233  10.039   4.137   8.506 -0.2789  0.2144  0.5132
25482SOL    HW180234   9.980   4.208   8.480 -1.7730 -0.7529  1.0971
25482SOL    HW280235  10.116   4.148   8.451 -2.0988 -0.0383 -2.2760
25483SOL     OW80236   0.018  10.243   6.768  0.2154 -0.1403 -0.0185
25483SOL    HW180237   0.033  10.251   6.674  0.1472  1.4672  0.0832
25483SOL    HW280238  -0.074  10.217   6.776  0.1306  0.0494 -0.3846
25484SOL     OW80239   7.799   0.574   8.400 -0.0941  0.1226 -0.1942
25484SOL    HW180240   7.838   0.656   8.432 -1.0362 -0.0148  1.3694
25484SOL    HW280241   7.815   0.511   8.469 -2.0662 -0.2329 -0.0136
25485SOL     OW80242   3.634   9.665   8.749  0.1717 -0.5331 -0.4981
25485SOL    HW180243   3.611   9.721   8.823 -0.7403 -2.1515  0.5041
25485SOL    HW280244   3.720   9.696   8.721  0.2853  0.4761  0.8753
25486SOL     OW80245   8.737   5.957   8.650  0.0943  0.2225  0.0623
25486SOL    HW180246   8.814   5.943   8.704  1.0183 -0.6970 -1.4062
25486SOL    HW280247   8.675   5.889   8.677  1.2898 -1.4758 -1.2689
25487SOL     OW80248   4.970   9.842   1.606  0.5592  0.2583  0.5048
25487SOL    HW180249   4.919   9.794   1.671  0.1417 -1.0366 -0.7150
25487SOL    HW280250   5.053   9.795   1.602 -0.3855 -1.4298 -1.7658
25488SOL     OW80251   8.699   5.384   3.414 -0.3937 -0.0810 -0.0663
25488SOL    HW180252   8.611   5.348   3.406 -1.2665  2.0545 -0.8060
25488SOL    HW280253   8.735   5.377   3.325 -1.0313  1.8245 -0.5275
25489SOL     OW80254   7.475   8.190   8.688 -0.2204  0.0152 -0.0819
25489SOL    HW180255   7.509   8.163   8.774  0.9682 -0.1061 -0.5718
25489SOL    HW280256   7.551   8.185   8.630 -1.2516 -0.9939 -1.3961
25490SOL     OW80257   2.958  10.284   0.205 -0.5181  0.0043  0.1414
25490SOL    HW180258   2.910  10.267   0.124 -1.1332 -1.0500  0.7051
25490SOL    HW280259   3.049  10.265   0.183 -0.7783 -1.0271 -0.1154
25491SOL     OW80260   5.402   0.698   3.080 -0.2331 -0.2963  0.0396
25491SOL    HW180261   5.453   0.732   3.006  0.0966 -0.4820  0.1772
25491SOL    HW280262   5.344   0.633   3.042 -0.5458  0.0932 -0.1582
25492SOL     OW80263   8.650   4.264   9.877 -0.2952 -0.3735 -0.6914
25492SOL    HW180264   8.627   4.200   9.945 -1.3868 -1.2835 -1.8597
25492SOL    HW280265   8.722   4.223   9.829  0.0947  0.0128 -0.4415
25493SOL     OW80266   0.060   3.790   0.191  0.2483  0.1055  0.3230
25493SOL    HW180267   0.067   3.798   0.286 -0.4808  0.0888  0.3809
25493SOL    HW280268   0.146   3.757   0.164  0.5315  0.3071  0.9501
25494SOL     OW80269   7.302   5.557   9.007  0.2960 -0.5738 -0.2332
25494SOL    HW180270   7.322   5.650   9.022 -2.2492  0.4303 -2.2855
25494SOL    HW280271   7.247   5.557   8.929 -1.6924 -3.5968  1.0067
25495SOL     OW80272   9.147   2.697   2.728  0.0905 -0.1411 -0.0611
25495SOL    HW180273   9.068   2.689   2.676 -0.5777  0.6510  0.7958
25495SOL    HW280274   9.149   2.617   2.782  0.6890 -0.8730 -1.1293
25496SOL     OW80275   4.880   4.499   4.406 -0.2462  0.0226  0.6023
25496SOL    HW180276   4.846   4.570   4.461 -2.0147  0.1004 -0.5226
25496SOL    HW280277   4.940   4.542   4.346 -1.9769  0.8098 -0.6695
25497SOL     OW80278   1.343   9.471   9.307 -0.1547  0.4262 -0.1040
25497SOL    HW180279   1.396   9.524   9.247  0.5830 -0.3569 -0.1542
25497SOL    HW280280   1.397   9.464   9.386 -0.2566 -0.2189 -0.0886
25498SOL     OW80281   5.773   4.019   4.752  0.0295 -0.1474 -0.6399
25498SOL    HW180282   5.845   3.961   4.724  0.0464 -0.4151 -0.0575
25498SOL    HW280283   5.695   3.980   4.712  0.2272  0.2546 -1.4330
25499SOL     OW80284   4.427   5.305   3.716 -0.5918 -0.6112 -0.8481
25499SOL    HW180285   4.487   5.256   3.772 -0.1713  0.4170 -0.3762
25499SOL    HW280286   4.377   5.237   3.670 -0.1407 -1.4774 -0.1050
25500SOL     OW80287   7.452   6.543   8.255 -0.1164  0.7286 -0.2546
25500SOL    HW180288   7.545   6.538   8.276  0.1053 -2.6735 -1.5473
25500SOL    HW280289   7.414   6.591   8.329  2.5546  1.8744  0.4973
25501SOL     OW80290   5.217   1.058   7.387  0.2346 -0.0172 -0.2593
25501SOL    HW180291   5.154   1.064   7.459  1.7484 -0.9440  1.1951
25501SOL    HW280292   5.282   1.125   7.406 -0.2813  0.9872 -1.8009
25502SOL     OW80293   7.894   3.788   4.927 -0.1981 -0.8888  0.2826
25502SOL    HW180294   7.883   3.799   5.022 -0.4617 -0.5358  0.2122
25502SOL    HW280295   7.953   3.859   4.902 -0.6466 -0.5821  0.0787
25503SOL     OW80296   8.127   8.240   7.472 -0.5740  0.1001 -0.2949
25503SOL    HW180297   8.058   8.276   7.528 -0.6192 -0.9264  0.3575
25503SOL    HW280298   8.114   8.145   7.477  0.6521 -0.0933 -0.4611
25504SOL     OW80299   6.889   4.506   2.814 -0.4776  0.2321 -0.2760
25504SOL    HW180300   6.943   4.430   2.836 -0.2135  0.5042  0.0177
25504SOL    HW280301   6.812   4.499   2.871  0.0430  0.7483  0.5153
25505SOL     OW80302   5.827   0.609   3.824 -0.2463 -0.2088  0.3855
25505SOL    HW180303   5.865   0.599   3.911  0.1050 -3.7280 -0.0378
25505SOL    HW280304   5.874   0.684   3.786 -0.9045  1.8789  3.3481
25506SOL     OW80305   9.517   4.623   5.425 -0.0854 -0.7666  0.1100
25506SOL    HW180306   9.426   4.638   5.397 -0.3374 -0.1604  1.1772
25506SOL    HW280307   9.545   4.707   5.462  0.7797 -1.0636  0.1492
25507SOL     OW80308   7.621   0.847   9.487 -0.7175  0.4514  0.1835
25507SOL    HW180309   7.599   0.832   9.395 -2.2246  0.4377  0.5225
25507SOL    HW280310   7.697   0.791   9.503  0.3823  1.4133 -1.3737
25508SOL     OW80311   3.197   2.893   8.477 -0.3188  0.1004 -0.0772
25508SOL    HW180312   3.275   2.893   8.420 -0.1524  0.2874  0.1480
25508SOL    HW280313   3.136   2.834   8.433 -1.0360  1.8889 -1.6082
25509SOL     OW80314   6.283   6.066   1.904 -0.1902  0.2981 -0.7478
25509SOL    HW180315   6.356   6.004   1.895 -1.5756 -1.5061 -0.1981
25509SOL    HW280316   6.255   6.057   1.995  1.1343  3.6706  0.1431
25510SOL     OW80317   4.286   7.719   3.409  0.2879  0.3010  0.0688
25510SOL    HW180318   4.265   7.660   3.337  0.8350  1.3202 -0.9504
25510SOL    HW280319   4.366   7.683   3.447  0.2081 -0.0213 -0.0593
25511SOL     OW80320   9.988   8.806   4.716 -0.0540  0.0077 -0.0479
25511SOL    HW180321   9.968   8.895   4.688 -0.5555  0.4944  1.6934
25511SOL    HW280322  10.083   8.800   4.712 -0.0485  0.4468 -0.6471
25512SOL     OW80323   5.115  10.229   8.138 -0.0315 -0.3779  0.8131
25512SOL    HW180324   5.186  10.259   8.195 -1.3006  0.9986  1.7640
25512SOL    HW280325   5.158  10.201   8.058  1.4992  1.7563  0.7969
25513SOL     OW80326   0.036   5.797   4.348  0.1983  0.1731  0.1104
25513SOL    HW180327   0.024   5.892   4.361  1.1684  0.1921  0.9304
25513SOL    HW280328   0.115   5.790   4.294 -0.5638 -0.1402 -0.9960
25514SOL     OW80329   5.629   5.128   8.726  0.1364  0.0178  0.0650
25514SOL    HW180330   5.671   5.192   8.668 -1.3628  1.6962  0.7416
25514SOL    HW280331   5.665   5.043   8.699 -0.0977  0.7802 -2.9446
25515SOL     OW80332   4.075   3.157   5.008  0.9077  0.2057 -1.0088
25515SOL    HW180333   4.048   3.069   5.035 -0.9628  1.1176  0.3130
25515SOL    HW280334   4.166   3.164   5.035  0.1516 -0.2112  1.9484
25516SOL     OW80335   0.036   5.213   1.232  0.1891  0.4669 -0.3659
25516SOL    HW180336  -0.016   5.163   1.295  0.2788 -0.5931 -1.1041
25516SOL    HW280337   0.126   5.200   1.260  0.1692  0.8638 -0.1083
25517SOL     OW80338   7.543   3.146   1.566 -0.4559  0.7278  0.2569
25517SOL    HW180339   7.509   3.181   1.649 -1.0728  1.9920 -0.4993
25517SOL    HW280340   7.478   3.082   1.538 -2.0016  2.6732 -0.8642
25518SOL     OW80341   4.129   0.955   3.440  0.2849  0.1400  0.0408
25518SOL    HW180342   4.146   0.903   3.361  0.0383 -0.7194  0.5425
25518SOL    HW280343   4.144   1.045   3.412 -0.2084 -0.1067 -1.1143
25519SOL     OW80344   5.974   7.354  10.002 -0.6469 -0.2992  0.8033
25519SOL    HW180345   6.023   7.323   9.926  0.4800  3.0759 -0.0030
25519SOL    HW280346   6.023   7.322  10.077  0.0174 -1.0363  0.0776
25520SOL     OW80347   1.978   4.794   2.173  0.4264  0.5897  0.0863
25520SOL    HW180348   1.979   4.699   2.163  1.8253  0.7388 -1.4558
25520SOL    HW280349   1.945   4.827   2.089  0.8478  1.5051  0.2677
25521SOL     OW80350   3.903   1.597   3.891  0.2544 -0.4330 -0.7186
25521SOL    HW180351   3.811   1.617   3.911  0.1582 -1.1013 -0.4483
25521SOL    HW280352   3.908   1.599   3.796 -0.4745 -2.0988 -0.8402
25522SOL     OW80353   3.203   4.558   9.631 -0.4930 -0.7494 -0.0100
25522SOL    HW180354   3.186   4.465   9.614 -0.6767 -0.6632 -0.3032
25522SOL    HW280355   3.116   4.596   9.645 -0.4419 -0.5588 -0.2039
25523SOL     OW80356   7.237   2.465   6.294 -0.0068 -0.5118 -0.4567
25523SOL    HW180357   7.325   2.488   6.324 -0.3582 -1.0440  1.0685
25523SOL    HW280358   7.236   2.369   6.298  0.1630 -0.6919 -2.9660
25524SOL     OW80359   2.044   3.492   2.096  0.5330  0.0452  0.4715
25524SOL    HW180360   2.113   3.489   2.163  0.2551  0.2153  0.7725
25524SOL    HW280361   2.076   3.435   2.026  0.8382 -0.1255  0.7425
25525SOL     OW80362   0.911   0.794   8.900 -0.7307  0.6102  0.0735
25525SOL    HW180363   0.914   0.886   8.876  0.4941  0.6186  0.2249
25525SOL    HW280364   1.002   0.765   8.900 -1.0798 -0.5690  0.1650
25526SOL     OW80365   6.434   7.583   5.399 -0.0764 -0.2696  0.1886
25526SOL    HW180366   6.516   7.550   5.362 -0.9365 -1.0951 -1.0697
25526SOL    HW280367   6.403   7.512   5.455 -1.4560 -1.3290 -1.7875
25527SOL     OW80368   9.374   9.822   9.723  0.6352  0.4399 -0.1273
25527SOL    HW180369   9.446   9.761   9.709  0.3373  0.6070 -3.0338
25527SOL    HW280370   9.308   9.771   9.771  0.3455 -1.6622 -2.5432
25528SOL     OW80371   2.796   2.194   7.624  0.0028  0.5491 -0.5630
25528SOL    HW180372   2.846   2.126   7.669  0.7439 -0.5868 -2.8801
25528SOL    HW280373   2.761   2.250   7.693  1.1274 -0.9862  1.3298
25529SOL     OW80374   2.767   7.469   8.512  0.0999  0.5436 -0.2518
25529SOL    HW180375   2.834   7.504   8.571  0.3217  0.4152 -0.4241
25529SOL    HW280376   2.807   7.474   8.425  0.3687 -0.6719 -0.2134
25530SOL     OW80377   5.031   2.460   4.852  0.3103 -0.2632 -1.0487
25530SOL    HW180378   4.958   2.404   4.824  0.2255 -0.1259 -1.1038
25530SOL    HW280379   5.011   2.479   4.944  1.0100 -1.3807 -0.6516
25531SOL     OW80380   0.179   2.420   9.291 -0.7729  0.5751 -0.2697
25531SOL    HW180381   0.166   2.331   9.323  0.3228 -0.2475 -1.9843
25531SOL    HW280382   0.273   2.426   9.273 -0.8968  1.9340 -0.6210
25532SOL     OW80383   6.555   5.903   6.894  0.3712  0.1492 -0.1909
25532SOL    HW180384   6.605   5.882   6.973  0.7205 -0.6502 -0.6106
25532SOL    HW280385   6.594   5.984   6.861 -0.2442  0.8939  0.8374
25533SOL     OW80386   4.586   3.469   7.414 -0.2720  0.1521  0.3948
25533SOL    HW180387   4.643   3.505   7.482 -1.0669  0.0319  1.1394
25533SOL    HW280388   4.645   3.418   7.359  0.6576  1.5603  0.0398
25534SOL     OW80389   9.689   7.879   7.644  0.4125  0.0947  0.2385
25534SOL    HW180390   9.615   7.830   7.607 -0.3320  1.4578 -0.1382
25534SOL    HW280391   9.762   7.817   7.641 -0.6091 -1.1548  0.2463
25535SOL     OW80392   7.520   8.898   8.979 -0.6856 -1.0796 -0.2746
25535SOL    HW180393   7.616   8.897   8.972 -0.5738  1.5080 -0.1034
25535SOL    HW280394   7.503   8.870   9.069  0.0599  0.3569  0.3425
25536SOL     OW80395   5.977   5.097   1.809  0.7268  0.2946  0.2261
25536SOL    HW180396   6.014   5.030   1.751  1.8764  0.5481  0.6596
25536SOL    HW280397   6.042   5.167   1.810 -0.5798  1.5695 -0.4350
25537SOL     OW80398   7.915   0.329   8.290 -0.1992 -0.3384  0.0856
25537SOL    HW180399   7.888   0.420   8.291  1.3050  0.1304  0.9169
25537SOL    HW280400   7.834   0.280   8.305 -1.2048  0.7706 -1.3727
25538SOL     OW80401   3.435   2.002   4.609  0.2879  0.0237 -0.1624
25538SOL    HW180402   3.351   2.045   4.601  1.0250  2.1284  2.2066
25538SOL    HW280403   3.500   2.071   4.595  1.7325 -1.6846 -2.7408
25539SOL     OW80404   0.294   4.560   2.396  0.2378  0.0713 -0.2906
25539SOL    HW180405   0.335   4.486   2.442  0.2587  0.4096  0.2453
25539SOL    HW280406   0.278   4.625   2.465  0.0430  0.4892 -0.7257
25540SOL     OW80407   4.013   6.143   1.384 -0.4691  0.1307 -0.0860
25540SOL    HW180408   3.921   6.160   1.402 -0.5855 -0.6171  0.0635
25540SOL    HW280409   4.058   6.225   1.404 -0.6891 -0.3940  2.9199
25541SOL     OW80410   5.199   2.197   4.307 -0.2141  0.6789  0.3793
25541SOL    HW180411   5.218   2.126   4.368 -0.1897  0.0404 -0.3652
25541SOL    HW280412   5.120   2.238   4.343  0.3594  0.9533  1.3863
25542SOL     OW80413   1.221   2.892   8.312  0.1530 -0.1568 -0.3589
25542SOL    HW180414   1.206   2.809   8.266  1.6243  0.6556 -2.4530
25542SOL    HW280415   1.134   2.919   8.342 -0.3410 -2.4431  0.4247
25543SOL     OW80416   1.451   8.285   8.932 -0.7136  0.1081 -0.0158
25543SOL    HW180417   1.484   8.361   8.885 -0.8882 -0.3831 -0.9488
25543SOL    HW280418   1.387   8.320   8.994 -0.6290  0.7363 -0.2872
25544SOL     OW80419   1.399   1.064   7.392  0.3111  0.5341  0.2183
25544SOL    HW180420   1.441   1.114   7.322  2.6320 -0.1214  1.0436
25544SOL    HW280421   1.408   1.120   7.470 -2.0028  1.1428  0.1081
25545SOL     OW80422   7.859   8.106   1.029  0.5043  0.1446  0.0793
25545SOL    HW180423   7.876   8.071   0.942  0.8974  0.1754  0.1398
25545SOL    HW280424   7.809   8.038   1.074  0.7872 -0.1051  0.0142
25546SOL     OW80425   8.716   6.410   1.193 -0.1456  0.0627  0.4007
25546SOL    HW180426   8.712   6.502   1.166  0.0135 -0.2329 -0.6839
25546SOL    HW280427   8.744   6.413   1.285  1.2364  1.0618 -0.0168
25547SOL     OW80428   4.342   3.126   5.121 -0.2837  0.6716  0.2207
25547SOL    HW180429   4.373   3.140   5.211 -0.0134  0.0069  0.2298
25547SOL    HW280430   4.404   3.174   5.067 -1.5058  2.6767  0.4898
25548SOL     OW80431   4.353   4.060   0.163  0.5867  0.0110  0.3012
25548SOL    HW180432   4.320   4.105   0.240  0.5341 -0.3576  0.4951
25548SOL    HW280433   4.305   3.977   0.161  0.5391  0.0442 -0.1628
25549SOL     OW80434   4.784   2.955   2.411 -0.2603  0.2806  0.2389
25549SOL    HW180435   4.758   3.022   2.348  0.6150  1.3782  0.9910
25549SOL    HW280436   4.733   2.975   2.489 -0.5337 -0.3984  0.2384
25550SOL     OW80437   0.948  10.215   7.903  0.0097 -0.7634 -0.6126
25550SOL    HW180438   0.893  10.150   7.948 -2.5551  0.4289 -1.8412
25550SOL    HW280439   1.000  10.163   7.842 -0.3389 -1.8615 -0.0136
25551SOL     OW80440   9.226   1.874   1.496  0.9358  0.0367  0.2514
25551SOL    HW180441   9.296   1.819   1.530 -0.4825 -1.7475  0.4866
25551SOL    HW280442   9.189   1.824   1.424  1.5941  2.1748 -1.6888
25552SOL     OW80443   7.321   2.522   5.441  0.2766 -0.7310  0.2463
25552SOL    HW180444   7.402   2.508   5.491  0.2208 -0.2388  0.4833
25552SOL    HW280445   7.350   2.568   5.362  0.3657 -1.5183 -0.1897
25553SOL     OW80446   0.885   1.320  10.102  0.2638  0.2357  0.0992
25553SOL    HW180447   0.876   1.394  10.042  1.2613  1.6997  1.6734
25553SOL    HW280448   0.976   1.291  10.091  0.2024 -0.0315  0.2828
25554SOL     OW80449   7.378   3.485   3.754  0.3283  0.2858 -0.1973
25554SOL    HW180450   7.351   3.564   3.708 -0.8337 -0.2485 -0.4533
25554SOL    HW280451   7.473   3.495   3.766  0.5421  0.7735 -2.0349
25555SOL     OW80452   6.288   9.514   8.352  0.5133 -0.1251 -0.1775
25555SOL    HW180453   6.268   9.543   8.441  1.0790  2.7161 -0.8908
25555SOL    HW280454   6.213   9.459   8.327 -0.8902  1.1070  1.1453
25556SOL     OW80455   9.970   1.272   6.789 -0.0018  0.5420  0.0962
25556SOL    HW180456  10.040   1.329   6.759  1.4275  0.0009  2.1986
25556SOL    HW280457   9.996   1.185   6.761 -0.5487  0.5079 -0.3161
25557SOL     OW80458   6.072   8.587   9.493  1.0397 -0.3821  0.3549
25557SOL    HW180459   6.075   8.507   9.545 -0.4217  0.4874  1.8839
25557SOL    HW280460   6.153   8.633   9.515  0.7461 -0.3355  1.4009
25558SOL     OW80461   2.643   7.992   3.497 -0.2363  0.3267  0.7433
25558SOL    HW180462   2.652   7.929   3.425 -1.8227 -0.1285  0.9109
25558SOL    HW280463   2.728   7.990   3.540  1.3433  1.8139 -2.0196
25559SOL     OW80464   3.051   5.180   2.723 -0.5467 -0.6397 -0.1786
25559SOL    HW180465   3.132   5.183   2.774 -1.9918 -0.9877  2.2962
25559SOL    HW280466   3.079   5.151   2.636  2.1081  0.3684  0.2301
25560SOL     OW80467   7.894   3.128   7.823  0.3297  0.4235 -0.8861
25560SOL    HW180468   7.829   3.079   7.773 -0.3434 -0.2930  0.6134
25560SOL    HW280469   7.933   3.062   7.881  0.5428  1.3545  0.0526
25561SOL     OW80470   7.796   3.102   9.143 -0.4762  0.3501  0.1304
25561SOL    HW180471   7.799   3.023   9.089 -1.1212  0.7404 -0.4835
25561SOL    HW280472   7.879   3.101   9.191 -2.3335 -3.3313  3.9194
25562SOL     OW80473   0.724   6.936   5.637  0.4265  0.1953 -0.8690
25562SOL    HW180474   0.788   6.884   5.686 -0.2202 -0.5259 -0.7606
25562SOL    HW280475   0.729   6.903   5.547  0.8362  0.7610 -1.0601
25563SOL     OW80476   8.906   8.602   2.225  0.3910  0.1122  0.2149
25563SOL    HW180477   8.893   8.534   2.158 -0.1607  0.3657  0.0577
25563SOL    HW280478   8.844   8.578   2.295  1.3304 -0.4492  0.8781
25564SOL     OW80479   9.940   9.828  10.197  0.4380  0.2608 -0.2402
25564SOL    HW180480   9.976   9.859  10.280  1.3820  0.4264 -0.7023
25564SOL    HW280481   9.897   9.904  10.159  0.3808  0.2954 -0.1053
25565SOL     OW80482   6.487   1.828   9.633  0.6596  0.4455 -0.0538
25565SOL    HW180483   6.449   1.829   9.545  0.6599  0.8698 -0.0507
25565SOL    HW280484   6.419   1.868   9.688  0.6526  0.1647  0.1398
25566SOL     OW80485   1.928   7.496   5.238  0.0940 -0.1995 -0.1806
25566SOL    HW180486   1.899   7.415   5.196  0.9146 -0.2013 -0.7779
25566SOL    HW280487   1.859   7.559   5.219  0.1533 -0.3714 -0.9998
25567SOL     OW80488   3.379   2.812   4.570 -0.2534  0.1097 -0.0201
25567SOL    HW180489   3.289   2.842   4.579  0.3757  1.9998  0.3406
25567SOL    HW280490   3.421   2.836   4.653  0.6675 -0.4751 -0.3010
25568SOL     OW80491   7.639   3.692   2.944  0.0152  0.0547  0.7132
25568SOL    HW180492   7.714   3.741   2.978  2.2966 -2.1103 -0.8592
25568SOL    HW280493   7.668   3.601   2.945 -2.4568 -0.8138 -0.3845
25569SOL     OW80494   5.257   7.255   5.961 -0.3492  0.1409  0.5658
25569SOL    HW180495   5.167   7.245   5.992  0.1087 -0.9484  1.6464
25569SOL    HW280496   5.290   7.332   6.007 -0.3441 -0.2270  1.2031
25570SOL     OW80497   6.391   9.933   0.988  0.0757 -0.3664  0.0581
25570SOL    HW180498   6.383   9.939   1.083 -0.5694 -1.7533  0.1242
25570SOL    HW280499   6.451  10.003   0.964 -0.1753  0.3480  1.4227
25571SOL     OW80500   8.977   7.693   1.419  0.3610 -0.4771 -0.3433
25571SOL    HW180501   9.021   7.748   1.354 -0.5735 -0.4703 -0.9971
25571SOL    HW280502   8.884   7.713   1.407 -0.0397 -2.4868 -0.8723
25572SOL     OW80503   6.546   7.631   2.924  0.1160  0.5362 -0.4704
25572SOL    HW180504   6.585   7.563   2.868  1.8068 -0.2899  1.6064
25572SOL    HW280505   6.505   7.582   2.995 -0.6606  1.6330 -0.1499
25573SOL     OW80506   1.934   9.490   1.732  0.1401 -0.2807 -0.1328
25573SOL    HW180507   1.879   9.439   1.793  1.3670  1.5582  2.7141
25573SOL    HW280508   2.024   9.471   1.759  0.6728  2.2748  0.1327
25574SOL     OW80509   4.638  10.318   6.287  0.1235  0.0554  0.1236
25574SOL    HW180510   4.576  10.388   6.267  0.6797  0.3026 -0.7931
25574SOL    HW280511   4.587  10.237   6.274  0.4188  0.1871 -2.4096
25575SOL     OW80512  10.275   4.411   0.225  0.5214 -0.2151 -0.1882
25575SOL    HW180513  10.233   4.449   0.302  1.9224  0.4974  0.2523
25575SOL    HW280514  10.202   4.391   0.166 -0.3931  3.3168 -0.5180
25576SOL     OW80515   0.184   2.574   0.506 -0.6420 -0.2912  0.1061
25576SOL    HW180516   0.278   2.587   0.522 -0.9708  0.7204  1.3707
25576SOL    HW280517   0.173   2.595   0.413  1.0160 -4.4564 -1.2854
25577SOL     OW80518   4.055   3.321   5.224 -0.2837  0.0139 -0.0916
25577SOL    HW180519   4.064   3.284   5.136  1.5302  0.2720 -0.0577
25577SOL    HW280520   4.098   3.407   5.218 -0.3310  0.1280  0.9848
25578SOL     OW80521   7.323   4.870   0.545  0.2344 -0.1035  0.0331
25578SOL    HW180522   7.366   4.787   0.522 -1.5243 -1.3601  1.0351
25578SOL    HW280523   7.345   4.884   0.637  3.4386  2.4972 -0.9400
25579SOL     OW80524   0.473   2.109   2.710  0.2111 -0.2228 -0.9530
25579SOL    HW180525   0.384   2.101   2.674  0.2945 -1.7641 -0.8506
25579SOL    HW280526   0.502   2.019   2.723  2.3677  0.1790 -2.3975
25580SOL     OW80527   7.178   2.371   3.707 -0.3110 -0.0906 -0.0457
25580SOL    HW180528   7.227   2.372   3.789 -0.9156  0.7845  0.3226
25580SOL    HW280529   7.105   2.311   3.723  0.2133 -0.8218 -0.3463
25581SOL     OW80530   3.932   4.795   0.303  0.4962 -0.1872  0.4209
25581SOL    HW180531   3.990   4.861   0.264 -1.3363  0.7936 -0.8261
25581SOL    HW280532   3.880   4.762   0.229 -2.3565  0.9176  1.7535
25582SOL     OW80533   6.502   1.999   7.697  0.0056 -0.0048 -0.0974
25582SOL    HW180534   6.593   1.971   7.708  0.4548 -0.0357 -3.1644
25582SOL    HW280535   6.506   2.094   7.698  0.2094  0.0025 -0.9773
25583SOL     OW80536   6.631   4.468   0.580 -0.6454  0.0616 -0.2079
25583SOL    HW180537   6.690   4.399   0.610  1.4842  2.5812  1.7790
25583SOL    HW280538   6.544   4.436   0.603  0.3438 -1.4965  1.6869
25584SOL     OW80539   6.229   7.832   2.823 -0.0887 -0.2358  0.0584
25584SOL    HW180540   6.185   7.768   2.879  2.0262 -0.7443  1.2521
25584SOL    HW280541   6.257   7.901   2.882 -0.0585  0.5337 -0.8180
25585SOL     OW80542   8.492   9.317   0.879  0.1466 -0.2223 -0.3491
25585SOL    HW180543   8.415   9.342   0.931  0.5191  1.6419 -0.6195
25585SOL    HW280544   8.526   9.239   0.923  0.6272  1.4291  2.4633
25586SOL     OW80545   8.540   3.751   2.652 -0.1691  0.1677  0.6420
25586SOL    HW180546   8.524   3.843   2.634  0.2425  0.3035  0.9398
25586SOL    HW280547   8.554   3.711   2.566 -1.4277  0.1613  0.4227
25587SOL     OW80548   0.410   3.503   6.521  0.1437 -0.8261 -0.0303
25587SOL    HW180549   0.378   3.575   6.466  1.3872 -0.7567 -0.6901
25587SOL    HW280550   0.457   3.547   6.591  0.6857 -0.9907 -0.2913
25588SOL     OW80551   6.283   6.724   2.516 -0.3519  0.2212 -0.3718
25588SOL    HW180552   6.188   6.732   2.521 -0.2426  1.0551  0.8587
25588SOL    HW280553   6.309   6.788   2.449 -0.5605  1.0085  0.2829
25589SOL     OW80554   6.740   5.604   7.805  0.2754 -0.0045 -0.3277
25589SOL    HW180555   6.714   5.696   7.802 -0.0233  0.2745  3.9613
25589SOL    HW280556   6.658   5.555   7.808  0.2384  0.0535  1.8396
25590SOL     OW80557   6.083   5.856   2.454 -0.8465  0.0933  0.2531
25590SOL    HW180558   6.135   5.810   2.387 -1.5174  0.3325 -0.4412
25590SOL    HW280559   6.101   5.949   2.438 -1.2466  0.1628  0.2132
25591SOL     OW80560   4.668   3.445   2.060 -0.2172 -0.6266  0.0059
25591SOL    HW180561   4.689   3.518   2.118  0.3927 -0.2027 -0.7344
25591SOL    HW280562   4.599   3.398   2.106 -0.2618  0.1170  0.7342
25592SOL     OW80563   5.133   2.345   7.246  0.3503  0.1358 -0.1460
25592SOL    HW180564   5.058   2.312   7.196  0.4355  1.8220 -1.4827
25592SOL    HW280565   5.114   2.438   7.259  1.9539  0.4748 -0.0313
25593SOL     OW80566   6.499   0.666   4.495  0.4367 -0.0800 -0.7295
25593SOL    HW180567   6.520   0.608   4.421  0.5674  1.9056 -2.3453
25593SOL    HW280568   6.581   0.673   4.544  1.2449  0.9445 -2.1586
25594SOL     OW80569   6.167   1.094  10.030  0.2772  0.0578  0.6673
25594SOL    HW180570   6.208   1.035   9.967  1.0781  1.6715 -0.3852
25594SOL    HW280571   6.241   1.136  10.075 -0.2048  1.5310  0.1443
25595SOL     OW80572   0.165   4.315   6.893  0.3038  0.5043  0.7906
25595SOL    HW180573   0.231   4.302   6.962  0.9284  0.5319  0.2127
25595SOL    HW280574   0.081   4.300   6.936  0.7414 -0.4863  1.3246
25596SOL     OW80575   8.860   3.046   8.591 -0.0650 -0.2841 -0.0688
25596SOL    HW180576   8.877   3.125   8.539  0.3546  0.2333  0.8336
25596SOL    HW280577   8.765   3.038   8.592 -0.0827 -1.1958 -2.2037
25597SOL     OW80578   3.983   9.246   0.368  0.4173  0.1206 -0.1293
25597SOL    HW180579   3.922   9.289   0.308 -0.9473 -0.4211  0.8112
25597SOL    HW280580   3.943   9.256   0.454  1.7679 -0.1036  0.5545
25598SOL     OW80581   9.657   3.179   5.332  0.5657 -0.1392 -0.1380
25598SOL    HW180582   9.635   3.086   5.341  0.5100 -0.1747 -0.6033
25598SOL    HW280583   9.627   3.218   5.414  0.2858 -0.4763 -0.0729
25599SOL     OW80584   0.177   8.228   2.878  0.6252 -0.0187 -0.0277
25599SOL    HW180585   0.165   8.154   2.938 -0.0267 -1.1537 -1.4611
25599SOL    HW280586   0.271   8.232   2.863  0.5464 -2.1911 -1.7462
25600SOL     OW80587   2.879   9.617   4.974 -0.0725 -0.4546  0.4272
25600SOL    HW180588   2.792   9.599   5.011  0.1380 -1.0139  0.6652
25600SOL    HW280589   2.869   9.597   4.881 -0.6042  0.9564  0.1462
25601SOL     OW80590   5.791   3.309   0.782 -0.6469  0.6990 -0.2381
25601SOL    HW180591   5.741   3.335   0.859 -0.4990  0.6040 -0.1092
25601SOL    HW280592   5.763   3.219   0.763  0.6453  0.0408  0.8083
25602SOL     OW80593   4.511   5.891   6.431 -0.4182 -0.6508  0.2529
25602SOL    HW180594   4.439   5.898   6.369 -1.6689 -1.4820  1.5526
25602SOL    HW280595   4.578   5.841   6.384 -0.5470  0.3543 -1.0607
25603SOL     OW80596   1.015   3.492   5.393 -0.2401  0.2414 -0.1645
25603SOL    HW180597   0.989   3.536   5.312 -1.0406 -0.9020 -0.5557
25603SOL    HW280598   0.948   3.519   5.457 -0.5610 -0.1504 -0.3279
25604SOL     OW80599   6.681   2.862   4.985  0.1495 -0.1335  0.2539
25604SOL    HW180600   6.776   2.870   4.992  0.0506  1.4205  0.1654
25604SOL    HW280601   6.662   2.877   4.893 -0.2097  0.0653  0.3556
25605SOL     OW80602   9.674   6.081   3.791  0.3504  0.2327  0.2129
25605SOL    HW180603   9.587   6.087   3.753  0.6544  1.1688 -0.3581
25605SOL    HW280604   9.677   6.151   3.856 -0.3072 -1.5876  2.3402
25606SOL     OW80605  10.029   2.638   2.329  0.2802  0.2042  0.5697
25606SOL    HW180606  10.050   2.705   2.263  0.0419 -1.6632 -1.4902
25606SOL    HW280607  10.107   2.636   2.385  1.1339  0.7996 -0.5460
25607SOL     OW80608   7.187   2.047   0.916  0.4369 -0.4516  0.3650
25607SOL    HW180609   7.102   2.072   0.880  0.2434 -1.7457 -0.1429
25607SOL    HW280610   7.165   1.983   0.985  1.0476 -2.2490 -1.0445
25608SOL     OW80611   1.195   5.277   3.635 -0.4944 -0.2425  0.0065
25608SOL    HW180612   1.290   5.287   3.624  0.0006  1.3110  4.0802
25608SOL    HW280613   1.157   5.337   3.570  1.3550  0.3964 -0.5595
25609SOL     OW80614   1.540   0.744   8.929 -0.3217  0.2035  0.6577
25609SOL    HW180615   1.514   0.808   8.863  0.9578  0.1545  0.0747
25609SOL    HW280616   1.568   0.796   9.004  0.4530  0.3323  0.2871
25610SOL     OW80617   3.274   5.148   4.494 -0.1146  0.1238 -0.0432
25610SOL    HW180618   3.361   5.159   4.454  1.6603  0.5759  3.5665
25610SOL    HW280619   3.262   5.226   4.548 -3.4640  0.6984 -1.3619
25611SOL     OW80620   3.565   6.497   1.908  0.7711  0.0241 -0.4769
25611SOL    HW180621   3.549   6.558   1.837  0.5080  0.4698 -0.0447
25611SOL    HW280622   3.479   6.480   1.946  1.0515  0.9365  0.6483
25612SOL     OW80623   9.096   2.752   5.434  0.0556 -0.2235 -0.0737
25612SOL    HW180624   9.119   2.798   5.515  3.6600  0.5483 -1.3409
25612SOL    HW280625   9.001   2.758   5.429 -0.4645 -1.0242  4.4492
25613SOL     OW80626   6.854  10.166  10.270 -0.1105  0.3330  0.5373
25613SOL    HW180627   6.939  10.124  10.283  0.0089 -0.0504 -1.1345
25613SOL    HW280628   6.860  10.204  10.182 -2.2886 -1.3978 -0.4818
25614SOL     OW80629   5.212   3.088   9.761  0.8049  0.1260 -0.2052
25614SOL    HW180630   5.174   3.164   9.718  1.9846  0.8592 -0.0024
25614SOL    HW280631   5.277   3.056   9.699  2.2875  0.9938  0.8454
25615SOL     OW80632   4.261   7.045   3.149  1.0914 -0.0245 -0.0862
25615SOL    HW180633   4.324   6.977   3.173  0.0041 -0.6519  1.1058
25615SOL    HW280634   4.229   7.079   3.232 -0.5115 -0.0722 -0.6505
25616SOL     OW80635   7.966   9.866   8.115 -0.4162  0.0217 -0.0528
25616SOL    HW180636   7.913   9.865   8.195  0.8451 -1.2178  0.8299
25616SOL    HW280637   7.946   9.783   8.072  0.2280 -0.1087 -0.1082
25617SOL     OW80638   2.187   6.168   0.873 -0.3078 -0.2675  0.3646
25617SOL    HW180639   2.234   6.085   0.880 -0.4206 -0.2607  1.3941
25617SOL    HW280640   2.202   6.197   0.783  1.2070 -0.5391  0.4911
25618SOL     OW80641   1.272   7.900   0.951 -0.4715 -0.0408  0.3548
25618SOL    HW180642   1.188   7.890   0.995 -1.1713  0.0297 -0.8993
25618SOL    HW280643   1.295   7.811   0.924 -1.2705  0.1904 -1.2284
25619SOL     OW80644   2.874   2.120   4.837  0.3837 -0.1250 -0.1217
25619SOL    HW180645   2.822   2.059   4.888  0.2004 -0.2366 -0.4443
25619SOL    HW280646   2.837   2.118   4.750 -0.1180  1.0255  0.0406
25620SOL     OW80647   2.710   0.538   1.874 -0.1168  0.1693  0.0388
25620SOL    HW180648   2.711   0.461   1.818 -1.3612 -0.3795  0.7162
25620SOL    HW280649   2.702   0.503   1.963 -3.5123  1.0009  0.2266
25621SOL     OW80650   5.327   0.927   4.582  0.7985 -0.3047  0.4114
25621SOL    HW180651   5.410   0.894   4.617  0.5828 -0.0848  1.1428
25621SOL    HW280652   5.352   1.006   4.533  0.8579  0.6090  1.8701
25622SOL     OW80653   8.539   5.517   1.384 -0.1588  0.2265 -0.4068
25622SOL    HW180654   8.562   5.495   1.294 -0.9561 -0.8941 -0.3625
25622SOL    HW280655   8.498   5.437   1.419  1.3578  0.1512  1.3865
25623SOL     OW80656   7.278   4.289   2.041 -0.3783  0.7170  0.5426
25623SOL    HW180657   7.217   4.223   2.008  0.9068 -0.0502 -0.3698
25623SOL    HW280658   7.356   4.280   1.986 -0.1383  2.9736  0.4101
25624SOL     OW80659   2.094   3.884   0.903 -0.7092 -0.5775 -0.0910
25624SOL    HW180660   2.089   3.836   0.821 -2.0398  1.6397 -1.4011
25624SOL    HW280661   2.182   3.922   0.904 -0.7125 -0.5616 -0.4999
25625SOL     OW80662   7.274   0.198   8.633 -0.3413  0.2883  0.0326
25625SOL    HW180663   7.321   0.177   8.714  0.4016  1.5024 -0.0642
25625SOL    HW280664   7.195   0.244   8.662 -0.9062 -0.7071  0.1310
25626SOL     OW80665   3.380   1.912   4.277  0.2187  0.3539  0.1803
25626SOL    HW180666   3.314   1.929   4.344 -0.1289  0.4331 -0.1822
25626SOL    HW280667   3.451   1.974   4.298 -0.1544  0.8122  0.1100
25627SOL     OW80668   0.775   8.612   1.301 -0.2562 -0.0011 -0.2034
25627SOL    HW180669   0.862   8.617   1.342 -0.1478  0.6378 -0.5048
25627SOL    HW280670   0.780   8.534   1.245  0.4953  0.6469 -1.0583
25628SOL     OW80671   2.187   7.423   0.539  0.0918  0.4448 -0.2037
25628SOL    HW180672   2.119   7.409   0.605 -0.2031 -0.6925 -0.7284
25628SOL    HW280673   2.239   7.496   0.573 -0.9075  0.8034  0.5927
25629SOL     OW80674   4.754   2.713   8.377  0.5787  0.2968  0.1250
25629SOL    HW180675   4.690   2.784   8.386 -2.4495 -2.1006 -0.9150
25629SOL    HW280676   4.702   2.633   8.384  2.8504 -1.8993 -4.1958
25630SOL     OW80677   2.290   3.122   1.833  0.2155  0.3435  0.3021
25630SOL    HW180678   2.357   3.058   1.854  0.4415  0.7056  0.6883
25630SOL    HW280679   2.218   3.070   1.796  0.6614 -0.0541 -0.0202
25631SOL     OW80680   6.378   7.539   0.570 -1.0103  0.1958 -0.3256
25631SOL    HW180681   6.333   7.610   0.615  0.6878  0.7380  0.6115
25631SOL    HW280682   6.375   7.564   0.477 -0.3862  1.5597 -0.0083
25632SOL     OW80683   2.667   7.537   9.920 -0.1945  0.8483 -0.2460
25632SOL    HW180684   2.621   7.490   9.989 -0.7435  1.0361 -0.4750
25632SOL    HW280685   2.598   7.564   9.859  0.2863  0.6056 -0.9175
25633SOL     OW80686   7.392   2.187   4.336 -0.0668  0.1628  0.7953
25633SOL    HW180687   7.380   2.249   4.408  0.5456  0.7436  0.4161
25633SOL    HW280688   7.327   2.119   4.351 -0.4506  0.6693  1.4748
25634SOL     OW80689   1.817   9.362   2.595  0.2594 -0.0507 -0.2122
25634SOL    HW180690   1.860   9.277   2.603  1.8454  0.7856  0.6801
25634SOL    HW280691   1.800   9.373   2.502 -1.9437 -2.2435 -0.1545
25635SOL     OW80692   4.281   7.259   5.011  0.1456 -0.2671  0.0556
25635SOL    HW180693   4.268   7.243   4.918  0.4412  0.2039 -0.0694
25635SOL    HW280694   4.202   7.307   5.038 -0.1211 -0.7465  0.1360
25636SOL     OW80695  10.035   3.326   1.726 -0.1749 -0.4276  0.2401
25636SOL    HW180696   9.963   3.289   1.777 -0.4857 -0.8831 -0.5042
25636SOL    HW280697   9.999   3.405   1.686 -0.4864 -1.0128 -0.6701
25637SOL     OW80698   0.424   4.647   3.050 -0.4952 -0.2949  0.0436
25637SOL    HW180699   0.360   4.702   3.095  0.3415  1.9460 -1.3086
25637SOL    HW280700   0.475   4.607   3.121 -1.9088 -0.3297  1.0913
25638SOL     OW80701   2.428   3.145   4.431 -0.4062 -0.1301  0.1770
25638SOL    HW180702   2.483   3.087   4.484  0.6785 -1.3889 -2.2154
25638SOL    HW280703   2.345   3.098   4.423 -0.0421 -0.6774 -0.4947
25639SOL     OW80704   0.712   9.393   8.652  0.8701 -0.1458 -0.1521
25639SOL    HW180705   0.798   9.353   8.658  0.2026 -1.4804  1.0630
25639SOL    HW280706   0.655   9.324   8.619  0.0339  0.3555  0.2076
25640SOL     OW80707   1.803   6.216   1.188 -0.0670 -0.1617 -0.0804
25640SOL    HW180708   1.805   6.143   1.249 -2.2773  0.4851  0.8725
25640SOL    HW280709   1.843   6.289   1.235 -2.5863  0.5867  1.0817
25641SOL     OW80710   2.605   2.142   8.290  0.2967 -0.5845  0.4185
25641SOL    HW180711   2.584   2.056   8.327  0.1511 -1.2769 -1.1992
25641SOL    HW280712   2.695   2.159   8.320 -0.5983  0.0025  3.0190
25642SOL     OW80713   3.841   8.746   2.748  0.0325 -0.2024  0.0559
25642SOL    HW180714   3.801   8.825   2.712 -0.4673  0.2354  1.5319
25642SOL    HW280715   3.825   8.751   2.842  2.5183 -0.6109  0.5640
25643SOL     OW80716   1.855   4.537   5.975 -0.2401 -0.3809 -0.5795
25643SOL    HW180717   1.901   4.619   5.993 -1.4265 -0.0470  1.1681
25643SOL    HW280718   1.827   4.545   5.884 -1.7357  1.9007  0.0065
25644SOL     OW80719   6.559   8.120   2.568 -0.4194  0.0309  0.3880
25644SOL    HW180720   6.532   8.191   2.626  0.7276 -0.4450  1.5550
25644SOL    HW280721   6.479   8.069   2.553 -0.8885  0.5987  0.9162
25645SOL     OW80722   5.644   4.693   2.321 -0.1638 -0.4397  0.3786
25645SOL    HW180723   5.590   4.755   2.271 -0.1510 -0.2882  0.5503
25645SOL    HW280724   5.727   4.689   2.273  0.5436  1.1269  1.3762
25646SOL     OW80725   6.672   1.919   7.305  0.2137  0.0556  0.0389
25646SOL    HW180726   6.584   1.883   7.319  0.4199 -0.5547 -0.2113
25646SOL    HW280727   6.727   1.870   7.366  0.7103 -0.9394 -1.1871
25647SOL     OW80728   3.989   1.397   5.976  1.1254  0.5938 -0.2119
25647SOL    HW180729   3.952   1.478   5.940  1.5299  0.9224  0.1082
25647SOL    HW280730   3.922   1.366   6.037 -0.4472 -0.9908 -2.5705
25648SOL     OW80731   0.708   5.047   9.723  0.4395 -0.3867 -0.1341
25648SOL    HW180732   0.688   4.967   9.674  0.8237 -1.3894  1.2675
25648SOL    HW280733   0.803   5.042   9.738  0.1202 -0.9972  2.1008
25649SOL     OW80734   1.917   6.173   2.807 -0.5803  0.0679 -0.2041
25649SOL    HW180735   1.948   6.211   2.889  0.3499  1.0243 -0.9656
25649SOL    HW280736   1.848   6.112   2.833 -0.2265  0.2666  1.2854
25650SOL     OW80737   6.018   5.869   9.641  0.7334 -0.0952  0.3139
25650SOL    HW180738   6.089   5.891   9.701  0.7660 -0.0932  0.2745
25650SOL    HW280739   6.018   5.940   9.577  0.0734  0.4193  0.8662
25651SOL     OW80740   9.150   1.298   9.827  0.0019  0.3164  0.2884
25651SOL    HW180741   9.222   1.303   9.891 -0.7118 -1.0681  1.2385
25651SOL    HW280742   9.187   1.248   9.754 -0.0276 -0.5339  0.8433
25652SOL     OW80743   3.474   4.299   7.320 -0.9197  0.1906  0.1827
25652SOL    HW180744   3.508   4.220   7.277  1.3654  1.1445  0.1107
25652SOL    HW280745   3.395   4.321   7.270 -1.4447 -1.8416  0.0188
25653SOL     OW80746   0.734   6.628   4.972  0.0448 -0.2095 -0.0376
25653SOL    HW180747   0.682   6.688   4.919  1.2514  1.1182  0.2322
25653SOL    HW280748   0.784   6.576   4.909  0.5173  0.4808 -0.2369
25654SOL     OW80749   6.997   1.739  10.074 -0.4020 -0.2134 -0.0750
25654SOL    HW180750   6.995   1.783  10.159 -0.2088 -1.5767  0.6509
25654SOL    HW280751   6.905   1.730  10.050 -0.4596  0.0667  0.0326
25655SOL     OW80752   2.982   2.584   8.877  0.8549  0.3734  0.0136
25655SOL    HW180753   2.969   2.618   8.789  0.2898  0.8045  0.2576
25655SOL    HW280754   3.070   2.546   8.876  0.1492 -1.3703 -1.2995
25656SOL     OW80755   9.212  10.290   2.931 -0.1063 -0.5033  0.7820
25656SOL    HW180756   9.213  10.233   2.853  0.4518 -1.4246  1.4322
25656SOL    HW280757   9.262  10.240   2.996  1.4872  1.2894  1.0068
25657SOL     OW80758   8.507   3.890   7.772  0.5299  0.4600 -0.4597
25657SOL    HW180759   8.506   3.919   7.863  1.6560  0.3091 -0.3810
25657SOL    HW280760   8.596   3.909   7.742  0.4072 -0.2084 -1.2884
25658SOL     OW80761   4.425   8.489   0.884 -0.1983 -0.2955  0.9835
25658SOL    HW180762   4.365   8.535   0.943 -1.4833  0.8505 -1.0720
25658SOL    HW280763   4.369   8.429   0.836  0.2760  0.6127 -0.8057
25659SOL     OW80764   4.014   1.301   3.212  0.2689 -0.0392  0.5366
25659SOL    HW180765   4.010   1.375   3.153  1.0343  0.4703  1.0960
25659SOL    HW280766   3.923   1.282   3.235  0.0075  0.0909 -0.3744
25660SOL     OW80767   8.654   2.672   7.930 -0.2319 -0.2646 -0.1143
25660SOL    HW180768   8.675   2.695   8.021 -1.9699  0.2392  0.1982
25660SOL    HW280769   8.577   2.725   7.909 -0.0822 -0.6485 -1.7722
25661SOL     OW80770   0.883   2.422   1.475  0.0811  0.0233 -0.3390
25661SOL    HW180771   0.977   2.409   1.483  0.3557  2.2983  1.1828
25661SOL    HW280772   0.851   2.342   1.435  2.4685 -1.3846  0.3669
25662SOL     OW80773   7.249   3.949   3.526  0.0109  0.0655  0.0700
25662SOL    HW180774   7.184   3.962   3.596 -1.6645  0.8546 -1.5678
25662SOL    HW280775   7.260   4.035   3.488  1.7842 -0.1391  0.0578
25663SOL     OW80776   5.078   4.777   2.265 -0.3834  0.1993 -0.2872
25663SOL    HW180777   5.079   4.824   2.348 -1.3925  0.7575 -0.5695
25663SOL    HW280778   5.074   4.685   2.289  0.1222  0.3242  0.2840
25664SOL     OW80779   5.251   0.694   2.012 -0.2484  0.0143 -0.7476
25664SOL    HW180780   5.263   0.789   2.005  0.2150  0.0159 -0.0451
25664SOL    HW280781   5.285   0.660   1.930 -1.3045  0.5158 -1.4285
25665SOL     OW80782   4.578   1.670   5.160  0.2427  0.3321 -0.3045
25665SOL    HW180783   4.611   1.639   5.244  2.2447  1.3128 -0.6689
25665SOL    HW280784   4.489   1.635   5.154  0.9878 -1.9901  1.0106
25666SOL     OW80785   9.715   0.014   0.297 -0.2278  0.1879 -0.4732
25666SOL    HW180786   9.796   0.016   0.348  0.0920 -0.9550 -0.9109
25666SOL    HW280787   9.737   0.056   0.215 -0.3756  0.8177 -0.1965
25667SOL     OW80788   7.963   3.380   0.791  0.2599  0.1414  0.0878
25667SOL    HW180789   7.990   3.415   0.876  1.8033  1.8114 -1.0257
25667SOL    HW280790   7.908   3.448   0.753  0.0371 -0.3586 -0.4921
25668SOL     OW80791   7.183   3.186   1.211 -0.0053  0.2221  0.0974
25668SOL    HW180792   7.094   3.168   1.241 -0.4078  0.4387 -0.9412
25668SOL    HW280793   7.229   3.217   1.289 -0.6455 -0.5334  0.7956
25669SOL     OW80794   5.697   2.148   4.802  0.4007  0.4315 -0.5039
25669SOL    HW180795   5.726   2.225   4.851  1.2828  0.3725 -0.9194
25669SOL    HW280796   5.700   2.076   4.865  0.0857  0.6326 -0.2552
25670SOL     OW80797   0.795   7.120   2.004 -0.3368  0.5374  0.0006
25670SOL    HW180798   0.787   7.214   1.987 -0.3811  0.0532 -3.4213
25670SOL    HW280799   0.887   7.107   2.025  0.0007  1.1852 -1.0158
25671SOL     OW80800   6.283   4.614   5.273  0.0434 -0.5340 -0.2398
25671SOL    HW180801   6.239   4.556   5.335  0.6915 -0.5699  0.2025
25671SOL    HW280802   6.248   4.701   5.292  1.1422 -0.3386  1.0613
25672SOL     OW80803   0.453   9.327   9.585  0.2540 -0.1710  0.1486
25672SOL    HW180804   0.542   9.335   9.552  0.2066 -0.8471 -0.1533
25672SOL    HW280805   0.399   9.371   9.519  0.1536 -1.5615 -0.7269
25673SOL     OW80806   7.112   4.791   5.439 -0.2494  0.3400 -0.0117
25673SOL    HW180807   7.050   4.789   5.366  1.5970  0.4546 -1.6486
25673SOL    HW280808   7.068   4.845   5.505 -1.6496  0.8971 -1.3216
25674SOL     OW80809   6.980   3.357  10.140 -0.2981 -0.6213 -0.1643
25674SOL    HW180810   6.905   3.391  10.189 -0.2705 -1.2687  0.3465
25674SOL    HW280811   7.055   3.407  10.171 -0.0916 -1.7947  1.3317
25675SOL     OW80812   8.004   4.393   3.875  0.0581  0.3796  0.3338
25675SOL    HW180813   8.084   4.344   3.859 -0.9136 -1.5102  0.9681
25675SOL    HW280814   7.974   4.419   3.788  0.1929 -0.8467 -0.0967
25676SOL     OW80815   9.333   7.053   0.544  0.8479 -0.0460 -0.6656
25676SOL    HW180816   9.314   7.102   0.464  1.1806 -0.2462 -0.8677
25676SOL    HW280817   9.256   7.068   0.599 -0.3916 -1.6343 -1.8467
25677SOL     OW80818   3.337   1.967   3.823  0.5873 -0.0338  0.4178
25677SOL    HW180819   3.321   1.943   3.732 -0.2585  0.8546  0.3216
25677SOL    HW280820   3.407   1.908   3.851  0.1895 -0.9726 -0.5058
25678SOL     OW80821   5.447   4.645   8.235  0.1395 -0.1183 -0.4445
25678SOL    HW180822   5.486   4.662   8.149 -0.0951  0.1941 -0.4914
25678SOL    HW280823   5.518   4.661   8.297  0.2649 -0.1878 -0.5703
25679SOL     OW80824   3.460   8.996   3.884  0.4800  0.3785 -0.4194
25679SOL    HW180825   3.539   9.002   3.937  1.3278  0.6860 -1.6883
25679SOL    HW280826   3.475   8.920   3.827 -0.6808 -0.3280  0.1699
25680SOL     OW80827   7.349   0.494   2.981 -0.0015  0.0420 -0.1869
25680SOL    HW180828   7.299   0.569   2.949 -2.1019 -1.1149  0.2263
25680SOL    HW280829   7.286   0.423   2.984  2.0236 -1.9026 -1.0159
25681SOL     OW80830   6.651   6.577   1.252  0.3192 -0.7205  0.0790
25681SOL    HW180831   6.656   6.642   1.182 -1.7879 -1.1955 -0.5562
25681SOL    HW280832   6.727   6.520   1.237  1.9593  1.2400  0.3736
25682SOL     OW80833   6.224   7.552  10.325  0.3930  0.0485 -0.0535
25682SOL    HW180834   6.130   7.538  10.339  0.4916 -1.1318 -0.4948
25682SOL    HW280835   6.232   7.647  10.311 -0.9339  0.0030 -1.4012
25683SOL     OW80836   6.549   2.645   5.085 -0.1701 -0.7098  0.4320
25683SOL    HW180837   6.587   2.728   5.057 -1.9094 -0.3097 -0.8497
25683SOL    HW280838   6.534   2.656   5.179  0.1326  0.2022  0.3793
25684SOL     OW80839   2.459   6.338   7.238  0.0564 -0.5275  0.3250
25684SOL    HW180840   2.392   6.389   7.194 -0.0542 -0.6524  0.3475
25684SOL    HW280841   2.446   6.355   7.331  0.6548  0.1862  0.2835
25685SOL     OW80842   3.135   0.529   4.799 -0.1863 -0.0900  0.2583
25685SOL    HW180843   3.227   0.513   4.819 -0.2709 -2.0183 -0.6780
25685SOL    HW280844   3.102   0.578   4.874  1.2844 -0.5366  1.2293
25686SOL     OW80845   7.028   7.380   5.361  0.0569  0.2240 -0.1232
25686SOL    HW180846   7.062   7.456   5.408  1.9002 -0.2419 -0.6019
25686SOL    HW280847   7.088   7.369   5.287 -1.6613 -0.1829 -1.5204
25687SOL     OW80848   1.276   2.841   8.844 -0.1687  0.3112  0.0485
25687SOL    HW180849   1.366   2.852   8.877  0.0226  1.2907 -0.7456
25687SOL    HW280850   1.286   2.821   8.751 -0.7524 -0.6619  0.1849
25688SOL     OW80851   7.203   6.495   8.867  0.4193  0.0508 -0.0122
25688SOL    HW180852   7.217   6.400   8.867  0.2796  0.0195 -0.9777
25688SOL    HW280853   7.108   6.504   8.874  0.5685  0.2008  3.1162
25689SOL     OW80854   9.935   1.207   6.180  0.2940  0.5783 -0.2856
25689SOL    HW180855   9.866   1.252   6.132  0.3418  1.1142  0.1283
25689SOL    HW280856   9.957   1.267   6.251  1.7848  0.8152 -0.9018
25690SOL     OW80857   1.256   8.115   2.697  0.0706  0.0097  0.2191
25690SOL    HW180858   1.274   8.022   2.686 -0.7842  0.1153 -2.7807
25690SOL    HW280859   1.331   8.159   2.656 -1.2235  0.5573 -1.6468
25691SOL     OW80860   2.008   3.613   5.466 -0.7749  0.0660  0.4052
25691SOL    HW180861   1.977   3.584   5.551 -1.5109 -0.6477 -0.0945
25691SOL    HW280862   2.065   3.688   5.485 -3.5378  2.0765  1.2840
25692SOL     OW80863   4.187   3.362   6.870  0.2942 -0.2679 -0.7803
25692SOL    HW180864   4.130   3.311   6.812  2.2866 -1.4842 -1.7986
25692SOL    HW280865   4.131   3.430   6.906 -2.6584 -3.2391  0.8395
25693SOL     OW80866   3.963   1.344   7.766  0.3408  0.0915 -0.4830
25693SOL    HW180867   3.981   1.325   7.673 -1.0724 -1.6156 -0.4675
25693SOL    HW280868   4.048   1.336   7.809  1.1242  1.5038 -1.7026
25694SOL     OW80869   6.006   4.834   7.527 -0.0276  0.6119 -0.0122
25694SOL    HW180870   5.959   4.861   7.606 -0.2871  0.4483 -0.1100
25694SOL    HW280871   5.946   4.774   7.483  0.0140  0.8972 -0.4606
25695SOL     OW80872   6.830   7.162   7.236 -0.0967 -0.1068 -0.0146
25695SOL    HW180873   6.841   7.079   7.191  0.3125 -0.3592  0.5452
25695SOL    HW280874   6.904   7.167   7.296 -0.1940  0.5979  0.0567
25696SOL     OW80875   1.031   7.721   0.165 -0.5491  0.0425  0.0770
25696SOL    HW180876   1.088   7.784   0.209  1.4568 -1.0700 -0.7974
25696SOL    HW280877   1.055   7.637   0.202 -1.1544 -0.5426 -0.8077
25697SOL     OW80878  10.063   0.622   3.535 -0.1207 -0.2986  0.4211
25697SOL    HW180879  10.122   0.548   3.549  0.4859 -0.3265 -1.8897
25697SOL    HW280880  10.113   0.699   3.564 -0.0853 -0.5836  1.1517
25698SOL     OW80881   0.982   8.374   2.331 -0.5523  0.3962 -0.5099
25698SOL    HW180882   1.024   8.300   2.288  2.4218  0.2226  2.3094
25698SOL    HW280883   1.007   8.450   2.278 -1.1372 -0.2480 -1.7515
25699SOL     OW80884   0.555   5.293   8.878 -0.2686 -0.0643  0.5674
25699SOL    HW180885   0.510   5.319   8.797  0.3690 -2.1318 -0.5313
25699SOL    HW280886   0.485   5.287   8.943 -1.2685 -1.0468 -0.5503
25700SOL     OW80887   0.184   7.860   3.483 -0.0558  0.2137  0.1322
25700SOL    HW180888   0.272   7.877   3.449  0.4021 -0.6251  0.8395
25700SOL    HW280889   0.178   7.915   3.561  0.7930 -1.4695  1.4642
25701SOL     OW80890   8.490   8.894   4.395  0.1981 -0.6852 -0.1750
25701SOL    HW180891   8.502   8.817   4.451 -1.5305 -0.8848 -0.0271
25701SOL    HW280892   8.405   8.880   4.353  1.0950 -0.1728 -2.2995
25702SOL     OW80893   6.242   2.265   3.298 -0.5251 -0.0039 -0.2228
25702SOL    HW180894   6.254   2.320   3.375  0.8038 -0.6140  0.0309
25702SOL    HW280895   6.223   2.326   3.227 -0.3718  0.6725  0.3143
25703SOL     OW80896   4.331   1.569   6.769 -0.6315 -0.5582 -0.3320
25703SOL    HW180897   4.339   1.597   6.860  3.6374  0.8070 -0.9130
25703SOL    HW280898   4.359   1.477   6.770 -1.7957 -0.9336 -0.1839
25704SOL     OW80899   4.504   7.784   9.071 -0.1721  0.1032 -0.0417
25704SOL    HW180900   4.590   7.790   9.029 -0.5280  0.2675 -0.7648
25704SOL    HW280901   4.514   7.832   9.153  0.4301  0.1118 -0.1159
25705SOL     OW80902   4.444   9.972   0.009  0.5308  0.5031  0.2983
25705SOL    HW180903   4.478  10.043   0.063  1.5125 -0.0412  0.4362
25705SOL    HW280904   4.394   9.917   0.069 -1.2408  1.6709 -0.0352
25706SOL     OW80905   4.228   3.844   2.621  0.2947  0.0062  0.5851
25706SOL    HW180906   4.224   3.886   2.535  1.1242 -3.2719 -1.2449
25706SOL    HW280907   4.313   3.870   2.657  0.8701 -0.2229 -0.5682
25707SOL     OW80908   5.632   7.955   4.485  0.2281  0.2513  0.2235
25707SOL    HW180909   5.715   7.952   4.438  1.0882  2.3280  1.4354
25707SOL    HW280910   5.658   7.957   4.578 -1.1810  0.4358  0.6348
25708SOL     OW80911   5.793   8.270   1.204  0.0930  0.5424 -0.5002
25708SOL    HW180912   5.789   8.247   1.111  0.1432  1.9564 -0.8760
25708SOL    HW280913   5.838   8.197   1.246 -0.6445 -0.4895 -1.4522
25709SOL     OW80914   0.367   5.784   4.729  0.1178 -0.0476 -0.4322
25709SOL    HW180915   0.439   5.723   4.746  0.0664  0.2660  1.0456
25709SOL    HW280916   0.298   5.758   4.789 -0.4324  0.6016 -0.7682
25710SOL     OW80917   8.852   5.546   9.630 -0.3871 -0.4814 -0.0612
25710SOL    HW180918   8.764   5.514   9.649 -0.7900  0.3611 -0.4383
25710SOL    HW280919   8.840   5.639   9.612  0.7301 -0.1373  0.8766
25711SOL     OW80920   0.356   0.287   0.903 -0.2973 -0.1665 -0.5648
25711SOL    HW180921   0.271   0.282   0.860 -1.4846  0.2772  1.5850
25711SOL    HW280922   0.404   0.354   0.854 -1.6673  0.5063 -1.0266
25712SOL     OW80923   3.339   3.764   7.481 -0.0292  0.0170 -0.0908
25712SOL    HW180924   3.333   3.852   7.444 -0.0980  0.8014  1.6942
25712SOL    HW280925   3.354   3.778   7.574  0.5803 -1.8762  0.1387
25713SOL     OW80926   7.486   4.733   4.385 -0.5542 -0.0056  0.1319
25713SOL    HW180927   7.556   4.791   4.416 -1.5508  1.6046 -0.5172
25713SOL    HW280928   7.405   4.777   4.413 -1.3359 -1.5293  0.3438
25714SOL     OW80929   2.508   3.046   0.922 -0.3767 -0.6102  0.0005
25714SOL    HW180930   2.592   3.091   0.925 -0.4447 -0.5298  2.1941
25714SOL    HW280931   2.445   3.114   0.899 -0.0693 -0.3258 -0.0060
25715SOL     OW80932   0.018   5.352   5.388  0.1128  0.2717 -0.5817
25715SOL    HW180933   0.079   5.330   5.458  0.2824 -0.4343 -0.9438
25715SOL    HW280934  -0.063   5.378   5.433 -0.9385 -3.3658 -0.0920
25716SOL     OW80935   6.659   3.777   9.740 -0.1855  0.2711 -0.0210
25716SOL    HW180936   6.573   3.736   9.743 -0.6966  1.2862 -0.1955
25716SOL    HW280937   6.662   3.820   9.654  0.8660 -0.5175 -0.3946
25717SOL     OW80938   7.620   9.136   4.875  0.0993 -0.4833  0.2709
25717SOL    HW180939   7.538   9.169   4.838  0.4929 -0.6624 -0.7725
25717SOL    HW280940   7.689   9.184   4.830  0.6776 -2.4606 -1.0864
25718SOL     OW80941   4.739   8.355   7.654  0.5616 -0.1392  0.1821
25718SOL    HW180942   4.802   8.406   7.706  0.6275 -0.6131  0.5807
25718SOL    HW280943   4.792   8.313   7.586  0.3357  1.2555 -0.8995
25719SOL     OW80944   1.277   3.731   5.812 -0.1761 -0.4395  0.4968
25719SOL    HW180945   1.337   3.752   5.884 -0.8949  1.3151  0.6529
25719SOL    HW280946   1.192   3.720   5.855 -0.8245  1.6821 -0.1273
25720SOL     OW80947   2.431   4.758   3.515  0.0263 -0.4874 -0.1928
25720SOL    HW180948   2.396   4.700   3.583 -0.2256 -2.3034 -1.7812
25720SOL    HW280949   2.493   4.815   3.561  0.1407 -1.8840  1.4823
25721SOL     OW80950   2.391   1.285   6.137  0.4735 -0.1748 -0.7178
25721SOL    HW180951   2.382   1.217   6.070  0.4222 -0.2159 -0.6696
25721SOL    HW280952   2.316   1.344   6.121 -0.3513 -0.9485  0.1772
25722SOL     OW80953   6.962   3.667   0.584  0.0703 -0.1327 -0.4004
25722SOL    HW180954   6.946   3.572   0.582  0.8532 -0.2680 -0.4889
25722SOL    HW280955   6.876   3.705   0.604 -0.4333 -0.8158 -1.1735
25723SOL     OW80956   3.352   6.460   6.511  0.1618 -0.4190  0.3474
25723SOL    HW180957   3.262   6.446   6.483 -0.2985  1.1907  0.8926
25723SOL    HW280958   3.359   6.555   6.522  2.3219 -0.3551 -0.9878
25724SOL     OW80959   5.192   5.196   0.437  0.0006  0.0213 -0.1228
25724SOL    HW180960   5.240   5.175   0.517 -1.7640 -1.2343  0.6834
25724SOL    HW280961   5.184   5.112   0.391 -3.6283 -0.5019  1.1174
25725SOL     OW80962   7.715   5.061   4.324  0.2993 -0.0406 -0.1397
25725SOL    HW180963   7.685   5.048   4.414  0.9945 -1.1163 -0.0433
25725SOL    HW280964   7.810   5.057   4.330  0.3604  0.2234 -0.8703
25726SOL     OW80965   2.068   3.631   9.860  0.2810 -0.3936 -0.1579
25726SOL    HW180966   1.980   3.657   9.886  1.0396  0.4785  1.6872
25726SOL    HW280967   2.126   3.689   9.910  1.9221 -1.5534 -0.6466
25727SOL     OW80968   4.281   0.893   5.533  0.6789 -0.2615  0.0025
25727SOL    HW180969   4.204   0.880   5.589  0.0735 -0.6563 -0.8977
25727SOL    HW280970   4.304   0.805   5.504  0.8457 -0.0380 -0.5441
25728SOL     OW80971   7.881   5.189   2.368  0.6079 -0.2870 -0.1731
25728SOL    HW180972   7.890   5.189   2.463 -1.9567  0.8572  0.1663
25728SOL    HW280973   7.896   5.281   2.343 -1.0918 -0.0775 -0.5265
25729SOL     OW80974   5.625   3.612   1.713  0.7653  0.1494  0.6282
25729SOL    HW180975   5.553   3.665   1.680  0.8997  0.9052  1.5218
25729SOL    HW280976   5.611   3.607   1.807  1.1043 -0.8979  0.6397
25730SOL     OW80977   5.047   5.467   3.904 -0.1462  0.0886 -0.0356
25730SOL    HW180978   5.017   5.495   3.991 -1.2836 -0.0130 -0.3824
25730SOL    HW280979   5.013   5.534   3.845  1.3461  0.6277 -0.3344
25731SOL     OW80980   1.110   1.262   2.666 -0.2041  0.1486 -0.5014
25731SOL    HW180981   1.070   1.183   2.703  0.0692 -0.2820 -1.1113
25731SOL    HW280982   1.201   1.238   2.649 -0.4913  0.1056 -2.0881
25732SOL     OW80983   9.973   8.278   3.288 -0.1814  0.0997 -0.0863
25732SOL    HW180984   9.937   8.255   3.202 -3.8595  0.1951  1.2378
25732SOL    HW280985   9.969   8.374   3.291  1.2702  0.1912 -0.2483
25733SOL     OW80986   6.958   5.786   6.264 -0.3631  0.5542  0.2844
25733SOL    HW180987   6.890   5.833   6.312 -0.3168 -0.8302  1.8013
25733SOL    HW280988   6.910   5.724   6.209 -0.4430  2.5387 -2.0396
25734SOL     OW80989   8.853   8.245   5.279  0.2257  0.3502  0.1118
25734SOL    HW180990   8.901   8.168   5.251 -1.0946  0.3599 -2.3923
25734SOL    HW280991   8.918   8.298   5.325  2.3854 -0.0630 -2.2820
25735SOL     OW80992   8.393   3.958   9.799 -0.3515 -0.7121 -0.2733
25735SOL    HW180993   8.484   3.959   9.830 -0.5687 -1.0452  0.3877
25735SOL    HW280994   8.382   3.871   9.761 -0.3529 -0.6170 -0.4935
25736SOL     OW80995   1.591   0.790   0.052  0.4734  0.8360 -0.1496
25736SOL    HW180996   1.646   0.712   0.053 -1.7380 -0.8183 -1.2777
25736SOL    HW280997   1.581   0.812  -0.041 -3.2826 -0.8927 -0.3264
25737SOL     OW80998   3.265   8.892   0.913 -0.0979 -0.0675  0.9237
25737SOL    HW180999   3.231   8.811   0.874 -1.1343  0.7254  0.0956
25737SOL    HW281000   3.245   8.884   1.006  0.3193 -1.0004  0.9490
25738SOL     OW81001   5.047   4.127   5.702 -0.0768  0.2494 -0.8579
25738SOL    HW181002   5.072   4.036   5.685 -0.4156  0.2162 -1.1982
25738SOL    HW281003   4.994   4.122   5.781 -0.8169  0.0275 -1.3509
25739SOL     OW81004   7.513   4.464   8.799  0.1092 -0.4023  0.3386
25739SOL    HW181005   7.501   4.557   8.818  1.0644  0.0838 -1.2455
25739SOL    HW281006   7.505   4.420   8.884  1.5489  1.3242  1.4159
25740SOL     OW81007   6.346   0.333   7.762 -0.9437 -0.0853 -0.2642
25740SOL    HW181008   6.334   0.314   7.669 -4.0419  1.7808 -0.3773
25740SOL    HW281009   6.298   0.263   7.807  0.8808 -1.2136  0.0288
25741SOL     OW81010   3.754   1.582   1.940  0.7435 -0.2445  0.0913
25741SOL    HW181011   3.694   1.580   2.014  0.8832  0.6158  0.2306
25741SOL    HW281012   3.775   1.490   1.924  1.3414 -0.3973  1.6333
25742SOL     OW81013  10.121   0.377   7.809  0.0613 -0.3177  0.5021
25742SOL    HW181014  10.051   0.312   7.811 -0.5048  0.2662  0.0200
25742SOL    HW281015  10.132   0.404   7.900  0.5963 -1.3882  0.7733
25743SOL     OW81016   4.087   2.291  10.324 -0.1913  0.4163 -0.1043
25743SOL    HW181017   4.039   2.221  10.369 -0.7085  0.7237 -0.1670
25743SOL    HW281018   4.035   2.308  10.245 -1.0296  2.0625  0.7581
25744SOL     OW81019   0.157   3.985   2.653  0.0379 -0.1470 -0.1981
25744SOL    HW181020   0.143   4.077   2.676  1.2828  0.0092 -0.0255
25744SOL    HW281021   0.191   3.987   2.564 -2.0595 -0.5960 -1.0758
25745SOL     OW81022   2.637   4.088   3.420 -0.2711 -0.1896 -0.0496
25745SOL    HW181023   2.688   4.143   3.360 -0.5581 -0.8310 -0.8997
25745SOL    HW281024   2.548   4.092   3.387 -0.6996  0.4873  1.1177
25746SOL     OW81025   7.511   9.137   0.016  0.4663 -0.2997  0.2203
25746SOL    HW181026   7.543   9.215   0.060  0.6588  0.0416 -0.5119
25746SOL    HW281027   7.533   9.150  -0.076 -2.4900  0.3487 -0.4891
25747SOL     OW81028   3.011   8.774   1.367 -0.3261  0.4568 -0.1689
25747SOL    HW181029   2.960   8.751   1.444  1.1993 -0.5372  0.6085
25747SOL    HW281030   3.097   8.799   1.402 -0.3970  2.6303 -1.3747
25748SOL     OW81031   4.792   3.911   7.998 -0.2288  0.7907  0.6464
25748SOL    HW181032   4.750   3.934   8.081 -0.4958 -0.6738  0.9404
25748SOL    HW281033   4.817   3.819   8.008 -1.5658  0.1398 -1.4304
25749SOL     OW81034   3.233   7.464   2.751 -0.0814  0.0951 -0.3034
25749SOL    HW181035   3.324   7.435   2.747 -0.0009  0.3599 -0.3968
25749SOL    HW281036   3.238   7.559   2.753 -0.2602  0.1109  2.1006
25750SOL     OW81037   7.284   2.421   1.614  0.2906  0.1612  0.2489
25750SOL    HW181038   7.339   2.402   1.691  0.6065  0.2077  0.0354
25750SOL    HW281039   7.246   2.337   1.590  1.6058 -0.2053 -0.6327
25751SOL     OW81040   4.517   3.296   4.361  0.3089  0.2315 -0.1917
25751SOL    HW181041   4.445   3.331   4.308  1.4715 -1.5192 -3.1460
25751SOL    HW281042   4.500   3.202   4.365  2.5841 -0.2877 -1.3041
25752SOL     OW81043   9.374   4.985   5.041  0.5587 -0.2097  0.2702
25752SOL    HW181044   9.397   4.946   4.957  0.9188  1.2608 -0.3234
25752SOL    HW281045   9.402   5.076   5.035 -2.0217  0.7057  0.8944
25753SOL     OW81046   5.464   5.453   1.515 -1.0421  0.6770 -0.0249
25753SOL    HW181047   5.374   5.426   1.531 -0.9829  0.3968 -0.1585
25753SOL    HW281048   5.467   5.476   1.422 -0.6872 -0.5064 -0.3356
25754SOL     OW81049   8.584   4.826   9.909 -0.1643 -0.4219 -0.2104
25754SOL    HW181050   8.595   4.734   9.934 -1.2191 -0.4244  0.2807
25754SOL    HW281051   8.531   4.823   9.830 -0.7068 -0.2115  0.1442
25755SOL     OW81052   8.643   0.805   0.547  0.8023 -0.1376  0.0184
25755SOL    HW181053   8.717   0.744   0.548  1.1064  0.2199 -0.2348
25755SOL    HW281054   8.636   0.836   0.637  0.3036 -0.9425  0.2692
25756SOL     OW81055   4.590   9.771   2.547  0.6965 -0.0753 -0.8162
25756SOL    HW181056   4.530   9.735   2.481  0.0967  0.1544 -0.4072
25756SOL    HW281057   4.639   9.838   2.500 -0.0182  0.3726 -0.9365
25757SOL     OW81058   1.942   4.683   8.156 -0.4991  0.2567  0.0522
25757SOL    HW181059   1.934   4.717   8.246  0.0221  3.7084 -1.0739
25757SOL    HW281060   2.036   4.682   8.138 -0.5809 -0.7130 -0.4020
25758SOL     OW81061   2.051   4.352   4.082  0.5053 -0.0563  0.1596
25758SOL    HW181062   2.038   4.295   4.006 -2.1693 -1.7918  1.7390
25758SOL    HW281063   2.005   4.307   4.153  1.8422  2.0950  2.5424
25759SOL     OW81064   9.517   1.723   8.155 -0.4002  0.3773  0.0367
25759SOL    HW181065   9.596   1.730   8.101 -0.1228 -2.1125  0.0024
25759SOL    HW281066   9.543   1.757   8.241  1.5818 -2.6458  0.7806
25760SOL     OW81067   6.503   4.836   3.511 -0.4424  0.1878  0.5128
25760SOL    HW181068   6.486   4.753   3.557 -4.8908  0.1937 -0.6984
25760SOL    HW281069   6.512   4.900   3.581  0.7646 -0.8776  1.4093
25761SOL     OW81070   6.617   2.739   4.400  0.4887  0.2129 -0.0344
25761SOL    HW181071   6.584   2.656   4.365  0.4563  0.1690  0.1032
25761SOL    HW281072   6.654   2.716   4.485 -0.8314  0.6031  0.6591
25762SOL     OW81073   9.833   4.404   8.887  0.3548 -0.3931  0.3384
25762SOL    HW181074   9.870   4.411   8.975  2.2581  1.9727 -0.5422
25762SOL    HW281075   9.754   4.458   8.890  0.4253 -0.3022  0.5826
25763SOL     OW81076   7.451   9.180   3.943  0.0410  0.2230 -0.2406
25763SOL    HW181077   7.416   9.152   4.028  0.1551  0.0849 -0.2378
25763SOL    HW281078   7.434   9.106   3.884  1.9025 -0.6196  0.1856
25764SOL     OW81079   8.807   2.511   7.779  0.1393  0.1915  0.0760
25764SOL    HW181080   8.769   2.560   7.852  0.8566  1.7781 -0.5640
25764SOL    HW281081   8.879   2.462   7.819 -0.1883  0.1475  0.6292
25765SOL     OW81082   3.560   2.871   4.783 -0.1500  0.4521  0.3043
25765SOL    HW181083   3.536   2.803   4.845  1.0286 -0.8782 -0.6313
25765SOL    HW281084   3.623   2.925   4.829  1.1169 -0.8357  0.1395
25766SOL     OW81085   0.844  10.322   4.291 -0.0365 -0.8103 -0.0584
25766SOL    HW181086   0.761  10.311   4.338 -0.6899 -0.8953 -1.1893
25766SOL    HW281087   0.911  10.304   4.357 -0.9288 -2.2258  0.5120
25767SOL     OW81088   4.942   0.139   3.536 -0.4826 -0.0989  0.3741
25767SOL    HW181089   4.867   0.133   3.595 -1.8155 -1.7559 -1.3415
25767SOL    HW281090   4.916   0.203   3.470  0.5438  0.9372  0.9506
25768SOL     OW81091   0.718   7.188   8.546 -0.0528 -0.1318  0.7460
25768SOL    HW181092   0.699   7.095   8.532  0.5947 -0.6061  2.6773
25768SOL    HW281093   0.807   7.189   8.583  0.4487  1.3788 -0.3724
25769SOL     OW81094   4.210   9.167   9.902  0.0488  0.4037  0.4375
25769SOL    HW181095   4.283   9.227   9.915  0.2816  0.6057 -1.5726
25769SOL    HW281096   4.211   9.110   9.979  1.2633  1.4812  1.2397
25770SOL     OW81097   9.665   8.664   5.391 -0.5350  0.0889 -0.2140
25770SOL    HW181098   9.675   8.729   5.322 -0.0070  0.0017 -0.2218
25770SOL    HW281099   9.570   8.661   5.408 -0.7671 -0.4243 -1.4556
25771SOL     OW81100   6.798   0.324   8.926  0.1691  0.3529 -0.1523
25771SOL    HW181101   6.764   0.361   8.845  1.2083 -1.0805 -1.3111
25771SOL    HW281102   6.757   0.237   8.932 -0.6136  0.7903  1.3843
25772SOL     OW81103   1.267   6.700   3.005 -0.6344 -0.0184 -0.2308
25772SOL    HW181104   1.213   6.646   2.947  1.7210 -0.8482 -1.7803
25772SOL    HW281105   1.299   6.639   3.071  1.3694 -0.4653 -1.5162
25773SOL     OW81106  10.351   0.069   6.561 -0.0964 -0.1349  0.1731
25773SOL    HW181107  10.412   0.112   6.500 -2.0547  0.8318 -1.2280
25773SOL    HW281108  10.302   0.141   6.600 -1.8613 -0.9392 -0.4563
25774SOL     OW81109   5.731   3.798   7.104 -0.3280  0.5676 -0.4719
25774SOL    HW181110   5.697   3.878   7.143 -1.2636 -0.1355  0.1850
25774SOL    HW281111   5.682   3.727   7.146  0.5440 -0.3632 -0.9653
25775SOL     OW81112   1.719   8.826   6.178  0.1282 -0.1085 -0.5543
25775SOL    HW181113   1.721   8.847   6.085 -0.0817 -1.8164 -0.9650
25775SOL    HW281114   1.648   8.881   6.212 -0.7012 -0.4467 -1.6678
25776SOL     OW81115   2.039   0.147   3.333  0.1190 -0.1752 -0.3570
25776SOL    HW181116   2.016   0.110   3.249 -4.0635  0.2576  0.4158
25776SOL    HW281117   2.063   0.238   3.314 -0.7027 -0.1058 -1.1192
25777SOL     OW81118   7.088   3.606   8.628  0.3030 -0.0414 -0.1517
25777SOL    HW181119   7.134   3.547   8.687 -0.1111 -0.9539 -0.7109
25777SOL    HW281120   7.152   3.627   8.560  0.4254  0.0861  0.0034
25778SOL     OW81121   1.619   9.357   2.830  0.1920 -0.6854 -0.1555
25778SOL    HW181122   1.691   9.366   2.893 -0.4749  1.7657  0.3598
25778SOL    HW281123   1.659   9.376   2.745  0.0073  2.1055  0.2777
25779SOL     OW81124   9.850   6.655  10.176  0.3327  0.1753 -0.3445
25779SOL    HW181125   9.779   6.635  10.115 -0.5716 -1.1108  1.0503
25779SOL    HW281126   9.825   6.611  10.257  2.2795  0.4753  0.4804
25780SOL     OW81127   7.519   5.343   7.186  0.2317  0.5770 -0.1187
25780SOL    HW181128   7.445   5.286   7.207  0.9736 -0.4006 -0.1225
25780SOL    HW281129   7.538   5.325   7.094  0.0861  1.2997 -0.3026
25781SOL     OW81130   2.349   4.650   8.403  0.3359  0.6891 -0.5580
25781SOL    HW181131   2.362   4.555   8.396 -0.9415  0.5178 -0.7243
25781SOL    HW281132   2.314   4.676   8.318 -0.8697  1.0391  0.0217
25782SOL     OW81133   0.148   1.164   7.208 -0.4258 -0.2946 -0.3813
25782SOL    HW181134   0.238   1.196   7.212 -0.5523  0.3426 -1.9900
25782SOL    HW281135   0.095   1.239   7.236 -0.4785 -0.6813  0.6036
25783SOL     OW81136   5.474   2.925   9.873  0.3405 -0.2581 -0.9006
25783SOL    HW181137   5.530   3.003   9.878  0.9416 -0.6095 -1.9195
25783SOL    HW281138   5.446   2.910   9.963  0.9925  0.5771 -0.5428
25784SOL     OW81139   8.323   2.965   7.767 -0.2556 -0.3183  0.1554
25784SOL    HW181140   8.276   2.993   7.689 -1.6375  0.1720  1.1073
25784SOL    HW281141   8.409   3.007   7.761 -1.0128  1.2549 -0.1988
25785SOL     OW81142   6.103   3.923  10.036 -0.0133  0.2301  0.0434
25785SOL    HW181143   6.186   3.888  10.068 -0.2673  0.8694  1.5145
25785SOL    HW281144   6.050   3.846  10.018  0.0570 -0.1814  1.4796
25786SOL     OW81145   4.356   0.526   9.071 -0.5222 -0.2441 -0.5281
25786SOL    HW181146   4.414   0.459   9.107 -0.1608  1.1299  1.6107
25786SOL    HW281147   4.409   0.570   9.004  0.5835  0.3105  0.6648
25787SOL     OW81148   2.795   8.610   0.853 -0.2122  0.0479 -0.1568
25787SOL    HW181149   2.765   8.674   0.788  0.5209  0.8418  0.2650
25787SOL    HW281150   2.789   8.526   0.808 -0.2654  0.5180 -1.0655
25788SOL     OW81151  10.337   2.833   4.462 -0.0876  0.9021  1.1437
25788SOL    HW181152  10.320   2.752   4.511 -0.5710  1.7865  2.4891
25788SOL    HW281153  10.281   2.826   4.385  3.1791 -2.1103 -1.2811
25789SOL     OW81154   2.234   0.239   1.036  0.7230 -0.2748 -0.1125
25789SOL    HW181155   2.183   0.210   1.112  0.4113 -0.1441 -0.2658
25789SOL    HW281156   2.277   0.160   1.004  1.1153 -0.2673  0.3952
25790SOL     OW81157   1.794   6.859   3.340 -0.3126  0.6433 -0.1034
25790SOL    HW181158   1.805   6.929   3.404  1.0357 -0.2313  0.6696
25790SOL    HW281159   1.883   6.832   3.317 -0.7575 -1.4614  0.3861
25791SOL     OW81160   9.794   0.765   2.079  0.2517  0.1150 -0.1820
25791SOL    HW181161   9.721   0.806   2.126 -0.1428 -0.8787  0.0953
25791SOL    HW281162   9.829   0.701   2.140  1.1992  0.3979 -0.4151
25792SOL     OW81163   3.124   0.698   6.116 -0.5296  0.2483  0.0391
25792SOL    HW181164   3.089   0.748   6.189 -1.6984 -1.2158  0.5366
25792SOL    HW281165   3.084   0.737   6.039 -0.3984  0.8907  0.2858
25793SOL     OW81166   8.229   5.763   4.927  0.3350 -0.5637  0.1640
25793SOL    HW181167   8.179   5.765   5.008  0.0580 -0.4621 -0.0072
25793SOL    HW281168   8.199   5.840   4.878 -0.5686 -1.4060 -0.6603
25794SOL     OW81169   4.757   9.319   2.029 -0.1190 -0.1631  0.2634
25794SOL    HW181170   4.663   9.307   2.017  0.1772 -1.1964 -1.3520
25794SOL    HW281171   4.793   9.230   2.031  0.7300  0.1810  1.9676
25795SOL     OW81172   0.512   5.204   9.851  0.2987 -0.3632 -0.3305
25795SOL    HW181173   0.483   5.271   9.789  0.9960 -0.3521 -0.6504
25795SOL    HW281174   0.580   5.156   9.804  1.0067 -0.2005  0.5045
25796SOL     OW81175   8.128   3.602   2.382  0.1571 -0.1520  0.0708
25796SOL    HW181176   8.085   3.685   2.400  0.2546 -0.2963  0.9867
25796SOL    HW281177   8.218   3.626   2.359 -0.3100  0.1333 -1.6391
25797SOL     OW81178   2.472   0.138   0.373 -0.0403  0.2920 -0.7972
25797SOL    HW181179   2.541   0.115   0.311  0.7984  0.8535 -0.0864
25797SOL    HW281180   2.518   0.161   0.453 -1.1346 -2.9573  0.9774
25798SOL     OW81181  10.083   4.874  10.274 -0.2370  0.0615  0.4817
25798SOL    HW181182  10.059   4.952  10.223  0.1770 -0.5030 -0.5983
25798SOL    HW281183  10.178   4.878  10.281 -0.2873  0.1642  1.2982
25799SOL     OW81184   1.365   9.704   3.454 -0.0663  0.1795  0.2398
25799SOL    HW181185   1.457   9.690   3.474 -0.0041 -0.7441 -0.6041
25799SOL    HW281186   1.352   9.663   3.368 -1.3298 -0.0278  0.4987
25800SOL     OW81187   2.262   8.375   5.461  0.2943  0.0283  0.0859
25800SOL    HW181188   2.251   8.433   5.536  0.5198 -0.3382  0.4075
25800SOL    HW281189   2.278   8.434   5.387  2.4045  0.3212  0.7277
25801SOL     OW81190   0.404   6.739   0.684  0.3066 -0.1695  0.3863
25801SOL    HW181191   0.336   6.783   0.735 -0.3026  1.8419 -1.9480
25801SOL    HW281192   0.486   6.776   0.716 -0.1205  1.7315 -0.5626
25802SOL     OW81193  10.250   6.535   1.017 -0.2489  0.0074  0.4319
25802SOL    HW181194  10.255   6.619   1.063 -0.1949  0.1297  0.2004
25802SOL    HW281195  10.158   6.508   1.028 -0.7488  0.9842 -1.0569
25803SOL     OW81196   5.347   1.220   0.310  0.2986  0.3544  0.1390
25803SOL    HW181197   5.381   1.181   0.390  0.8519  2.3504  0.9292
25803SOL    HW281198   5.382   1.164   0.240  1.9770  0.0649  1.1383
25804SOL     OW81199   9.667   9.273   9.467  0.0919  0.8228  0.0971
25804SOL    HW181200   9.635   9.207   9.528 -0.7102  1.7454  0.7039
25804SOL    HW281201   9.665   9.230   9.381 -2.1089  0.5942  0.2170
25805SOL     OW81202   1.095   4.084   2.467  0.2818  0.4703 -0.7948
25805SOL    HW181203   1.027   4.055   2.528  2.1690 -0.7339  0.8514
25805SOL    HW281204   1.111   4.175   2.490  1.1530 -0.0369  0.7688
25806SOL     OW81205   9.186   7.274   4.418  0.5714  0.0416  0.1572
25806SOL    HW181206   9.258   7.321   4.459  0.0986  1.0552 -0.1322
25806SOL    HW281207   9.110   7.331   4.430  0.4454  0.5216 -2.2489
25807SOL     OW81208   8.566   0.620   9.825 -0.3893 -0.3030 -0.5689
25807SOL    HW181209   8.618   0.699   9.842 -0.7967  0.0053 -0.7510
25807SOL    HW281210   8.588   0.561   9.897  0.7616 -0.4606 -1.0184
25808SOL     OW81211   2.149   5.513   3.049 -0.5247 -0.4184 -0.4817
25808SOL    HW181212   2.107   5.543   2.968 -3.0589  2.7853  1.7403
25808SOL    HW281213   2.233   5.558   3.050 -0.3415 -0.7173 -1.4593
25809SOL     OW81214   0.108   5.021   0.355 -0.0889 -0.0550  0.0962
25809SOL    HW181215   0.166   4.951   0.326  1.8208  2.1288 -1.6682
25809SOL    HW281216   0.143   5.048   0.440  0.1986 -0.1322  0.0036
25810SOL     OW81217   7.499   4.251   7.797  0.5592  0.1058 -0.0623
25810SOL    HW181218   7.499   4.325   7.858  0.6569  1.0389 -1.1420
25810SOL    HW281219   7.406   4.238   7.775  0.6755  1.4918 -1.6432
25811SOL     OW81220   4.024   8.535   3.778  0.1015  0.2649 -0.2817
25811SOL    HW181221   4.027   8.612   3.834 -0.1287 -0.2991  0.5119
25811SOL    HW281222   3.983   8.566   3.697 -1.5637  0.6137  0.6550
25812SOL     OW81223   9.454   0.171   1.000  0.4244 -0.7897 -0.5808
25812SOL    HW181224   9.362   0.187   0.978  0.3563  0.4247  0.4833
25812SOL    HW281225   9.488   0.123   0.925 -0.9946 -0.9723 -1.1413
25813SOL     OW81226   4.529   0.101  10.029 -0.1464 -0.4749 -0.2695
25813SOL    HW181227   4.594   0.155   9.984  1.8541 -0.5545  2.2988
25813SOL    HW281228   4.529   0.018   9.982  0.7675 -0.0647 -1.0225
25814SOL     OW81229   7.182   4.442   6.772 -0.3243 -0.0340  0.7033
25814SOL    HW181230   7.099   4.397   6.789 -0.2146 -0.0124  1.3337
25814SOL    HW281231   7.186   4.510   6.840 -0.3234  0.6995 -0.0196
25815SOL     OW81232   8.167   7.398   3.614 -0.1816  0.6394  0.2526
25815SOL    HW181233   8.115   7.443   3.548 -1.5185  0.7713  1.3588
25815SOL    HW281234   8.104   7.343   3.662  0.5631  1.1936  1.9696
25816SOL     OW81235   0.225   8.237   2.217 -0.5739 -0.4761  0.7016
25816SOL    HW181236   0.259   8.325   2.231 -0.6910 -0.6158  1.9410
25816SOL    HW281237   0.303   8.181   2.213 -0.4163 -0.2083 -1.2706
25817SOL     OW81238   3.212   3.370   3.919  0.5471  0.1582 -0.1070
25817SOL    HW181239   3.122   3.371   3.885 -0.5919  3.4539  2.4036
25817SOL    HW281240   3.267   3.386   3.842 -1.1938  0.0802 -1.4304
25818SOL     OW81241   2.392   9.394   0.052  0.1097  0.2960 -0.7775
25818SOL    HW181242   2.296   9.396   0.053  0.1046  1.9952  0.9907
25818SOL    HW281243   2.415   9.404  -0.040 -1.4329  0.5825 -1.1612
25819SOL     OW81244   2.147   1.865   8.133  0.5021 -0.5472  0.0556
25819SOL    HW181245   2.190   1.871   8.048 -1.8414  0.9101 -1.1232
25819SOL    HW281246   2.112   1.775   8.136 -0.2116 -0.3180 -0.9635
25820SOL     OW81247   4.025   0.773   0.332 -0.1231  0.3772 -0.5410
25820SOL    HW181248   3.947   0.828   0.343  0.4235  2.2645 -4.2899
25820SOL    HW281249   3.996   0.700   0.278  0.2750 -0.1740 -0.0274
25821SOL     OW81250   3.642   8.430   4.514  0.2053 -0.0280 -0.0876
25821SOL    HW181251   3.735   8.435   4.490  0.2194 -0.7861 -0.2230
25821SOL    HW281252   3.621   8.336   4.508  0.0926 -0.2308  2.4158
25822SOL     OW81253   5.029   1.752   2.518 -0.3496  0.1115  0.4214
25822SOL    HW181254   5.091   1.679   2.516  0.8968  1.1345 -1.5590
25822SOL    HW281255   4.975   1.740   2.439 -1.8475 -0.0423  1.4314
25823SOL     OW81256  10.127   3.137   9.837  0.1840 -0.6451 -0.1243
25823SOL    HW181257  10.117   3.166   9.927  0.4079 -1.1132  0.0534
25823SOL    HW281258  10.111   3.215   9.784 -1.8043 -0.7653  0.2346
25824SOL     OW81259   3.927   5.381   8.671  0.2337  0.4615 -0.2752
25824SOL    HW181260   3.873   5.346   8.742  0.4039  1.0135  0.1377
25824SOL    HW281261   4.007   5.409   8.715 -0.4904  2.8031 -0.3069
25825SOL     OW81262   7.648   7.414   0.428 -0.5995  0.1741  0.1846
25825SOL    HW181263   7.562   7.403   0.387 -1.0048 -0.9414  1.2714
25825SOL    HW281264   7.660   7.509   0.432 -1.9680  0.3675  0.3659
25826SOL     OW81265   7.227   8.817   9.757 -0.6489  0.7584 -0.2045
25826SOL    HW181266   7.320   8.799   9.743 -0.6406 -1.1920  1.7161
25826SOL    HW281267   7.181   8.755   9.700 -0.7384  0.6424 -0.0082
25827SOL     OW81268   2.121   5.583   5.904  0.3838  0.3896 -0.1870
25827SOL    HW181269   2.150   5.565   5.814 -1.8109  0.2427 -0.9166
25827SOL    HW281270   2.104   5.497   5.942  2.4123  0.3805  0.8201
25828SOL     OW81271   2.001   5.110   1.806 -0.2136 -0.1074  0.2357
25828SOL    HW181272   2.091   5.128   1.835 -0.7683  2.6944  0.5099
25828SOL    HW281273   2.005   5.119   1.711 -0.7545  3.7796  0.4113
25829SOL     OW81274   9.237   2.746   7.222  0.2042  0.0385  0.1555
25829SOL    HW181275   9.199   2.711   7.142  0.6864 -0.8049  0.2829
25829SOL    HW281276   9.327   2.768   7.198  0.0473  0.7440  0.2043
25830SOL     OW81277   2.822   5.400   9.183 -0.2654  0.6995 -0.3129
25830SOL    HW181278   2.897   5.390   9.241 -0.3218  1.9749  0.0118
25830SOL    HW281279   2.860   5.413   9.096 -0.1822 -1.2527 -0.6162
25831SOL     OW81280   2.872   3.471   3.172 -0.0488 -0.8018 -0.0964
25831SOL    HW181281   2.782   3.504   3.165  0.1359 -0.3934 -0.6198
25831SOL    HW281282   2.864   3.378   3.153 -0.0132 -0.3040 -2.9501
25832SOL     OW81283   3.887   8.508   4.417  0.3294  0.1944  0.0191
25832SOL    HW181284   3.946   8.462   4.358 -2.6317 -0.0568 -3.0925
25832SOL    HW281285   3.891   8.600   4.388 -1.9775 -0.1137 -1.5192
25833SOL     OW81286   8.124   4.119   1.401 -0.3863  0.2095  0.2891
25833SOL    HW181287   8.154   4.208   1.416  1.9105 -0.3828 -0.2861
25833SOL    HW281288   8.174   4.090   1.324  1.3303 -2.5360  2.2474
25834SOL     OW81289   9.555   2.453   6.815 -0.4366 -0.2417  0.2010
25834SOL    HW181290   9.627   2.511   6.792 -0.1256 -0.6544  0.1183
25834SOL    HW281291   9.554   2.386   6.746 -2.0023  0.7109 -0.7556
25835SOL     OW81292   2.512   6.923   6.843  0.1668 -0.0838 -0.1017
25835SOL    HW181293   2.570   6.875   6.903  0.6398 -1.2368 -1.4400
25835SOL    HW281294   2.456   6.856   6.805  0.2725  0.5245 -1.3823
25836SOL     OW81295   3.773   6.502   7.367 -0.1415 -0.3027 -0.0662
25836SOL    HW181296   3.779   6.561   7.442  0.9085  0.2694 -0.5751
25836SOL    HW281297   3.695   6.532   7.319 -0.5785 -0.4085  0.5661
25837SOL     OW81298   3.531   4.566  10.187 -0.8532 -0.4981 -0.2270
25837SOL    HW181299   3.486   4.588  10.105  1.0290 -0.1881 -1.2577
25837SOL    HW281300   3.612   4.523  10.158  0.0226 -0.0722  1.4652
25838SOL     OW81301   1.417   0.554   7.014  0.8513 -0.4228  0.7142
25838SOL    HW181302   1.409   0.488   6.945 -1.3227 -0.3552  0.8444
25838SOL    HW281303   1.389   0.509   7.093  2.0859 -0.1151  1.3577
25839SOL     OW81304   7.425   3.256   2.425  0.5564  0.5844  0.1680
25839SOL    HW181305   7.420   3.309   2.505 -1.5411  0.0652  0.4344
25839SOL    HW281306   7.380   3.174   2.448  0.3618  0.2253 -1.3841
25840SOL     OW81307   1.918   7.574   2.192  0.6417  0.9484 -0.1403
25840SOL    HW181308   1.987   7.508   2.190  0.7319  1.0318  0.1681
25840SOL    HW281309   1.839   7.526   2.217  0.6579  0.9107 -0.1635
25841SOL     OW81310   0.869   3.588   0.455  0.5551 -0.4256 -0.2131
25841SOL    HW181311   0.881   3.652   0.525  1.1997 -2.1954  1.3585
25841SOL    HW281312   0.887   3.637   0.375 -1.6053  2.0224  0.6691
25842SOL     OW81313   4.370   0.316   7.377 -0.3713 -0.2396 -0.1734
25842SOL    HW181314   4.305   0.257   7.415 -0.8216 -1.6598 -2.8816
25842SOL    HW281315   4.388   0.279   7.290  1.1674  2.2894 -1.0466
25843SOL     OW81316   2.771   3.827   4.935 -0.6325  0.2067  0.2099
25843SOL    HW181317   2.693   3.878   4.956 -0.3121 -0.0840  2.3994
25843SOL    HW281318   2.752   3.740   4.971 -0.2860 -0.6117 -1.4939
25844SOL     OW81319   1.923   5.633   0.871  0.5750 -0.4026 -0.0404
25844SOL    HW181320   1.942   5.555   0.819 -0.0907  0.1359 -1.1313
25844SOL    HW281321   1.938   5.706   0.812  1.7623  0.3626  1.1398
25845SOL     OW81322   9.390   4.270   3.900  0.1979  0.3767 -0.5676
25845SOL    HW181323   9.311   4.216   3.895  0.3073  0.0523  0.8367
25845SOL    HW281324   9.442   4.230   3.970  1.0080  1.3700 -0.5791
25846SOL     OW81325  10.295   0.877   1.657  0.0580 -0.3113  0.2236
25846SOL    HW181326  10.384   0.912   1.663 -0.1893  0.5473 -0.8228
25846SOL    HW281327  10.243   0.936   1.710  0.2022 -1.2168  1.4075
25847SOL     OW81328   6.147   0.527   7.823  0.3836 -0.0660  0.3492
25847SOL    HW181329   6.206   0.452   7.813  0.8689  0.1391  1.5282
25847SOL    HW281330   6.186   0.595   7.769 -0.3044 -0.7742 -1.0949
25848SOL     OW81331   4.801   7.339   1.651 -0.6020  0.9286  0.0757
25848SOL    HW181332   4.891   7.351   1.682 -0.6940 -1.5383  1.5877
25848SOL    HW281333   4.746   7.374   1.721 -0.8055 -0.0384  0.4085
25849SOL     OW81334   0.067   4.040   9.220 -0.2126 -0.0912  0.8011
25849SOL    HW181335   0.063   3.973   9.288 -0.6433 -0.9389 -0.0415
25849SOL    HW281336   0.060   3.992   9.138 -1.8263  1.0904  0.1918
25850SOL     OW81337   9.612  10.358   0.813  0.2277 -0.0003 -0.6352
25850SOL    HW181338   9.638  10.308   0.735  1.0086 -0.0818 -0.3327
25850SOL    HW281339   9.693  10.368   0.863  0.5612  3.1923 -1.5917
25851SOL     OW81340   2.264   0.127   0.598  0.0718  0.1178  0.0664
25851SOL    HW181341   2.292   0.151   0.510  2.2019 -1.5514  0.2092
25851SOL    HW281342   2.214   0.047   0.586 -0.2942  0.3096  0.3052
25852SOL     OW81343   0.357   6.851   7.433  0.4157 -0.6274 -0.5938
25852SOL    HW181344   0.283   6.790   7.435  0.3503 -0.6109 -1.7083
25852SOL    HW281345   0.384   6.859   7.524 -2.0019  0.6592  0.0914
25853SOL     OW81346   4.957   9.475   8.493 -0.6826 -0.1001 -0.3534
25853SOL    HW181347   4.957   9.559   8.539 -0.3126  0.0753 -0.6745
25853SOL    HW281348   4.964   9.498   8.400  1.5321 -0.5452 -0.3357
25854SOL     OW81349   3.228   8.351   3.657  0.5578 -0.3369  0.3060
25854SOL    HW181350   3.295   8.286   3.677  0.4493 -0.9367 -1.2108
25854SOL    HW281351   3.154   8.328   3.714  1.1375 -0.4807  1.0121
25855SOL     OW81352   3.694   6.238   8.247  0.1189 -0.4716  0.2986
25855SOL    HW181353   3.771   6.275   8.291 -0.1271 -1.1899  1.3699
25855SOL    HW281354   3.700   6.144   8.263 -1.4246 -0.4521  1.1457
25856SOL     OW81355   0.991   6.365   1.393  0.0876  0.2069 -0.2406
25856SOL    HW181356   0.975   6.428   1.463  0.5316  0.7377 -0.6070
25856SOL    HW281357   1.050   6.411   1.332 -2.5245  0.8622 -2.4815
25857SOL     OW81358   0.299   7.609   6.185  0.6056  0.0735  0.3114
25857SOL    HW181359   0.220   7.639   6.231 -0.3362 -0.2881 -1.0156
25857SOL    HW281360   0.339   7.690   6.152 -0.2968  0.1356 -0.6861
25858SOL     OW81361   6.407   3.211   8.952  0.4166  0.3891 -0.0798
25858SOL    HW181362   6.497   3.197   8.922 -0.1931  1.6052 -2.7220
25858SOL    HW281363   6.353   3.167   8.887 -0.9690  1.1440  0.5222
25859SOL     OW81364   0.372   3.863   8.995  0.3992  0.2590 -1.0651
25859SOL    HW181365   0.326   3.898   9.071  1.2322 -0.8258 -0.0110
25859SOL    HW281366   0.335   3.776   8.982  1.8879 -0.5298 -0.3578
25860SOL     OW81367   5.330   4.258   8.269  0.4261 -0.3611 -0.1169
25860SOL    HW181368   5.408   4.276   8.320  0.8972 -1.0877 -0.5560
25860SOL    HW281369   5.275   4.335   8.281  2.7070  1.9224 -2.6695
25861SOL     OW81370   2.390   9.042   2.465  0.1124 -0.2125 -0.8338
25861SOL    HW181371   2.484   9.056   2.451  0.1632 -0.8509 -1.1699
25861SOL    HW281372   2.349   9.081   2.388  0.2442 -1.7426 -1.7012
25862SOL     OW81373   6.396   7.510   2.160  0.1675 -0.3372  0.7660
25862SOL    HW181374   6.481   7.526   2.200 -0.3975 -0.3850  2.0136
25862SOL    HW281375   6.411   7.437   2.099  0.9780 -0.4436  1.0896
25863SOL     OW81376   5.768   3.279   2.829  0.6285 -0.1840 -0.4098
25863SOL    HW181377   5.697   3.275   2.764  0.2117  1.6371 -0.1322
25863SOL    HW281378   5.731   3.327   2.902  3.0583  4.0957 -1.6380
25864SOL     OW81379   7.278   7.368   0.683 -0.5273 -0.0185 -0.2893
25864SOL    HW181380   7.345   7.436   0.696 -0.7582  0.0093  0.8633
25864SOL    HW281381   7.198   7.417   0.665 -0.9660  0.0902  1.7959
25865SOL     OW81382   3.360   8.785   5.798  0.6215 -0.0898 -0.1350
25865SOL    HW181383   3.439   8.838   5.785 -0.1679  1.6211  1.5305
25865SOL    HW281384   3.288   8.848   5.797 -0.6297 -1.4635 -0.4893
25866SOL     OW81385   1.157   3.187   5.355 -0.2682  0.0193  0.5312
25866SOL    HW181386   1.251   3.177   5.338 -0.5481 -2.4279  0.1318
25866SOL    HW281387   1.147   3.168   5.448 -0.7223 -3.6128 -0.1098
25867SOL     OW81388   7.062   2.008  10.264  0.2300  0.0831  0.3730
25867SOL    HW181389   7.154   1.989  10.286  0.2135  0.5590  0.8573
25867SOL    HW281390   7.012   1.943  10.314  0.2138  0.9161  1.4648
25868SOL     OW81391   2.180   3.705   3.999  0.6813  0.4007 -0.4020
25868SOL    HW181392   2.245   3.709   3.928  0.9310  0.7604 -0.1606
25868SOL    HW281393   2.217   3.761   4.068 -0.0683  0.9285 -0.4153
25869SOL     OW81394   8.310  10.253   7.668 -0.6054  0.2255 -0.0381
25869SOL    HW181395   8.300  10.163   7.637 -0.3095  0.4787 -0.8835
25869SOL    HW281396   8.222  10.290   7.664 -0.9121 -0.2992  1.2252
25870SOL     OW81397   0.584   7.186   5.698 -0.2321  0.2304 -0.4436
25870SOL    HW181398   0.551   7.191   5.609 -1.8489 -0.4525  0.0835
25870SOL    HW281399   0.644   7.111   5.697  0.4302  0.7515 -1.1322
25871SOL     OW81400   0.081   2.504   8.074 -0.3956  0.4534  0.0780
25871SOL    HW181401   0.051   2.416   8.053  1.1341  0.1941 -1.2211
25871SOL    HW281402   0.068   2.554   7.993  2.6733  0.2756 -0.6255
25872SOL     OW81403   1.443   2.598   3.837 -0.4226  0.4633  0.0226
25872SOL    HW181404   1.367   2.634   3.883 -1.0426 -0.6216 -0.1102
25872SOL    HW281405   1.481   2.536   3.900  0.5330  1.2084  0.1959
25873SOL     OW81406   4.641   1.822   9.905  0.1231 -0.1337  0.2399
25873SOL    HW181407   4.638   1.903   9.955  0.6696 -0.3231  0.5936
25873SOL    HW281408   4.629   1.753   9.970  0.2230 -0.3589  0.0241
25874SOL     OW81409   2.495   1.008   3.552 -0.4857 -0.5080  0.3087
25874SOL    HW181410   2.517   1.037   3.464 -0.5872  1.3493  0.8559
25874SOL    HW281411   2.469   1.088   3.598 -1.0354 -1.5281  1.8450
25875SOL     OW81412   1.204   7.970   8.470  0.1870  0.4166  0.0188
25875SOL    HW181413   1.257   7.933   8.541  1.9078  0.7005 -1.0385
25875SOL    HW281414   1.252   8.048   8.443 -0.4271  0.3203 -1.4284
25876SOL     OW81415   9.575   5.219   5.998  0.1917  0.2225 -0.1197
25876SOL    HW181416   9.508   5.214   6.066 -2.2436  0.7723 -2.3099
25876SOL    HW281417   9.601   5.128   5.983 -1.2772 -0.1984 -0.3061
25877SOL     OW81418   9.534   2.518   4.247  0.4083 -0.0289  0.3383
25877SOL    HW181419   9.601   2.554   4.188  0.3068 -0.1748  0.1326
25877SOL    HW281420   9.453   2.523   4.197  0.1239  0.8419  0.8630
25878SOL     OW81421   9.008   7.795   5.223  0.1333 -0.6267  0.2423
25878SOL    HW181422   8.942   7.734   5.191  0.1818 -0.6956  0.2736
25878SOL    HW281423   9.091   7.749   5.212  0.2264 -0.3391 -0.2806
25879SOL     OW81424   0.294   3.682   0.110 -0.0211 -0.0917 -0.0211
25879SOL    HW181425   0.304   3.616   0.178 -0.1788 -0.3595 -0.2571
25879SOL    HW281426   0.256   3.635   0.036 -1.0775  0.4563  0.1524
25880SOL     OW81427   7.665   5.113   8.222 -0.0075 -0.4589 -0.2373
25880SOL    HW181428   7.603   5.186   8.232  0.2238 -0.0996 -1.2674
25880SOL    HW281429   7.694   5.119   8.131  1.7390 -0.4655  0.2775
25881SOL     OW81430   8.142   9.644   7.355  0.1315 -0.1921 -0.1951
25881SOL    HW181431   8.076   9.606   7.297  1.0912 -0.8794 -0.8768
25881SOL    HW281432   8.138   9.738   7.338 -0.8302 -0.1970 -0.0437
25882SOL     OW81433   9.091   0.405   1.678 -0.2174  0.4794  0.0205
25882SOL    HW181434   9.121   0.496   1.673 -0.0044  0.3666 -0.8058
25882SOL    HW281435   9.080   0.377   1.587  0.9797 -0.7389  0.2207
25883SOL     OW81436   1.213   0.666   8.011 -0.2907 -0.1641 -0.5332
25883SOL    HW181437   1.210   0.589   8.068  0.0917 -0.5587 -1.0426
25883SOL    HW281438   1.303   0.698   8.018 -0.2676 -0.1604 -0.8441
25884SOL     OW81439   4.317   1.490   9.327 -0.0934  0.2605 -0.0991
25884SOL    HW181440   4.261   1.413   9.332 -0.3582  0.5247  1.4511
25884SOL    HW281441   4.391   1.469   9.384  0.4724  0.6560 -0.6761
25885SOL     OW81442   3.424   7.282   8.068 -0.3365 -0.4354 -0.0877
25885SOL    HW181443   3.362   7.272   7.996  0.6172  0.1813 -1.0234
25885SOL    HW281444   3.383   7.237   8.142 -1.4259 -0.9021 -0.9555
25886SOL     OW81445   8.144   2.290   9.107 -0.1300 -0.2767 -0.3650
25886SOL    HW181446   8.126   2.356   9.174  0.9705 -1.3174  1.0126
25886SOL    HW281447   8.210   2.331   9.050  0.0716  0.0541  0.1029
25887SOL     OW81448   8.687   4.642   1.540  0.2708  0.5132 -0.1102
25887SOL    HW181449   8.781   4.657   1.535  0.2837  0.1824 -1.3430
25887SOL    HW281450   8.649   4.717   1.493 -0.0157  0.1305 -0.4997
25888SOL     OW81451   7.045   0.387   0.890  0.6482 -0.1670 -0.2290
25888SOL    HW181452   7.017   0.449   0.957 -0.1551 -0.8277  0.0702
25888SOL    HW281453   7.022   0.428   0.807 -3.6868 -1.6544 -0.0174
25889SOL     OW81454   9.198   1.837   6.426  0.5845 -0.1739 -0.0485
25889SOL    HW181455   9.186   1.852   6.520  1.1927  0.1541 -0.0236
25889SOL    HW281456   9.182   1.743   6.415  1.3991 -0.3923  0.5300
25890SOL     OW81457   6.162   8.843   8.298 -0.5042  0.2072 -0.7107
25890SOL    HW181458   6.067   8.829   8.296 -0.5997  0.5548  0.5217
25890SOL    HW281459   6.198   8.761   8.330 -0.3601 -0.0170 -1.4386
25891SOL     OW81460   4.838   0.052   5.021  0.0160  0.2628 -0.2044
25891SOL    HW181461   4.834  -0.027   4.966  2.0251 -1.5328  2.0061
25891SOL    HW281462   4.770   0.038   5.087  0.6213  0.1744  0.4087
25892SOL     OW81463   7.049   6.227   6.164 -0.1708  0.0163  0.0078
25892SOL    HW181464   7.031   6.267   6.079 -2.4500 -0.3869  0.2361
25892SOL    HW281465   7.013   6.289   6.228 -0.1494 -0.5532  0.5810
25893SOL     OW81466   0.010   7.813   4.762  0.3776  0.1030  0.0390
25893SOL    HW181467   0.076   7.746   4.746  1.0153  1.0453 -1.5143
25893SOL    HW281468  -0.003   7.811   4.857  1.4853 -1.1595  0.2034
25894SOL     OW81469   1.497   5.487   6.100 -0.2778 -0.3550  0.8431
25894SOL    HW181470   1.509   5.430   6.176  2.3415  0.9183  1.5096
25894SOL    HW281471   1.509   5.430   6.024  1.2077 -0.9207  1.4721
25895SOL     OW81472   2.396   7.810   3.952 -0.1918  0.4519 -0.3078
25895SOL    HW181473   2.480   7.827   3.909 -0.0906  1.8645  0.4001
25895SOL    HW281474   2.411   7.733   4.005  1.1617  1.5911  1.0525
25896SOL     OW81475   6.328   1.782   9.959 -0.0446  0.0314 -0.2540
25896SOL    HW181476   6.234   1.777   9.946 -0.2052 -1.4298  1.1657
25896SOL    HW281477   6.342   1.862  10.009 -0.4265  0.6236 -1.0690
25897SOL     OW81478  10.106   5.068   5.362  0.0101 -0.1138 -0.2678
25897SOL    HW181479  10.030   5.010   5.355  0.6109 -0.7015 -2.6949
25897SOL    HW281480  10.181   5.011   5.348  0.7713  0.8394 -0.1351
25898SOL     OW81481   6.244   1.783   2.149 -0.8623 -0.2801  0.0194
25898SOL    HW181482   6.232   1.830   2.232 -1.8032  0.4766 -0.5296
25898SOL    HW281483   6.232   1.691   2.172 -0.1753 -0.1729  0.8873
25899SOL     OW81484  10.069   8.938   0.566  0.3578  0.4966 -0.4282
25899SOL    HW181485  10.155   8.939   0.609 -0.0577 -0.0768  0.4574
25899SOL    HW281486  10.007   8.919   0.637 -0.2243 -1.9417 -1.4810
25900SOL     OW81487   2.251   7.869   9.473  0.7949 -0.1015  0.1429
25900SOL    HW181488   2.297   7.825   9.545 -1.5520 -0.6033  1.4630
25900SOL    HW281489   2.193   7.932   9.517 -0.1262  0.1363 -1.3472
25901SOL     OW81490   4.674   2.938   5.459 -0.2771  0.0751 -0.0081
25901SOL    HW181491   4.601   2.878   5.444 -0.7027 -0.2420  2.7041
25901SOL    HW281492   4.750   2.892   5.424 -0.6432 -1.9871  1.6862
25902SOL     OW81493   8.731   2.044   0.004 -0.3390  0.4992  0.2513
25902SOL    HW181494   8.773   2.031  -0.081  0.4511 -2.0890  0.9654
25902SOL    HW281495   8.662   2.109  -0.012  1.2641  1.8084 -1.8327
25903SOL     OW81496   0.564   1.281   9.387  0.0025 -0.3732 -0.2786
25903SOL    HW181497   0.565   1.243   9.299  0.4525  1.5851 -1.1688
25903SOL    HW281498   0.504   1.225   9.436 -3.0915  0.4903 -2.7600
25904SOL     OW81499   3.885   7.523   5.561 -0.5282 -0.3855 -0.7096
25904SOL    HW181500   3.847   7.542   5.647  1.1527  1.3438 -0.2681
25904SOL    HW281501   3.849   7.438   5.536 -0.5371 -1.2552  2.0079
25905SOL     OW81502   3.681   8.460   9.006  0.5428 -1.0325 -0.5426
25905SOL    HW181503   3.616   8.408   8.958 -1.4584  1.3214 -0.6009
25905SOL    HW281504   3.646   8.465   9.095  0.1045  0.9848 -0.7805
25906SOL     OW81505   5.252   8.135   1.069  0.2173  0.3711 -0.5235
25906SOL    HW181506   5.283   8.052   1.104  0.3595  1.4850  2.2452
25906SOL    HW281507   5.332   8.183   1.046  0.1046 -0.7194 -3.4991
25907SOL     OW81508   2.682   4.340   8.788 -0.2950 -0.3430 -0.3632
25907SOL    HW181509   2.628   4.418   8.780  0.6083  0.4512  0.7953
25907SOL    HW281510   2.769   4.374   8.810 -0.1077 -1.6810  1.1867
25908SOL     OW81511   8.904   7.425  10.057 -0.3263  0.5250  0.0756
25908SOL    HW181512   8.995   7.399  10.073 -0.0096  0.0345 -2.1828
25908SOL    HW281513   8.852   7.364  10.109  0.6203  0.7197  1.2856
25909SOL     OW81514   6.065   1.375   1.258 -0.2008 -0.2334  0.6820
25909SOL    HW181515   6.072   1.460   1.301  0.3685  0.2602 -0.3455
25909SOL    HW281516   6.147   1.330   1.281 -0.2876 -0.3110  0.8362
25910SOL     OW81517   5.148   9.813  10.129  0.5394  0.1878  0.6269
25910SOL    HW181518   5.088   9.766  10.072  1.0283  1.1115 -0.6807
25910SOL    HW281519   5.160   9.754  10.204 -0.6050 -0.7658  0.0985
25911SOL     OW81520   7.236   1.157   4.960  0.2357 -0.4712 -0.0255
25911SOL    HW181521   7.166   1.156   5.026  0.7183 -0.9582  0.4899
25911SOL    HW281522   7.243   1.249   4.934  3.0560  0.6886  3.8878
25912SOL     OW81523   8.810   6.531   2.365  0.1939 -0.2300 -0.6252
25912SOL    HW181524   8.774   6.466   2.304 -1.9236 -0.3516  0.6171
25912SOL    HW281525   8.795   6.492   2.451  1.8405  0.5370  0.0378
25913SOL     OW81526   2.434   4.013   7.053  0.2925 -0.3703  0.4918
25913SOL    HW181527   2.375   3.949   7.092 -2.1314  1.5804  0.3109
25913SOL    HW281528   2.444   3.985   6.962  0.3408 -1.1835  0.7448
25914SOL     OW81529   7.806   1.199   6.158 -0.3886  0.1559  0.0158
25914SOL    HW181530   7.828   1.267   6.093 -1.7841  0.1588 -0.4791
25914SOL    HW281531   7.890   1.176   6.197  0.3448  0.9309 -1.0382
25915SOL     OW81532   4.330   4.886   0.181 -0.3016  0.0469 -1.0449
25915SOL    HW181533   4.240   4.893   0.214 -0.0191  1.2427 -0.4852
25915SOL    HW281534   4.363   4.804   0.219 -0.6547  0.3781  0.0180
25916SOL     OW81535   0.158   4.332   8.196 -0.1865  0.2173 -0.1021
25916SOL    HW181536   0.154   4.356   8.103  0.4384  1.2826  0.1242
25916SOL    HW281537   0.229   4.268   8.201  0.7733  1.2541 -0.1570
25917SOL     OW81538   6.014   7.596   9.262  0.3658  0.3375 -0.1532
25917SOL    HW181539   6.040   7.668   9.320 -0.0610 -0.4810  1.1108
25917SOL    HW281540   6.083   7.531   9.274  0.4743  0.3180 -0.8784
25918SOL     OW81541   8.663   0.271   0.367  0.2475 -0.2158  0.1700
25918SOL    HW181542   8.659   0.354   0.318 -0.7069 -0.4981 -0.2516
25918SOL    HW281543   8.757   0.253   0.374  0.4388  0.1938 -0.9606
25919SOL     OW81544   0.600   6.857   0.834  0.1409 -0.4945 -0.4217
25919SOL    HW181545   0.527   6.889   0.887  0.5651  0.2109 -0.2604
25919SOL    HW281546   0.601   6.763   0.850  0.5771 -0.2268  1.2124
25920SOL     OW81547   4.705  10.132   1.929 -0.4031 -0.0228  0.9159
25920SOL    HW181548   4.693  10.038   1.946 -0.5735 -0.0986  0.3981
25920SOL    HW281549   4.782  10.135   1.872 -0.8249  0.0921  0.3453
25921SOL     OW81550   5.592   3.584   7.220 -0.1796 -0.0102  0.5749
25921SOL    HW181551   5.521   3.596   7.157  0.0805 -1.3952 -0.0126
25921SOL    HW281552   5.558   3.521   7.283  1.1462 -2.2433 -0.8096
25922SOL     OW81553   9.483   4.096   9.423 -0.2358  0.1895  0.1370
25922SOL    HW181554   9.494   4.008   9.388 -0.5552 -0.1692  0.9118
25922SOL    HW281555   9.444   4.083   9.510 -0.2222  1.0867  0.2924
25923SOL     OW81556   7.071   5.922   8.150  0.6990  0.3116  0.0777
25923SOL    HW181557   7.007   5.934   8.220 -0.0340 -4.4361  0.5919
25923SOL    HW281558   7.156   5.932   8.193  0.2704  0.8292  0.8211
25924SOL     OW81559   9.068   2.216   1.013  0.0217  0.2191  0.1720
25924SOL    HW181560   9.095   2.226   0.922 -0.1347  0.1594  0.1186
25924SOL    HW281561   9.133   2.158   1.052  0.0776  0.2299  0.0926
25925SOL     OW81562   8.694   0.527   2.435  0.2141 -0.9039  0.0712
25925SOL    HW181563   8.732   0.527   2.348  2.4272  0.1058  0.9482
25925SOL    HW281564   8.600   0.526   2.421  0.4981 -2.8647 -2.2660
25926SOL     OW81565   7.404   4.861   9.342 -0.2035  0.0094 -0.0888
25926SOL    HW181566   7.403   4.879   9.436 -0.6112 -1.2387  0.1629
25926SOL    HW281567   7.371   4.942   9.302 -3.3577 -0.5680  1.0485
25927SOL     OW81568   8.774   4.605   6.872  0.0956 -0.3303  0.6792
25927SOL    HW181569   8.798   4.537   6.935 -0.2271 -1.4793 -0.3954
25927SOL    HW281570   8.693   4.574   6.832  0.8176 -0.1674 -1.0211
25928SOL     OW81571   3.551   0.751   0.727  0.1256 -0.0591  0.1774
25928SOL    HW181572   3.620   0.696   0.690  0.4982  0.0651  0.6678
25928SOL    HW281573   3.554   0.831   0.675  0.0591 -0.2221 -0.0810
25929SOL     OW81574   4.573   0.331   1.498  0.2726  0.7830  0.0118
25929SOL    HW181575   4.637   0.370   1.558  0.1661  1.7760 -0.5104
25929SOL    HW281576   4.491   0.331   1.547  0.1441  1.7697 -0.1970
25930SOL     OW81577   1.813   3.409   7.162 -0.3917  1.0982  0.0592
25930SOL    HW181578   1.781   3.321   7.179  2.8638 -0.0298  1.2493
25930SOL    HW281579   1.777   3.433   7.077  0.1128 -2.2016 -1.2102
25931SOL     OW81580   1.594   0.167   5.514 -0.3575 -0.4032 -0.2000
25931SOL    HW181581   1.520   0.176   5.454 -1.3812  2.5274  1.2554
25931SOL    HW281582   1.554   0.154   5.600  0.7142  1.5822  0.6747
25932SOL     OW81583   8.562   6.408   9.202 -0.3083 -0.1253  0.1478
25932SOL    HW181584   8.549   6.488   9.150 -1.1197 -1.6847 -2.2107
25932SOL    HW281585   8.654   6.385   9.187  0.0703  0.6024  1.2474
25933SOL     OW81586   1.994   8.088   8.072 -0.0331 -0.5087 -0.1209
25933SOL    HW181587   1.931   8.062   8.139  1.4075 -2.7720  0.4705
25933SOL    HW281588   1.990   8.018   8.007 -0.4661  0.9931 -1.7923
25934SOL     OW81589   7.484   5.850   1.315 -0.4719  0.2862 -0.3632
25934SOL    HW181590   7.511   5.866   1.406  1.0314  0.4614 -0.8136
25934SOL    HW281591   7.510   5.930   1.268 -3.2304  1.1528 -0.5977
25935SOL     OW81592   0.651   9.095   9.264 -0.0559 -0.5474  0.2505
25935SOL    HW181593   0.688   9.085   9.176  0.3468 -1.5779  0.5232
25935SOL    HW281594   0.679   9.182   9.292 -0.1469 -0.2236 -0.6072
25936SOL     OW81595   6.929   6.133   3.070  0.8482  0.1804 -0.0783
25936SOL    HW181596   6.884   6.086   3.141  0.7153 -0.9659 -0.8832
25936SOL    HW281597   6.873   6.208   3.052  0.5696  0.1553  0.6236
25937SOL     OW81598   0.160   3.046   2.156  0.0622  0.3315  0.1257
25937SOL    HW181599   0.181   2.955   2.180 -0.2767  0.6018  1.5289
25937SOL    HW281600   0.242   3.093   2.166 -0.2956  0.6507  1.9150
25938SOL     OW81601   2.981   0.946   0.755  0.3297 -0.4051 -0.0706
25938SOL    HW181602   3.033   0.879   0.710 -0.2199 -0.0276 -1.3117
25938SOL    HW281603   3.044   1.012   0.782  0.6603 -0.5935 -0.3767
25939SOL     OW81604   7.979   5.445   2.325  0.1107 -0.0856  0.0493
25939SOL    HW181605   8.069   5.435   2.296  0.0889  0.0952 -0.0769
25939SOL    HW281606   7.960   5.538   2.316 -0.9161 -0.4333 -2.4334
25940SOL     OW81607   0.984   8.966   5.538  0.1094  0.3129 -0.2159
25940SOL    HW181608   0.953   9.019   5.611  0.5420 -0.0158  0.2126
25940SOL    HW281609   1.025   9.028   5.478  0.8684  0.4379  0.4195
25941SOL     OW81610   3.847   3.340   9.205 -0.5511 -0.1194 -0.3973
25941SOL    HW181611   3.824   3.295   9.286  0.1512 -0.0975 -0.1790
25941SOL    HW281612   3.856   3.270   9.140 -0.6474 -0.1800 -0.3456
25942SOL     OW81613   7.369   1.773   5.960  0.6149 -0.0206  0.3602
25942SOL    HW181614   7.353   1.691   6.006  0.4189 -0.8986 -1.2041
25942SOL    HW281615   7.464   1.781   5.957  0.6322  0.4237  1.5073
25943SOL     OW81616  10.204   3.520   4.821  0.2021  0.1890  0.2661
25943SOL    HW181617  10.283   3.506   4.874 -0.1177 -1.4501  0.3325
25943SOL    HW281618  10.154   3.440   4.830 -2.1902  1.6842  1.3512
25944SOL     OW81619   9.759   6.292   4.644  0.1906 -0.2993  0.0357
25944SOL    HW181620   9.813   6.312   4.568 -0.6545  1.0348 -0.2487
25944SOL    HW281621   9.697   6.366   4.650 -0.5815 -1.0059  1.2587
25945SOL     OW81622   9.536   1.290   4.624 -0.1546 -0.0560 -0.3229
25945SOL    HW181623   9.457   1.333   4.591 -0.4689 -0.8768 -0.6605
25945SOL    HW281624   9.603   1.358   4.621 -1.3553  1.3934  2.2178
25946SOL     OW81625   5.812   5.443   8.804 -0.4980 -0.2032  1.1406
25946SOL    HW181626   5.802   5.490   8.887  1.2426  1.7682  0.3090
25946SOL    HW281627   5.834   5.510   8.740 -0.2535 -1.8651 -0.6193
25947SOL     OW81628   0.783   9.168   5.143  0.2997  0.0199 -0.1356
25947SOL    HW181629   0.740   9.247   5.175 -1.0732 -0.1684 -1.3422
25947SOL    HW281630   0.725   9.096   5.172  0.2950 -0.3268 -0.9693
25948SOL     OW81631   4.274   2.176   4.851 -0.0771  0.2990  0.0409
25948SOL    HW181632   4.220   2.098   4.834  0.9176 -0.1853 -1.0639
25948SOL    HW281633   4.312   2.160   4.937 -0.2541 -0.2113  0.0283
25949SOL     OW81634   0.454   5.017   8.155 -0.3141  0.0096 -0.0987
25949SOL    HW181635   0.436   5.032   8.248 -2.0358 -1.0579 -0.2112
25949SOL    HW281636   0.548   5.000   8.151  0.0511  1.4455  1.2361
25950SOL     OW81637   3.496   0.497   7.301 -0.1550 -0.3777 -0.1906
25950SOL    HW181638   3.457   0.511   7.388  1.6716 -0.4644  0.6909
25950SOL    HW281639   3.423   0.506   7.240 -1.6139 -0.9446  1.3959
25951SOL     OW81640   7.871   5.948   8.606  0.5264 -0.7495  0.3207
25951SOL    HW181641   7.886   5.997   8.525 -0.1468 -2.4609 -0.9015
25951SOL    HW281642   7.802   5.995   8.651  0.2060 -0.3261 -0.5984
25952SOL     OW81643   9.352   3.240   3.784 -0.3618  0.0973  0.2216
25952SOL    HW181644   9.366   3.297   3.708  1.3234 -0.7343 -0.1437
25952SOL    HW281645   9.259   3.249   3.804 -0.6234  1.1559 -1.2767
25953SOL     OW81646   1.787   2.614   5.231  0.2878  0.0205 -0.2088
25953SOL    HW181647   1.700   2.615   5.269  1.1349  0.6105  1.8525
25953SOL    HW281648   1.821   2.703   5.244  1.8229 -0.6419  0.6628
25954SOL     OW81649   2.343   2.226   0.265  0.4521  0.0049 -0.0345
25954SOL    HW181650   2.348   2.303   0.208  1.3292 -1.0940 -1.5245
25954SOL    HW281651   2.264   2.180   0.236 -0.4145  0.6045  1.2647
25955SOL     OW81652   7.695   3.663   4.206  0.7021  0.3628  0.3238
25955SOL    HW181653   7.679   3.575   4.173 -1.2541  0.1161  1.7204
25955SOL    HW281654   7.654   3.721   4.142  1.8799  0.2850 -0.5288
25956SOL     OW81655   9.037   1.385   2.069  0.7455  0.0639  0.2850
25956SOL    HW181656   8.944   1.407   2.077  0.4829 -0.7349 -0.3274
25956SOL    HW281657   9.049   1.311   2.129  0.2067 -1.8970 -1.8560
25957SOL     OW81658   2.717   3.272   2.586  0.3228 -0.2116 -0.5888
25957SOL    HW181659   2.669   3.318   2.654  1.7668 -0.0617  0.3831
25957SOL    HW281660   2.657   3.268   2.512 -1.1669 -0.0701  0.5718
25958SOL     OW81661   0.119   0.507   8.485  0.3197 -0.1651  0.0236
25958SOL    HW181662   0.032   0.517   8.523  0.4614 -1.4587  0.7320
25958SOL    HW281663   0.179   0.525   8.557  0.5905 -3.0113  0.5977
25959SOL     OW81664   9.460   5.033  10.027 -0.2743  0.2306 -0.7917
25959SOL    HW181665   9.550   5.005  10.013  0.0532  0.7566  0.1971
25959SOL    HW281666   9.410   4.951  10.031  0.6696 -0.3252  2.0949
25960SOL     OW81667   7.410  10.133   1.446  0.4360  0.5990 -0.5365
25960SOL    HW181668   7.370  10.060   1.492  0.3727  0.4305 -0.8581
25960SOL    HW281669   7.503  10.126   1.465  0.3886  0.6391 -0.2829
25961SOL     OW81670   5.724   3.709   5.735  0.1658  0.7638 -0.0679
25961SOL    HW181671   5.755   3.767   5.805 -1.4844  2.1893 -0.4512
25961SOL    HW281672   5.629   3.718   5.737  0.0583  0.5369 -2.2361
25962SOL     OW81673   3.769   5.908   9.862  0.2356  0.2274 -0.0104
25962SOL    HW181674   3.777   5.842   9.793  0.5372 -0.0949  0.3306
25962SOL    HW281675   3.757   5.991   9.814 -3.5078 -0.3875 -0.4828
25963SOL     OW81676   9.645  10.259   2.211  0.3581 -0.4738 -0.8355
25963SOL    HW181677   9.662  10.206   2.289 -0.7771 -1.1358 -1.0207
25963SOL    HW281678   9.726  10.253   2.161  1.3224  0.4345  0.5299
25964SOL     OW81679   1.650   5.117   4.188  0.5482  0.0359 -0.2608
25964SOL    HW181680   1.666   5.192   4.131 -0.5287 -0.3353 -1.0831
25964SOL    HW281681   1.653   5.041   4.130  2.1681 -0.6473  0.6458
25965SOL     OW81682   1.232   8.598   1.126 -0.0564  0.1303  0.1678
25965SOL    HW181683   1.201   8.517   1.086  0.5897 -0.1109  0.1458
25965SOL    HW281684   1.176   8.666   1.089  0.1667 -0.1568 -0.7096
25966SOL     OW81685   3.170   8.090   0.522 -0.4345  0.3311 -0.1915
25966SOL    HW181686   3.181   8.181   0.552 -1.0530  0.3460 -0.0006
25966SOL    HW281687   3.089   8.092   0.470 -0.2724 -0.0472 -0.4612
25967SOL     OW81688   6.641   2.697   3.161  0.4073 -0.2266 -0.4679
25967SOL    HW181689   6.647   2.683   3.256  1.4741 -0.4426 -0.5576
25967SOL    HW281690   6.671   2.787   3.149  0.6803 -0.3415 -0.6429
25968SOL     OW81691   6.829   5.601   8.068 -0.5439  0.3718  0.3111
25968SOL    HW181692   6.752   5.563   8.110 -1.3309  1.8016  0.2329
25968SOL    HW281693   6.801   5.619   7.978  1.1018 -2.6061 -0.9705
25969SOL     OW81694   6.853   3.972   0.581 -0.7702 -0.0576 -0.0348
25969SOL    HW181695   6.822   3.948   0.494 -0.5341 -0.2396 -0.0691
25969SOL    HW281696   6.947   3.988   0.570 -0.4217 -1.6011  0.4919
25970SOL     OW81697   6.557   0.413   6.390  0.0203  0.4379 -0.6684
25970SOL    HW181698   6.474   0.408   6.437  0.0065  0.2690 -0.7092
25970SOL    HW281699   6.544   0.358   6.312 -0.1588  1.1883 -1.1805
25971SOL     OW81700   9.516  10.293  10.278  0.1799 -0.6703 -0.2449
25971SOL    HW181701   9.471  10.209  10.287  1.0459 -1.4305 -2.4129
25971SOL    HW281702   9.446  10.357  10.267 -0.4607 -1.2072  0.5599
25972SOL     OW81703   0.057   5.623   7.109  0.7393  0.5270 -0.5368
25972SOL    HW181704   0.081   5.635   7.017  2.1981  2.2402 -0.0006
25972SOL    HW281705   0.096   5.698   7.153 -1.1349  0.5015  1.2921
25973SOL     OW81706   3.776   8.424   2.459 -0.0089 -0.7900  0.2777
25973SOL    HW181707   3.721   8.478   2.516  0.5101 -0.4569  0.4712
25973SOL    HW281708   3.737   8.336   2.464 -1.4691 -0.2580 -0.8116
25974SOL     OW81709   5.340   9.220   8.806  0.6062 -0.6162 -0.0739
25974SOL    HW181710   5.401   9.276   8.854  0.2090  1.4656 -1.8170
25974SOL    HW281711   5.283   9.282   8.760 -0.7906 -2.4969 -0.9968
25975SOL     OW81712  10.118   4.897   6.522 -0.1488  0.1391 -0.3277
25975SOL    HW181713  10.073   4.832   6.469  0.8612  0.7870 -2.0662
25975SOL    HW281714  10.188   4.849   6.565 -0.1909 -0.1592 -0.5931
25976SOL     OW81715   8.434   0.636   5.903  0.2505  0.0416 -0.0042
25976SOL    HW181716   8.425   0.550   5.944 -0.4092 -0.4760 -1.1873
25976SOL    HW281717   8.497   0.623   5.833 -2.4948 -0.4615 -2.5892
25977SOL     OW81718   6.594   8.865   1.382 -0.3943 -0.3517 -0.1442
25977SOL    HW181719   6.558   8.816   1.308 -0.1784 -1.3264  0.3866
25977SOL    HW281720   6.666   8.811   1.414  0.1334  0.5233  0.1853
25978SOL     OW81721   9.031   1.868   8.643 -0.6351 -0.2389 -0.5393
25978SOL    HW181722   8.982   1.877   8.725 -0.8866  0.7898 -0.7869
25978SOL    HW281723   9.121   1.850   8.671 -0.7664 -0.1337 -0.0412
25979SOL     OW81724   5.054   1.943  10.335 -0.1137  0.2652  0.1459
25979SOL    HW181725   5.115   2.017  10.337  1.2206 -0.6164 -2.7113
25979SOL    HW281726   5.074   1.893  10.413  0.0042  2.0826  1.3454
25980SOL     OW81727   0.422   7.842   7.935  0.0024 -0.0732  0.5610
25980SOL    HW181728   0.378   7.892   8.004 -0.0387 -0.9824  1.2066
25980SOL    HW281729   0.411   7.751   7.961  0.7246 -0.3879 -0.2124
25981SOL     OW81730  10.239   7.782   0.004 -0.3295 -0.0737  0.1606
25981SOL    HW181731  10.327   7.783   0.042 -0.8322 -0.5504  1.3849
25981SOL    HW281732  10.254   7.768  -0.090  0.9766  1.7003  0.0407
25982SOL     OW81733   3.982   6.424   0.921  0.2102  0.5699 -0.5068
25982SOL    HW181734   4.044   6.378   0.977  1.1751 -0.3431 -2.2401
25982SOL    HW281735   3.974   6.511   0.960  3.0196  0.9037 -0.5287
25983SOL     OW81736  10.250  10.034  10.015  0.5483  0.2045 -0.5900
25983SOL    HW181737  10.235   9.947   9.976  0.1149 -0.8377  1.7355
25983SOL    HW281738  10.342  10.053   9.994  0.6184 -0.7578 -1.2468
25984SOL     OW81739   9.187   2.439   4.342  0.1398  0.2165 -0.1882
25984SOL    HW181740   9.278   2.408   4.348 -0.2653 -0.9682  0.0258
25984SOL    HW281741   9.149   2.420   4.427 -0.0527  1.6539  0.0834
25985SOL     OW81742   9.741   4.047   3.950  0.0702 -0.4256  0.2356
25985SOL    HW181743   9.786   3.975   3.993 -0.0757 -0.1838  0.8096
25985SOL    HW281744   9.760   4.124   4.004  1.1970  0.2164 -1.0054
25986SOL     OW81745   7.623   2.262   6.084 -0.4990  0.0447  0.2960
25986SOL    HW181746   7.538   2.219   6.078 -1.2093  1.1829  1.6494
25986SOL    HW281747   7.668   2.215   6.155 -0.2584 -0.1115  0.0423
25987SOL     OW81748   8.652   9.730   4.983  0.5932 -0.7848 -0.0158
25987SOL    HW181749   8.711   9.724   4.908 -0.2502  0.8652 -0.8622
25987SOL    HW281750   8.624   9.821   4.984 -2.9574 -1.7251 -0.4609
25988SOL     OW81751   9.063   6.034   5.788 -0.1907 -0.2818  0.1249
25988SOL    HW181752   9.029   6.045   5.700 -0.5883 -0.5461  0.2464
25988SOL    HW281753   9.134   5.970   5.779 -0.9556 -1.1585  0.1683
25989SOL     OW81754   1.969   4.602   1.080  0.2928  0.6204  0.1171
25989SOL    HW181755   2.003   4.516   1.055 -1.9683 -0.0665 -0.8517
25989SOL    HW281756   1.916   4.586   1.157 -2.1668  0.6118 -1.4702
25990SOL     OW81757   4.565   4.768   6.041  0.3447  0.4905 -0.0716
25990SOL    HW181758   4.501   4.715   6.089  1.2746 -1.0149 -0.4243
25990SOL    HW281759   4.518   4.794   5.961 -0.4662  1.1249  0.5831
25991SOL     OW81760   8.993   2.201   4.816 -0.4035 -0.0764  0.6279
25991SOL    HW181761   8.967   2.201   4.724 -0.5594 -1.2167  0.6589
25991SOL    HW281762   9.018   2.291   4.834  0.2675  0.0247 -0.7214
25992SOL     OW81763   5.711   2.009   5.993 -0.6691 -0.3210 -0.1762
25992SOL    HW181764   5.751   1.962   6.066 -1.0155  0.8307  0.7892
25992SOL    HW281765   5.628   1.963   5.978 -0.8921 -0.1993  0.5961
25993SOL     OW81766   7.502   1.350   1.288  0.2665  0.1683 -0.1539
25993SOL    HW181767   7.580   1.355   1.343  0.3962 -0.7324 -0.2464
25993SOL    HW281768   7.480   1.442   1.270  1.0797  0.4396  0.1729
25994SOL     OW81769   2.325   9.704  10.095 -0.3263  0.0276 -0.1647
25994SOL    HW181770   2.229   9.705  10.094 -0.4039  3.0357 -1.3818
25994SOL    HW281771   2.349   9.748  10.176  0.0757 -0.8088  0.1869
25995SOL     OW81772   8.825   7.654   5.717  0.5035 -0.3378  0.2591
25995SOL    HW181773   8.895   7.627   5.657 -1.0507 -1.3208 -1.1931
25995SOL    HW281774   8.844   7.746   5.735  1.3165 -0.1545 -1.3456
25996SOL     OW81775   0.987   2.379   1.787  0.2980 -0.2715 -0.1051
25996SOL    HW181776   0.995   2.346   1.697 -1.1898  0.5061 -0.5583
25996SOL    HW281777   0.977   2.300   1.840  0.0702 -0.6937 -0.7614
25997SOL     OW81778   1.264   8.234   7.086 -0.7243 -0.2295  0.7294
25997SOL    HW181779   1.292   8.323   7.063  1.2090 -0.6939  1.1342
25997SOL    HW281780   1.184   8.221   7.035 -0.7162  1.5162  0.1873
25998SOL     OW81781   1.285   2.010   9.174  0.5134  0.2525 -0.2642
25998SOL    HW181782   1.208   1.993   9.229  0.3550 -3.5293 -1.3756
25998SOL    HW281783   1.349   1.944   9.200  2.3559  1.5628 -1.2536
25999SOL     OW81784  10.144   5.785   0.148  0.1787 -0.4802  0.3682
25999SOL    HW181785  10.135   5.877   0.123  0.1242 -0.5401  0.1651
25999SOL    HW281786  10.111   5.736   0.072 -0.4356 -0.6580  0.7371
26000SOL     OW81787   5.219   4.715   6.263  0.0059  0.0870  0.2240
26000SOL    HW181788   5.177   4.688   6.181  0.6152 -0.6912  0.1604
26000SOL    HW281789   5.222   4.636   6.316  0.0150  0.4892  0.8375
26001SOL     OW81790   1.195   8.042   4.018 -0.0141  0.1259 -0.1519
26001SOL    HW181791   1.262   7.975   4.003 -0.7878 -0.6928 -0.0545
26001SOL    HW281792   1.242   8.125   4.014  0.6603 -0.3026 -2.1939
26002SOL     OW81793   8.754   1.101   4.052  0.3442 -0.0582  0.3013
26002SOL    HW181794   8.831   1.044   4.061  1.8225  2.0777  2.9265
26002SOL    HW281795   8.776   1.160   3.980  0.9785  0.1927  0.6867
26003SOL     OW81796   0.075   1.079   7.713 -0.7535 -0.0050 -0.0028
26003SOL    HW181797   0.021   1.037   7.779 -0.0166  0.0533  0.6586
26003SOL    HW281798   0.079   1.171   7.740  1.0101 -0.3061  0.9274
26004SOL     OW81799   4.150   7.036   0.055 -0.3739 -0.0441 -0.0977
26004SOL    HW181800   4.162   7.101  -0.014 -0.8232  0.9905  0.7748
26004SOL    HW281801   4.121   7.086   0.130  2.9065 -0.6713  1.7893
26005SOL     OW81802   4.202   6.759   8.505 -0.0702 -0.2347 -0.1019
26005SOL    HW181803   4.282   6.712   8.529 -0.3204 -1.9765 -2.3781
26005SOL    HW281804   4.133   6.717   8.557  0.3210  0.6533  1.1738
26006SOL     OW81805   9.674   2.788   0.739 -0.1973  0.4508 -0.1794
26006SOL    HW181806   9.702   2.737   0.664  0.2246  1.7606 -0.9454
26006SOL    HW281807   9.680   2.879   0.710  0.3845  1.0091  1.5782
26007SOL     OW81808   2.762   4.947   7.508  0.3314 -0.3225  0.2995
26007SOL    HW181809   2.820   4.888   7.460  1.0040 -1.5099  2.4152
26007SOL    HW281810   2.714   4.994   7.441  2.1050 -0.9604 -1.5136
26008SOL     OW81811   2.468   9.149   8.543 -0.1109 -0.2964  0.6478
26008SOL    HW181812   2.503   9.060   8.542  1.9653  0.4471  0.6876
26008SOL    HW281813   2.383   9.142   8.586  0.0441 -2.2306  0.6990
26009SOL     OW81814   8.954   7.519   0.502 -0.2208 -0.2946 -0.0514
26009SOL    HW181815   8.959   7.580   0.428  0.7629 -0.5184 -0.1880
26009SOL    HW281816   9.031   7.540   0.555  1.8032 -3.1833 -1.5368
26010SOL     OW81817   4.286   6.926   9.942  0.4831  0.1883  0.1722
26010SOL    HW181818   4.289   6.843   9.894  1.5599 -0.3969  1.2046
26010SOL    HW281819   4.247   6.903  10.026 -2.4755  1.4215 -0.7553
26011SOL     OW81820   1.228   1.112   9.805  0.2477  0.2700  0.1122
26011SOL    HW181821   1.200   1.200   9.831 -0.4516 -0.3264  1.5401
26011SOL    HW281822   1.318   1.106   9.836  0.2090  0.3933  0.2525
26012SOL     OW81823   5.859   2.538   2.696  0.1463 -0.3585  0.2294
26012SOL    HW181824   5.818   2.485   2.765 -0.5390 -1.1848 -0.7756
26012SOL    HW281825   5.815   2.623   2.703  0.5348 -0.2238  1.2065
26013SOL     OW81826   4.967   1.527   6.612  0.0935 -0.3248 -0.0235
26013SOL    HW181827   4.876   1.551   6.630  0.0443 -1.1217  0.8730
26013SOL    HW281828   4.960   1.448   6.557  0.1686 -2.0892  2.3350
26014SOL     OW81829   3.223   1.235   7.278  0.4464  0.2188  0.0199
26014SOL    HW181830   3.241   1.318   7.234  0.9502 -0.1937 -0.5712
26014SOL    HW281831   3.145   1.201   7.234 -0.4094  0.8769  0.9859
26015SOL     OW81832   9.794   0.236   2.233  0.0955 -0.0945  0.5803
26015SOL    HW181833   9.727   0.267   2.173 -0.4033 -1.5829  0.3313
26015SOL    HW281834   9.839   0.167   2.186  2.0130  1.0469  0.6499
26016SOL     OW81835   1.651   2.583   2.189 -0.3122  0.0538 -0.0090
26016SOL    HW181836   1.565   2.617   2.214 -0.5058  1.2669 -2.1033
26016SOL    HW281837   1.673   2.630   2.108  2.2894 -0.2709  0.4158
26017SOL     OW81838   8.037   2.052   5.019  0.6932 -0.5760 -0.3139
26017SOL    HW181839   7.983   1.983   4.981  0.2105 -0.8108  0.7777
26017SOL    HW281840   7.993   2.076   5.100  0.5832  1.3735 -0.8990
26018SOL     OW81841   9.834   1.116   2.422 -0.3494  0.1180 -0.5379
26018SOL    HW181842   9.778   1.041   2.443 -0.2179  0.0414 -0.4640
26018SOL    HW281843   9.820   1.131   2.329  0.4104 -0.6442 -0.7862
26019SOL     OW81844   6.188   2.719   3.462 -0.0228 -0.1409  0.0811
26019SOL    HW181845   6.129   2.644   3.463  0.2702 -0.3720  0.2666
26019SOL    HW281846   6.221   2.724   3.372  1.0605 -1.1122  0.4052
26020SOL     OW81847   0.769   2.160   8.391 -0.0879  1.0232 -0.1272
26020SOL    HW181848   0.678   2.161   8.362 -0.2389  0.7783  0.3224
26020SOL    HW281849   0.764   2.149   8.486  0.3992 -3.3795 -0.3938
26021SOL     OW81850   5.803   4.877   5.713 -0.0721  0.1588  0.2927
26021SOL    HW181851   5.739   4.885   5.783 -0.4390 -0.1926  0.0019
26021SOL    HW281852   5.836   4.787   5.721 -1.7523 -0.6783 -1.3575
26022SOL     OW81853   9.672   2.524   8.425  0.1378  0.2296  0.1269
26022SOL    HW181854   9.739   2.500   8.489  1.1451 -0.0525 -0.9985
26022SOL    HW281855   9.702   2.607   8.389  0.4265 -0.3825 -1.0851
26023SOL     OW81856   0.742   9.947   7.403  0.0506  0.5387 -0.0163
26023SOL    HW181857   0.816   9.889   7.390  0.6213  0.7024  2.0783
26023SOL    HW281858   0.730   9.950   7.498 -1.7124  1.6812 -0.2155
26024SOL     OW81859   9.792   3.955   6.331  0.6911 -0.0865 -0.0548
26024SOL    HW181860   9.811   4.043   6.363  0.4058 -0.4393  1.1539
26024SOL    HW281861   9.871   3.904   6.352  1.6479  0.2785 -2.4951
26025SOL     OW81862   3.658   3.605   5.809  0.2031  1.0128 -0.2333
26025SOL    HW181863   3.567   3.634   5.812 -0.5069 -1.1587  1.0043
26025SOL    HW281864   3.665   3.556   5.727  0.1356  0.7875 -0.1038
26026SOL     OW81865   2.045   6.454   5.034  0.2910  0.3414 -0.3133
26026SOL    HW181866   2.126   6.475   5.080 -0.6052 -0.6220  1.8440
26026SOL    HW281867   2.062   6.367   4.997  0.2420  0.1215  0.1717
26027SOL     OW81868   0.066   3.719   6.928 -0.0481  0.4739 -0.2766
26027SOL    HW181869   0.106   3.716   7.015 -1.0331  0.2998  0.1877
26027SOL    HW281870   0.139   3.734   6.868  0.4006  2.9077  0.7744
26028SOL     OW81871   8.865   5.892   5.364 -0.6480  0.3266 -0.2351
26028SOL    HW181872   8.868   5.914   5.271  0.8873  0.7441 -0.1221
26028SOL    HW281873   8.948   5.925   5.399 -2.3388  2.8228  1.8871
26029SOL     OW81874   3.951   2.950   6.216 -0.1816  0.2799 -0.5164
26029SOL    HW181875   3.901   3.030   6.197  1.1996  1.5751  0.9637
26029SOL    HW281876   3.912   2.917   6.297  0.6112  0.6984  0.0545
26030SOL     OW81877   6.674   4.346   7.317 -0.0359 -0.6109 -0.1807
26030SOL    HW181878   6.650   4.309   7.402 -1.1411  0.7954  0.1566
26030SOL    HW281879   6.591   4.370   7.276  0.5094 -0.8891 -1.4977
26031SOL     OW81880   1.373   8.347   5.324  0.1761  0.3487  0.8166
26031SOL    HW181881   1.453   8.386   5.288  1.0406 -1.0040  1.1775
26031SOL    HW281882   1.394   8.331   5.416 -1.4096  2.2112  1.5823
26032SOL     OW81883   4.915   4.341   1.868 -0.0749  0.9354 -0.2735
26032SOL    HW181884   4.840   4.348   1.810  0.5590  2.5252 -0.9566
26032SOL    HW281885   4.943   4.431   1.883  0.2691  0.5232  1.8910
26033SOL     OW81886   1.396  10.196   5.449 -0.4956 -0.6525  0.2923
26033SOL    HW181887   1.307  10.162   5.462 -0.3258 -1.6118 -0.8653
26033SOL    HW281888   1.382  10.283   5.411 -0.9267  0.5320  2.9062
26034SOL     OW81889   7.859   8.191   4.181 -0.5839 -0.5074 -0.2506
26034SOL    HW181890   7.847   8.200   4.276  0.1503 -1.6955 -0.0183
26034SOL    HW281891   7.867   8.096   4.167  2.5147 -0.2230 -1.0559
26035SOL     OW81892   0.149   5.232   4.293 -0.0229  0.3810 -0.4758
26035SOL    HW181893   0.199   5.150   4.292  1.4386  1.2399 -0.2648
26035SOL    HW281894   0.064   5.207   4.328  0.3134 -1.0878 -0.6045
26036SOL     OW81895   8.966   5.923   0.093 -0.6174 -0.3710  0.5151
26036SOL    HW181896   8.877   5.958   0.094 -1.2339 -1.8221 -0.0256
26036SOL    HW281897   8.958   5.840   0.045  1.0221 -0.5440  0.4882
26037SOL     OW81898   6.889   8.916   8.096 -0.1078  0.1894  0.1776
26037SOL    HW181899   6.855   8.974   8.164 -2.2652 -0.5913 -0.1267
26037SOL    HW281900   6.919   8.839   8.143  1.2411  0.8637  0.4526
26038SOL     OW81901   9.648   0.200   9.452  0.6722 -0.3480  0.2696
26038SOL    HW181902   9.562   0.161   9.437  0.7372 -0.8372  1.0850
26038SOL    HW281903   9.708   0.146   9.399  0.1019  2.3321 -3.5471
26039SOL     OW81904   1.089   1.343   0.105 -0.0067 -0.5231  0.3874
26039SOL    HW181905   1.157   1.373   0.045  1.3399 -0.1750  2.0336
26039SOL    HW281906   1.015   1.323   0.048  1.8893 -2.3208 -1.6629
26040SOL     OW81907   9.642   8.780   3.098 -0.6426  0.4710 -0.1224
26040SOL    HW181908   9.661   8.691   3.125  2.3070  1.3550  1.1305
26040SOL    HW281909   9.623   8.826   3.180 -0.8990  1.2587 -0.6096
26041SOL     OW81910   0.143   1.063  10.146 -0.0007  0.0913 -0.6323
26041SOL    HW181911   0.048   1.065  10.146  0.0053  0.5971  0.1715
26041SOL    HW281912   0.168   1.112  10.067 -0.3945  0.1189 -0.7422
26042SOL     OW81913   0.269   4.329   1.540  0.4938  0.2138  0.3018
26042SOL    HW181914   0.244   4.395   1.475  0.5883 -0.3596 -0.3307
26042SOL    HW281915   0.257   4.245   1.494 -0.0512 -0.2250  1.2369
26043SOL     OW81916   1.331   5.114   2.377 -0.3765  0.4453  0.0629
26043SOL    HW181917   1.270   5.170   2.426  1.7020  1.8379  1.2355
26043SOL    HW281918   1.394   5.175   2.339  1.9121 -1.0033  1.2649
26044SOL     OW81919   9.415   2.457   2.164  0.1280  0.3787  0.1508
26044SOL    HW181920   9.480   2.396   2.197  1.5002  1.7584  0.1293
26044SOL    HW281921   9.411   2.440   2.070 -1.9931 -1.8973  0.5616
26045SOL     OW81922   3.736  10.286   5.367  0.2052  0.0034  0.6021
26045SOL    HW181923   3.784  10.353   5.416  0.6364 -0.8714  1.4046
26045SOL    HW281924   3.645  10.299   5.392  0.2597  0.4196  0.5921
26046SOL     OW81925   7.553   8.553   1.305 -0.1384  0.0489  0.1994
26046SOL    HW181926   7.580   8.480   1.361 -0.2133  0.9432  1.4648
26046SOL    HW281927   7.579   8.631   1.354  0.3368  0.8854 -1.3129
26047SOL     OW81928   7.978   1.617   5.356  0.4996  0.0602  0.5428
26047SOL    HW181929   7.905   1.661   5.313  0.4811  0.1452  0.6637
26047SOL    HW281930   7.982   1.531   5.312  1.4563  0.7085 -0.7083
26048SOL     OW81931   9.656   9.971   5.461 -0.3603  0.2131 -0.4121
26048SOL    HW181932   9.581   9.933   5.415  0.4297 -1.3460 -0.4791
26048SOL    HW281933   9.661   9.922   5.543 -1.8963  3.0996  1.5995
26049SOL     OW81934   3.899   4.083   1.858 -0.2145 -0.3982 -0.2956
26049SOL    HW181935   3.940   4.160   1.899 -3.1537  0.8127  0.6498
26049SOL    HW281936   3.947   4.009   1.893  1.8395  0.9293 -0.1373
26050SOL     OW81937   5.455   0.035   2.616 -0.3224 -0.2542 -0.2710
26050SOL    HW181938   5.516  -0.014   2.671 -0.5019  1.7332  1.8590
26050SOL    HW281939   5.501   0.047   2.533  1.7147  0.1514  0.8658
26051SOL     OW81940   3.719   0.092   9.887  0.0890 -0.0264  0.4597
26051SOL    HW181941   3.762   0.091   9.802  0.0459 -0.0261  0.4376
26051SOL    HW281942   3.694   0.184   9.900  0.3739  0.0297  0.6133
26052SOL     OW81943   9.700   6.559   0.796 -0.0417  0.4118 -0.2230
26052SOL    HW181944   9.659   6.556   0.710  1.3307  1.5932 -0.9707
26052SOL    HW281945   9.642   6.508   0.853 -2.1406  1.4359 -1.3447
26053SOL     OW81946   5.873   1.459   0.859  0.4005 -0.8744 -0.6853
26053SOL    HW181947   5.792   1.457   0.909  1.0598 -1.2031  0.4171
26053SOL    HW281948   5.857   1.403   0.783 -0.2955 -1.1767 -0.3198
26054SOL     OW81949   4.421   3.206   6.849 -0.2875 -0.2602  0.1296
26054SOL    HW181950   4.341   3.253   6.871 -0.1640 -0.1742  0.3940
26054SOL    HW281951   4.391   3.128   6.803 -0.3867  1.4759 -2.9817
26055SOL     OW81952   0.839   0.743   0.440 -0.3489 -0.3592  0.0881
26055SOL    HW181953   0.862   0.728   0.348 -2.1886 -0.0841 -0.4665
26055SOL    HW281954   0.889   0.821   0.464 -0.4672  0.0572 -0.9461
26056SOL     OW81955   8.078   9.380   2.191 -0.0449  0.5203 -0.3192
26056SOL    HW181956   8.066   9.440   2.264  1.0110  1.0459 -0.5714
26056SOL    HW281957   8.062   9.293   2.229  1.0804  0.7314  0.6781
26057SOL     OW81958   3.768   3.446   0.004 -0.5214  0.3423  0.2279
26057SOL    HW181959   3.832   3.517   0.006  0.3942 -0.4209 -0.6688
26057SOL    HW281960   3.819   3.366   0.017 -1.4382 -0.2154  0.5451
26058SOL     OW81961   0.266   8.604   5.716  0.2135 -0.3566 -0.2598
26058SOL    HW181962   0.255   8.521   5.668  1.9298 -2.1080  2.1219
26058SOL    HW281963   0.355   8.632   5.695 -1.0621  2.2588 -2.8264
26059SOL     OW81964   4.132   8.405   1.901  0.3900 -0.1187 -0.3463
26059SOL    HW181965   4.119   8.351   1.979 -2.7272  1.0489  0.1124
26059SOL    HW281966   4.178   8.482   1.932 -1.5102  0.6972  0.6220
26060SOL     OW81967   2.359   4.223   1.609 -0.4377 -0.2404  0.3302
26060SOL    HW181968   2.295   4.228   1.680  0.7962  1.7503  1.3888
26060SOL    HW281969   2.381   4.314   1.590  0.2742 -0.7879 -1.7167
26061SOL     OW81970   8.531   7.199   1.744 -0.0993 -0.6092 -0.1990
26061SOL    HW181971   8.441   7.194   1.777  0.2547 -1.2748  0.7036
26061SOL    HW281972   8.571   7.116   1.771  0.6047 -0.5804 -1.1375
26062SOL     OW81973   6.760   8.353   8.154 -0.5266  0.8255  0.5285
26062SOL    HW181974   6.837   8.374   8.206 -0.4487  3.4504 -0.5287
26062SOL    HW281975   6.696   8.421   8.176 -1.0776  1.0608 -1.5544
26063SOL     OW81976   1.559   2.643   2.552  0.0368  0.2483  0.6564
26063SOL    HW181977   1.628   2.630   2.617  2.4091 -1.0603 -1.9094
26063SOL    HW281978   1.576   2.730   2.516  0.0763  0.1220  0.3638
26064SOL     OW81979   6.132   2.594   5.937 -0.5291  0.1222 -0.5684
26064SOL    HW181980   6.216   2.555   5.912 -1.4599 -2.3656 -0.1561
26064SOL    HW281981   6.132   2.591   6.033 -0.9787  0.3338 -0.5570
26065SOL     OW81982   2.873   4.258   0.628 -0.5687  0.1379 -0.2017
26065SOL    HW181983   2.862   4.202   0.704 -2.6980  0.8041  0.0363
26065SOL    HW281984   2.867   4.347   0.663  1.2084  0.5374 -0.7921
26066SOL     OW81985   8.705   4.113   5.696 -0.5734 -0.2917  0.4310
26066SOL    HW181986   8.668   4.195   5.727 -1.6054 -0.1524 -1.0527
26066SOL    HW281987   8.629   4.061   5.669  0.1845 -0.8073 -0.7885
26067SOL     OW81988   5.741   5.156   2.942  0.0258  0.0241  0.1354
26067SOL    HW181989   5.693   5.104   3.007 -0.9510  2.5682  1.5809
26067SOL    HW281990   5.674   5.188   2.882  0.4426  0.5845 -0.0342
26068SOL     OW81991   0.361  10.195   1.177  0.3592 -0.6626  0.4900
26068SOL    HW181992   0.418  10.243   1.237  2.6876 -1.3945 -1.0047
26068SOL    HW281993   0.320  10.264   1.124  0.1987 -0.1357  1.2837
26069SOL     OW81994   0.279   0.953   8.098 -0.4542  0.2640  0.1338
26069SOL    HW181995   0.278   0.925   8.189 -0.3723 -0.2428 -0.0197
26069SOL    HW281996   0.211   0.901   8.055 -1.6167  1.6460  0.2313
26070SOL     OW81997   8.748   5.353   8.480  0.5850 -0.2509 -0.3688
26070SOL    HW181998   8.764   5.263   8.452 -1.2658  0.2226 -3.4816
26070SOL    HW281999   8.668   5.347   8.534  2.3063 -0.7551  2.3195
26071SOL     OW82000   7.490   3.348   3.133  0.1777  0.0480 -0.1537
26071SOL    HW182001   7.464   3.280   3.071 -1.2728  0.6748 -0.2634
26071SOL    HW282002   7.581   3.369   3.109 -0.4336  0.4887 -2.2927
26072SOL     OW82003   9.068   9.419   3.602  0.2581 -0.3040 -0.1988
26072SOL    HW182004   9.056   9.334   3.559  0.9338  0.0149 -1.0446
26072SOL    HW282005   8.999   9.474   3.566 -0.2176 -0.4994  0.3951
26073SOL     OW82006   6.603   3.797   9.255 -0.0057 -0.2006 -0.0392
26073SOL    HW182007   6.693   3.798   9.288  0.2433 -1.9332 -0.5547
26073SOL    HW282008   6.592   3.709   9.218 -1.6309  0.2780 -0.7856
26074SOL     OW82009   4.700   5.078   3.077  0.3028 -0.1735 -0.1765
26074SOL    HW182010   4.756   5.059   3.002  0.4315  1.0260 -0.3947
26074SOL    HW282011   4.643   5.149   3.048  0.5223  0.4899  0.9304
26075SOL     OW82012   1.911   6.448   8.549 -0.9771 -0.0399 -0.2546
26075SOL    HW182013   1.942   6.381   8.488 -0.3930  0.2244 -0.2630
26075SOL    HW282014   1.984   6.460   8.610 -0.4569  1.6565 -1.1559
26076SOL     OW82015   1.902   0.225   1.486 -0.2981  0.1945  0.0681
26076SOL    HW182016   1.819   0.177   1.489 -0.5953  0.7609  2.0572
26076SOL    HW282017   1.877   0.317   1.493  0.4564  0.4369 -0.3272
26077SOL     OW82018   6.580   0.717   5.397 -0.5080 -0.7894 -0.3125
26077SOL    HW182019   6.648   0.745   5.335 -1.2978  1.5282 -0.2353
26077SOL    HW282020   6.501   0.708   5.344 -1.2007  1.2626  0.2698
26078SOL     OW82021   4.354   4.586   6.102 -0.3690 -0.2162 -0.0244
26078SOL    HW182022   4.395   4.528   6.039  0.4641  2.1813 -1.8517
26078SOL    HW282023   4.260   4.571   6.091 -0.1716 -1.4249 -0.1911
26079SOL     OW82024   9.567   3.111   2.910  0.0999  0.2650 -0.4303
26079SOL    HW182025   9.583   3.080   3.000  1.0722  2.3412  0.1807
26079SOL    HW282026   9.614   3.049   2.855  4.0763  1.7979  0.8664
26080SOL     OW82027  10.066   9.645   8.739  0.3000 -0.2750 -0.1891
26080SOL    HW182028  10.087   9.679   8.826 -0.7419 -0.0360 -0.0138
26080SOL    HW282029  10.100   9.555   8.739  0.1016 -0.3519  0.5465
26081SOL     OW82030   2.814   5.368   7.414  0.2723  0.0215 -0.2864
26081SOL    HW182031   2.875   5.316   7.465  0.8064  0.5226 -0.4119
26081SOL    HW282032   2.854   5.454   7.407 -1.0145  0.7393  0.6819
26082SOL     OW82033   6.148   5.155   1.067 -0.2779 -0.4435  0.0073
26082SOL    HW182034   6.226   5.132   1.017 -1.2473 -0.3012 -1.6449
26082SOL    HW282035   6.180   5.169   1.156  1.6742  0.2304 -0.7449
26083SOL     OW82036  10.010   6.787   3.864 -0.5792  0.4420  0.1309
26083SOL    HW182037  10.014   6.779   3.769 -0.3155  1.8171  0.0005
26083SOL    HW282038  10.035   6.878   3.881  1.1908 -0.2738  1.6383
26084SOL     OW82039   2.975   6.785   4.050 -0.1649  0.5782  0.1910
26084SOL    HW182040   2.956   6.754   3.962  0.9943 -1.5016  0.6172
26084SOL    HW282041   2.893   6.776   4.098 -0.5292  0.7590 -0.3907
26085SOL     OW82042   0.553   7.147   9.638  0.4998 -0.2477  0.3592
26085SOL    HW182043   0.506   7.218   9.681  1.2169 -0.6268  1.8064
26085SOL    HW282044   0.539   7.163   9.544  0.3136  1.5649  0.6598
26086SOL     OW82045   2.354   8.801   2.274 -0.4011  0.0959 -0.1279
26086SOL    HW182046   2.300   8.764   2.345 -1.0229 -1.0076 -1.1239
26086SOL    HW282047   2.293   8.857   2.225 -0.2722 -0.0214 -0.4244
26087SOL     OW82048   2.541   3.594   5.717 -0.2317 -0.1715 -0.2481
26087SOL    HW182049   2.566   3.646   5.640 -1.4543  1.4799  0.4010
26087SOL    HW282050   2.599   3.519   5.715  1.4910  1.1056 -1.3908
26088SOL     OW82051   4.124   2.945   9.930 -0.2164  0.0610 -0.4985
26088SOL    HW182052   4.200   2.896   9.961 -0.5865  0.1639  0.6220
26088SOL    HW282053   4.160   3.026   9.895  0.1001  0.7814  1.4016
26089SOL     OW82054   2.704   6.875   6.206  0.3724  0.0999 -0.8230
26089SOL    HW182055   2.795   6.900   6.219 -0.2820  1.9637  0.7935
26089SOL    HW282056   2.679   6.832   6.288  0.3230 -2.3375 -2.0415
26090SOL     OW82057   2.203   7.605   8.070  0.0924 -0.4313  0.5485
26090SOL    HW182058   2.180   7.544   8.140 -1.2318 -0.2386  0.2958
26090SOL    HW282059   2.209   7.690   8.113 -3.2580  0.1663  0.1045
26091SOL     OW82060   9.171   9.061   1.003  0.0064 -1.1262  0.2089
26091SOL    HW182061   9.139   9.058   1.093  0.1498  0.8454  0.3672
26091SOL    HW282062   9.101   9.021   0.951 -1.1142 -0.2090  0.9577
26092SOL     OW82063   6.054   2.033   0.948 -0.3573 -0.3383 -0.2687
26092SOL    HW182064   6.094   2.114   0.977  1.1570  0.2439 -3.4791
26092SOL    HW282065   6.119   1.965   0.968 -0.4431 -0.3429 -0.0059
26093SOL     OW82066   8.559   1.975   6.948 -0.3231 -0.5555 -0.0984
26093SOL    HW182067   8.574   2.008   6.859  0.8528  0.3650  0.4077
26093SOL    HW282068   8.529   2.051   6.997  3.3073  0.1847  1.3152
26094SOL     OW82069   8.198  10.104   4.075  0.0756 -0.0055 -0.8613
26094SOL    HW182070   8.224  10.013   4.063  1.7089  0.1805  0.8312
26094SOL    HW282071   8.189  10.114   4.170  0.2499  1.6754 -0.9875
26095SOL     OW82072   2.703   7.401   1.676  0.2759 -0.5122  0.2832
26095SOL    HW182073   2.704   7.341   1.750  1.8909 -1.5309 -0.5193
26095SOL    HW282074   2.719   7.346   1.599 -3.9339  0.0610 -1.2664
26096SOL     OW82075   6.978   7.932   3.538 -0.2321  0.3282  0.5590
26096SOL    HW182076   6.959   7.876   3.613  0.7990  0.9300  1.2974
26096SOL    HW282077   7.044   7.885   3.488  0.9578  1.0314  1.4122
26097SOL     OW82078   0.470  10.334   3.914  0.3919 -0.6552 -0.1967
26097SOL    HW182079   0.415  10.398   3.958 -2.0716 -1.2816 -2.1397
26097SOL    HW282080   0.472  10.259   3.973  0.3404 -0.1171  0.5017
26098SOL     OW82081   7.857   7.408   5.590  0.0019  0.9293  0.7698
26098SOL    HW182082   7.791   7.478   5.592  0.5624  1.6224 -1.6782
26098SOL    HW282083   7.819   7.342   5.532  1.4083  1.3430 -0.6884
26099SOL     OW82084   1.507   8.841   7.348  0.7046 -0.2559  0.8621
26099SOL    HW182085   1.502   8.911   7.283  0.6004  0.3916  1.5548
26099SOL    HW282086   1.560   8.773   7.306  1.3864  0.5174  0.4396
26100SOL     OW82087   1.842   4.295   1.790  0.3094  0.3957 -0.1704
26100SOL    HW182088   1.779   4.353   1.749 -1.9546 -1.0711  1.0011
26100SOL    HW282089   1.908   4.353   1.828 -2.6430  2.4617  2.2940
26101SOL     OW82090   1.790   5.138   2.507  0.8754  0.4707 -0.1398
26101SOL    HW182091   1.724   5.070   2.506 -0.0931  1.3705  0.3553
26101SOL    HW282092   1.837   5.125   2.589  1.0339  0.0893 -0.2903
26102SOL     OW82093   5.705   2.044   8.505  0.4426  0.0582  0.1786
26102SOL    HW182094   5.724   2.123   8.455 -1.2433  0.1046 -0.4518
26102SOL    HW282095   5.644   1.995   8.450 -0.3251 -0.5845  1.5671
26103SOL     OW82096   3.770   1.807   7.615 -0.3718 -0.5987  0.4775
26103SOL    HW182097   3.846   1.858   7.644 -0.5094  0.0824 -0.3275
26103SOL    HW282098   3.784   1.720   7.653  0.0796 -0.0864  1.5177
26104SOL     OW82099   5.494   6.647   0.573 -0.4796  0.8672  0.3488
26104SOL    HW182100   5.571   6.704   0.564 -0.7704  1.2771  0.3928
26104SOL    HW282101   5.518   6.566   0.528  0.8422  0.1165  2.2663
26105SOL     OW82102   3.578   4.254   6.941  0.3550 -0.3282 -0.2020
26105SOL    HW182103   3.639   4.316   6.900 -0.2655  0.2513 -0.2641
26105SOL    HW282104   3.560   4.291   7.028  0.4157 -0.7154 -0.0216
26106SOL     OW82105   3.731   1.044   7.470  0.6697 -0.0089  0.5750
26106SOL    HW182106   3.749   1.130   7.433 -3.1474  0.5375 -0.4666
26106SOL    HW282107   3.767   0.982   7.407 -2.0694  0.9458 -2.2118
26107SOL     OW82108   4.859   8.958   9.900 -0.5479  0.3696  0.2162
26107SOL    HW182109   4.903   8.881   9.864  1.2301  0.7717  1.4053
26107SOL    HW282110   4.798   8.922   9.966 -0.4643 -0.0698  0.0563
26108SOL     OW82111   7.088   0.564   8.769 -0.0562 -0.7993 -0.0951
26108SOL    HW182112   7.045   0.645   8.796  0.9217 -0.4656  0.4807
26108SOL    HW282113   7.127   0.585   8.684  0.4183 -0.5919  0.1756
26109SOL     OW82114   5.218   7.068   0.372 -0.3359  0.0344 -0.2813
26109SOL    HW182115   5.277   7.143   0.366 -0.3067 -0.1144 -3.2615
26109SOL    HW282116   5.275   6.995   0.398  0.0188  0.6235  0.6340
26110SOL     OW82117   2.861   5.706   3.267  0.2705  0.8906 -0.0039
26110SOL    HW182118   2.803   5.710   3.190 -0.7807  2.0914  0.8141
26110SOL    HW282119   2.930   5.769   3.248  0.5162  0.5284 -0.3411
26111SOL     OW82120   3.039   1.239   4.031 -0.1095 -0.0725  0.4101
26111SOL    HW182121   3.059   1.331   4.014  3.0545 -0.2220  2.5613
26111SOL    HW282122   2.983   1.241   4.109  0.5400  0.0461  0.8829
26112SOL     OW82123   3.667   5.299   4.128 -0.0091 -0.1246 -0.3820
26112SOL    HW182124   3.723   5.242   4.075 -0.9196 -1.2659 -0.1629
26112SOL    HW282125   3.612   5.238   4.178 -0.2573  0.9449  0.6912
26113SOL     OW82126   8.315   7.468   3.912  0.1709  0.1900  0.0505
26113SOL    HW182127   8.299   7.515   3.830 -1.5745  1.0662  0.8345
26113SOL    HW282128   8.402   7.498   3.940 -0.7308  2.7965  0.3447
26114SOL     OW82129   9.761   6.687   2.848 -0.1141 -0.4057  0.5441
26114SOL    HW182130   9.780   6.706   2.940  0.8018  1.1969  0.0623
26114SOL    HW282131   9.842   6.647   2.815  0.5453  1.4030 -0.1633
26115SOL     OW82132   0.053  10.235   4.992 -0.1980 -0.2053  0.4887
26115SOL    HW182133   0.113  10.191   4.931 -0.0382 -0.5237  0.8672
26115SOL    HW282134   0.108  10.256   5.067 -0.3095  0.5222  0.3729
26116SOL     OW82135   3.638   6.871   8.764  0.0397  0.7680 -0.5413
26116SOL    HW182136   3.655   6.781   8.736  1.0704  0.7180  0.2330
26116SOL    HW282137   3.587   6.909   8.691 -0.0788 -0.3119 -1.0407
26117SOL     OW82138   9.510   7.750   2.132 -0.0441 -0.2912  0.0863
26117SOL    HW182139   9.591   7.781   2.090 -1.3754  5.0479  0.7740
26117SOL    HW282140   9.449   7.739   2.059 -0.1286  1.1105 -0.0919
26118SOL     OW82141   3.731   0.393   5.077 -1.1874  0.5039 -0.0923
26118SOL    HW182142   3.667   0.339   5.123 -2.3357  2.5258  0.8338
26118SOL    HW282143   3.705   0.387   4.985 -0.9556 -0.8911 -0.0891
26119SOL     OW82144   5.220   4.636   2.698 -0.2138 -0.4350 -0.3489
26119SOL    HW182145   5.178   4.612   2.780 -0.4117  0.3859 -0.1955
26119SOL    HW282146   5.289   4.571   2.686 -0.8415 -1.1646 -0.0610
26120SOL     OW82147   7.040   1.954   3.646 -0.2166  0.2122  0.1134
26120SOL    HW182148   7.013   1.881   3.701 -0.0261 -1.7402 -2.2158
26120SOL    HW282149   7.131   1.934   3.623  0.1387  1.6836  0.1420
26121SOL     OW82150   3.052   6.603   7.791  0.5447 -0.3885 -0.3332
26121SOL    HW182151   3.010   6.517   7.783  0.4086 -0.6091  2.1360
26121SOL    HW282152   3.145   6.583   7.793  0.4988 -0.5144  0.5908
26122SOL     OW82153   9.095   5.151   6.630  0.2843  0.0514  0.0375
26122SOL    HW182154   9.100   5.230   6.576 -1.1325 -1.7411 -2.9624
26122SOL    HW282155   9.039   5.176   6.704  1.9759  2.4943  0.6088
26123SOL     OW82156   5.645   8.239   2.852 -0.4240  0.5566 -0.1288
26123SOL    HW182157   5.698   8.255   2.930 -0.0974 -0.3272 -0.1707
26123SOL    HW282158   5.605   8.324   2.834 -0.9079  0.6701  1.2983
26124SOL     OW82159   5.026   1.234   0.156  0.8521  0.2174  0.9582
26124SOL    HW182160   4.933   1.247   0.171  0.7852 -0.3907  1.0898
26124SOL    HW282161   5.062   1.211   0.242  1.1447  0.5551  0.9311
26125SOL     OW82162   7.521   0.053   0.978  0.0968 -0.4235 -0.0463
26125SOL    HW182163   7.451   0.010   0.930  0.7620 -0.8106 -0.6971
26125SOL    HW282164   7.599   0.001   0.957  1.0889  1.5238 -1.5264
26126SOL     OW82165   0.261   6.751   6.315 -0.4089  0.0325  0.1354
26126SOL    HW182166   0.305   6.835   6.323 -0.0971  0.0892 -1.7542
26126SOL    HW282167   0.172   6.773   6.288 -0.7251 -0.2054  0.9535
26127SOL     OW82168   8.207  10.239   8.912  0.2039 -0.8627 -0.3721
26127SOL    HW182169   8.200  10.331   8.888 -0.5359 -0.6213  0.7095
26127SOL    HW282170   8.210  10.193   8.828  0.9397  0.1497 -0.9334
26128SOL     OW82171   8.101   2.486   7.271 -0.6175  0.2142  0.2704
26128SOL    HW182172   8.082   2.400   7.234 -1.1832 -0.1399  1.3313
26128SOL    HW282173   8.184   2.511   7.231 -1.1488 -0.1693 -1.1427
26129SOL     OW82174   8.266   3.307   6.640 -0.1549 -0.1376  0.2058
26129SOL    HW182175   8.265   3.395   6.679 -2.2867 -0.7700  1.7430
26129SOL    HW282176   8.175   3.288   6.620  0.5198 -1.1563 -2.2345
26130SOL     OW82177   1.807   5.298   5.346 -0.7943  0.4354 -0.1219
26130SOL    HW182178   1.723   5.275   5.307  0.6327 -0.9848 -2.5817
26130SOL    HW282179   1.853   5.215   5.355  0.5448  1.2338  0.7426
26131SOL     OW82180   6.429   1.341   5.180  0.1427  0.0749  0.0682
26131SOL    HW182181   6.367   1.276   5.146  0.5239 -0.3848  0.2542
26131SOL    HW282182   6.470   1.378   5.101  1.2327 -1.1926  0.0197
26132SOL     OW82183   1.787   8.882   0.943 -0.1770  0.3030  0.0943
26132SOL    HW182184   1.868   8.876   0.994 -0.4775 -1.1466  0.4409
26132SOL    HW282185   1.772   8.976   0.933  1.2346  0.6012  0.5120
26133SOL     OW82186  10.262   1.460   9.428 -0.3665  0.4657 -0.2470
26133SOL    HW182187  10.245   1.480   9.336  0.7209 -1.4193 -0.9084
26133SOL    HW282188  10.190   1.402   9.454 -0.3796  0.5596 -0.0711
26134SOL     OW82189   8.333   7.735   7.202 -0.0654  0.0227  0.4239
26134SOL    HW182190   8.338   7.640   7.213 -0.5825 -0.1084 -0.3841
26134SOL    HW282191   8.351   7.749   7.109 -1.6814  0.5671  0.1588
26135SOL     OW82192   3.294   9.658   0.128  0.3730  0.3316  0.3370
26135SOL    HW182193   3.332   9.570   0.134  1.0901  0.6856  1.1553
26135SOL    HW282194   3.200   9.643   0.117  0.5516 -0.5402 -0.0600
26136SOL     OW82195   9.242   9.481   5.158  0.5624 -0.3831  0.3869
26136SOL    HW182196   9.337   9.486   5.150  0.4886 -0.3703 -0.6000
26136SOL    HW282197   9.211   9.476   5.068 -0.5657  2.9318  0.4713
26137SOL     OW82198   8.640   7.379   5.353  0.4533 -0.0106 -0.3974
26137SOL    HW182199   8.647   7.461   5.401  0.2385  0.3552 -0.9780
26137SOL    HW282200   8.704   7.321   5.394  1.4384  0.8134 -0.7265
26138SOL     OW82201   9.891   4.689   3.473 -0.5472  0.1029  0.0734
26138SOL    HW182202   9.954   4.760   3.474 -0.6667  0.2109  0.6917
26138SOL    HW282203   9.820   4.718   3.531 -1.0510 -0.1156 -0.4185
26139SOL     OW82204   6.984   5.387   2.569 -0.2128 -0.2178  0.3337
26139SOL    HW182205   6.948   5.315   2.515  1.6691  0.1761 -1.5877
26139SOL    HW282206   7.054   5.346   2.620 -1.9860 -0.5874  2.6494
26140SOL     OW82207   5.002   7.801   8.734  0.2757 -0.0045 -0.3211
26140SOL    HW182208   5.098   7.809   8.738  0.1527  1.4427  0.3517
26140SOL    HW282209   4.985   7.708   8.753  1.5201 -0.2190 -0.1631
26141SOL     OW82210   2.868  10.112   9.868 -0.1390 -0.2177 -0.3521
26141SOL    HW182211   2.906  10.045   9.811  0.6868 -0.3003  0.2730
26141SOL    HW282212   2.903  10.092   9.955 -0.3483  0.6805 -0.0487
26142SOL     OW82213   3.014   4.703   6.104  0.2910  0.1322 -0.1004
26142SOL    HW182214   2.951   4.641   6.141  0.2712  0.6339  0.7173
26142SOL    HW282215   3.083   4.648   6.067  0.4058 -0.3784  0.8563
26143SOL     OW82216   4.576   5.889   1.366  0.4140  0.0399  0.1141
26143SOL    HW182217   4.491   5.847   1.366 -0.4072  1.6223  0.6778
26143SOL    HW282218   4.569   5.959   1.432  1.7952  0.8655 -0.5497
26144SOL     OW82219   0.404  10.287   9.206  0.0062  0.0587  0.1230
26144SOL    HW182220   0.426  10.376   9.178 -1.5676  0.3550 -0.2251
26144SOL    HW282221   0.405  10.291   9.301 -0.8605  0.6601  0.1121
26145SOL     OW82222   4.423   8.924   8.610  0.0993  0.0691 -0.2815
26145SOL    HW182223   4.384   8.862   8.672  1.3795 -0.9007 -0.4103
26145SOL    HW282224   4.485   8.872   8.559  0.1656  1.1671 -1.3765
26146SOL     OW82225   8.007   9.209   9.884 -0.1296 -0.3668  0.0830
26146SOL    HW182226   8.018   9.229   9.791 -2.6426 -2.6719 -0.8671
26146SOL    HW282227   7.916   9.232   9.903 -0.4344 -2.2296  1.2097
26147SOL     OW82228   4.012   2.428   1.676  0.1129 -0.3474 -0.3024
26147SOL    HW182229   3.963   2.346   1.672  1.2778 -1.0640 -0.1846
26147SOL    HW282230   3.954   2.488   1.724 -0.2376 -1.4775  0.7216
26148SOL     OW82231   7.300   6.278   4.174 -0.2127  0.0493 -0.4927
26148SOL    HW182232   7.244   6.220   4.226  1.0960 -0.3535  0.5255
26148SOL    HW282233   7.272   6.264   4.084 -1.0863 -0.8768 -0.0975
26149SOL     OW82234   7.843   7.703   7.696  0.2971  0.0835 -0.5787
26149SOL    HW182235   7.833   7.797   7.705 -0.9354 -0.1269  0.6526
26149SOL    HW282236   7.771   7.666   7.748  2.1479 -1.5623  1.0147
26150SOL     OW82237   8.963   7.507   5.987  0.3464  0.2959 -0.2577
26150SOL    HW182238   8.931   7.418   5.976  0.3217  0.3301 -0.4644
26150SOL    HW282239   8.898   7.550   6.043  0.2175  0.2629 -0.3830
26151SOL     OW82240   4.749   2.793   6.944  0.3909  0.0645  0.1347
26151SOL    HW182241   4.771   2.884   6.967 -1.2791  0.6477 -0.4169
26151SOL    HW282242   4.702   2.800   6.861  0.0912 -1.2961  0.1685
26152SOL     OW82243   7.625   2.503   6.889  0.3105  0.1445  0.0779
26152SOL    HW182244   7.588   2.434   6.834  0.3587  0.5767 -0.5116
26152SOL    HW282245   7.666   2.457   6.962  0.9043 -0.4928 -0.6414
26153SOL     OW82246   5.597   7.273   2.252 -1.3123  0.0245 -0.1623
26153SOL    HW182247   5.617   7.244   2.341  2.1412 -0.0853 -0.8233
26153SOL    HW282248   5.590   7.368   2.258 -0.0682  0.1200  0.1408
26154SOL     OW82249  10.117   7.019   6.022 -0.3317 -0.2427  0.0628
26154SOL    HW182250  10.091   7.111   6.031 -0.1119 -0.2101  0.3526
26154SOL    HW282251  10.207   7.023   5.988  0.0771 -0.3397  1.0995
26155SOL     OW82252   7.168   6.393   5.951 -0.1768  0.8676  0.0671
26155SOL    HW182253   7.238   6.341   5.992 -1.8576 -1.0810  0.6141
26155SOL    HW282254   7.178   6.377   5.857 -0.6927 -0.5509  0.2292
26156SOL     OW82255   7.237   5.571   5.824  0.1077  0.1702  0.5188
26156SOL    HW182256   7.322   5.594   5.860  1.2225 -0.9799 -1.2605
26156SOL    HW282257   7.189   5.533   5.898  1.2033  0.5924  1.4731
26157SOL     OW82258   7.748   3.185   5.268  0.2094  0.3616  0.6042
26157SOL    HW182259   7.801   3.155   5.194  0.4622  0.6687  0.6586
26157SOL    HW282260   7.685   3.246   5.230 -0.8160 -0.7950  0.3679
26158SOL     OW82261   7.690   7.703   5.011 -0.2055 -0.7897  0.1775
26158SOL    HW182262   7.624   7.684   5.078  2.3667 -0.7632  2.9430
26158SOL    HW282263   7.747   7.626   5.011  1.8773  0.6630  0.7076
26159SOL     OW82264   2.548   6.165   1.346 -0.1299  0.2986  0.3016
26159SOL    HW182265   2.547   6.121   1.261  1.6717 -2.3324  1.4793
26159SOL    HW282266   2.605   6.241   1.332 -0.3518  0.2588 -0.9778
26160SOL     OW82267   6.142   7.864   8.612  0.2631  0.4657  0.7325
26160SOL    HW182268   6.175   7.888   8.699 -0.0284  2.7406  0.2710
26160SOL    HW282269   6.066   7.808   8.630  1.7484 -1.3314  1.8549
26161SOL     OW82270   9.749   6.142   9.682 -0.1372 -0.1253 -0.0118
26161SOL    HW182271   9.809   6.113   9.751  0.9027 -0.4394 -1.0387
26161SOL    HW282272   9.796   6.211   9.635 -1.1783  0.7010  0.1039
26162SOL     OW82273   8.568   9.517   7.058  0.1037  0.7643 -0.3129
26162SOL    HW182274   8.477   9.488   7.060  0.4906 -0.5283 -0.7310
26162SOL    HW282275   8.563   9.612   7.051 -1.2290  0.6061 -1.9133
26163SOL     OW82276   7.056   2.390   6.053 -0.0867  0.0297  0.4850
26163SOL    HW182277   6.975   2.341   6.067  0.6177 -1.1037  0.7795
26163SOL    HW282278   7.091   2.405   6.141 -0.2630  1.0131  0.3888
26164SOL     OW82279   7.964   8.298   4.883  0.2912 -0.5249 -0.4656
26164SOL    HW182280   7.878   8.285   4.845 -0.0720  1.4787 -0.4242
26164SOL    HW282281   7.971   8.230   4.951 -0.8176 -1.3444 -1.1496
26165SOL     OW82282   5.166   9.574   9.220 -0.1613  0.4981  0.3798
26165SOL    HW182283   5.212   9.493   9.200  0.7964  0.9973  0.5122
26165SOL    HW282284   5.192   9.596   9.309 -0.1710  1.1024  0.2434
26166SOL     OW82285   0.006   2.041   8.882  0.0650 -0.0262  0.3954
26166SOL    HW182286   0.002   2.114   8.944 -1.2602 -1.7288  2.4799
26166SOL    HW282287   0.061   1.976   8.926 -0.3951 -1.0497 -0.5068
26167SOL     OW82288   2.587   5.434  10.178  0.1558 -0.2099  0.1304
26167SOL    HW182289   2.619   5.490  10.107 -0.0893  0.8098  0.8011
26167SOL    HW282290   2.663   5.424  10.236 -0.0432  0.1387  0.4498
26168SOL     OW82291   8.141   4.709   1.452  0.1728  0.6830 -0.3488
26168SOL    HW182292   8.177   4.737   1.367  0.2219  1.0660 -0.2040
26168SOL    HW282293   8.074   4.645   1.430  0.9438 -0.0498 -0.6314
26169SOL     OW82294   9.655   8.365   0.483  0.0102 -0.3551 -0.3442
26169SOL    HW182295   9.631   8.411   0.402  0.4068  1.0369  0.2940
26169SOL    HW282296   9.689   8.281   0.453  0.4878  0.2667 -1.6530
26170SOL     OW82297   8.445   9.631   4.384 -0.1669 -0.5767 -0.4950
26170SOL    HW182298   8.425   9.556   4.326  0.2209  0.2375 -1.7241
26170SOL    HW282299   8.518   9.675   4.341 -0.5206  0.6279  0.1150
26171SOL     OW82300  10.190   0.981   5.189  0.4005 -0.7816  0.0144
26171SOL    HW182301  10.248   1.051   5.221  0.0737 -0.2525 -0.5211
26171SOL    HW282302  10.224   0.959   5.103 -0.3587 -0.2501 -0.4376
26172SOL     OW82303   1.646   7.309   4.574  0.1961 -0.2023  0.2490
26172SOL    HW182304   1.617   7.397   4.550 -2.8442 -0.8999  0.9477
26172SOL    HW282305   1.644   7.260   4.493  0.1913 -0.0612  0.1638
26173SOL     OW82306   6.871   3.088   4.524 -0.1695  0.2072  0.0925
26173SOL    HW182307   6.815   3.103   4.448  1.0500 -1.8033 -1.3083
26173SOL    HW282308   6.852   2.997   4.550  0.9548  0.1750  0.8859
26174SOL     OW82309   8.027   0.602   5.461  0.3862  0.6161 -0.0639
26174SOL    HW182310   8.116   0.582   5.493 -0.0429  0.4514  1.0782
26174SOL    HW282311   7.973   0.532   5.498 -0.5530  1.8608  1.0020
26175SOL     OW82312   0.469   3.998   6.407  0.4495 -0.3785  0.1241
26175SOL    HW182313   0.417   4.063   6.361 -2.2716 -3.1986 -1.0899
26175SOL    HW282314   0.441   4.004   6.498  1.0647  0.8328  0.2525
26176SOL     OW82315   9.826   3.548   0.379  0.6566 -0.6526 -0.0222
26176SOL    HW182316   9.772   3.488   0.431 -2.0115  1.9178  0.4883
26176SOL    HW282317   9.895   3.576   0.439  0.9347 -1.9025  0.2632
26177SOL     OW82318   5.467   6.812   9.288  0.2587  0.1256 -0.4228
26177SOL    HW182319   5.480   6.857   9.204 -1.9664  0.0301 -0.8794
26177SOL    HW282320   5.385   6.764   9.277  1.1691 -1.8906  1.0005
26178SOL     OW82321   9.141  10.336   4.224 -0.4032  0.2347 -0.8686
26178SOL    HW182322   9.074  10.316   4.289 -0.8547 -0.3399 -1.5012
26178SOL    HW282323   9.156  10.430   4.234  0.6002 -0.0660  1.0548
26179SOL     OW82324   3.703   3.081   1.717 -0.1657  0.1398 -0.4060
26179SOL    HW182325   3.680   3.145   1.649  0.4276 -0.5304 -1.2591
26179SOL    HW282326   3.771   3.124   1.768 -0.2546  0.4538 -0.5473
26180SOL     OW82327   4.315   5.206   9.754 -0.5564 -0.5974  0.1006
26180SOL    HW182328   4.362   5.289   9.751 -0.3471 -0.6737  1.0393
26180SOL    HW282329   4.383   5.141   9.771 -0.5781 -1.0992 -1.5495
26181SOL     OW82330   0.019   4.915   6.704  0.0051 -0.1416 -0.6601
26181SOL    HW182331   0.037   4.967   6.783  0.8015  1.2429 -1.7182
26181SOL    HW282332   0.073   4.837   6.715  2.4598  1.3619 -1.1308
26182SOL     OW82333   5.681   0.983   3.633  0.2795  0.4985  0.2366
26182SOL    HW182334   5.614   1.013   3.694  1.3103 -0.2470  1.8085
26182SOL    HW282335   5.742   1.057   3.628 -0.7692  1.3084 -1.4558
26183SOL     OW82336   7.592   2.057   4.483 -0.6847 -0.6346 -0.2199
26183SOL    HW182337   7.519   2.112   4.455  0.3070  1.2248  0.6646
26183SOL    HW282338   7.633   2.106   4.554  1.2825 -1.7531 -0.5136
26184SOL     OW82339   6.431   6.264   9.013 -0.3458  1.0908 -0.1934
26184SOL    HW182340   6.343   6.294   9.033  0.0732  2.0499  0.2645
26184SOL    HW282341   6.454   6.309   8.932 -0.2076  0.9839 -0.2151
26185SOL     OW82342   9.249   6.586   4.887 -0.1812  0.3270  0.2141
26185SOL    HW182343   9.291   6.502   4.904  1.7964  1.0427 -0.8258
26185SOL    HW282344   9.155   6.566   4.882  0.2297 -1.7739  0.1505
26186SOL     OW82345   2.434   5.646   9.432 -1.0221 -0.8245  1.2580
26186SOL    HW182346   2.478   5.604   9.506  1.2834 -0.6960  0.0519
26186SOL    HW282347   2.366   5.584   9.405 -0.6721 -1.6884  2.3150
26187SOL     OW82348   3.740   6.128   0.200 -0.8199 -0.4543 -0.1016
26187SOL    HW182349   3.696   6.123   0.115 -1.0821  1.5733 -0.1214
26187SOL    HW282350   3.678   6.174   0.256 -0.0730 -0.5290  0.8044
26188SOL     OW82351   6.240   8.974  10.317 -0.1005 -0.2858  0.1163
26188SOL    HW182352   6.328   9.000  10.292 -0.5359  0.2333 -0.9068
26188SOL    HW282353   6.212   8.912  10.250 -0.9125  0.3658 -0.1588
26189SOL     OW82354   1.933   9.273   7.349  0.2840  0.4650 -0.0454
26189SOL    HW182355   1.919   9.179   7.361  1.3996  0.2918  0.0189
26189SOL    HW282356   1.982   9.280   7.268  1.6614  0.8404  0.7847
26190SOL     OW82357   5.679   3.832   8.548 -0.1451 -0.0222  0.1076
26190SOL    HW182358   5.663   3.923   8.574  1.8939  0.6755 -0.8817
26190SOL    HW282359   5.640   3.779   8.618  1.1877  1.6599  2.2128
26191SOL     OW82360   7.919   7.081   3.997  0.0123  0.5105  1.1009
26191SOL    HW182361   7.982   7.034   3.943  1.2680  3.3434 -0.0979
26191SOL    HW282362   7.840   7.086   3.944  0.4623  1.2562  0.4949
26192SOL     OW82363  10.293   6.308   2.995  0.2468  0.2814 -0.3659
26192SOL    HW182364  10.296   6.221   3.036  0.8786 -0.4540 -1.8936
26192SOL    HW282365  10.380   6.344   3.009 -0.3346  1.1631  1.2146
26193SOL     OW82366   6.663   4.271   3.231 -0.3147 -0.6322  0.2299
26193SOL    HW182367   6.755   4.267   3.256  0.0675 -0.0011 -0.9947
26193SOL    HW282368   6.661   4.329   3.155 -2.0817  1.8315  1.9622
26194SOL     OW82369   0.874   3.967   8.596 -0.0782 -0.4041  0.6442
26194SOL    HW182370   0.844   4.045   8.550 -0.0373 -0.2538  0.8698
26194SOL    HW282371   0.825   3.966   8.678  0.4903 -0.1827  0.9941
26195SOL     OW82372   5.498   6.492   8.144 -0.0398 -0.0282  0.1636
26195SOL    HW182373   5.429   6.427   8.163  1.2561 -1.6717 -0.4760
26195SOL    HW282374   5.495   6.552   8.218 -0.8103 -1.2583  1.1845
26196SOL     OW82375   3.021   9.738   7.981 -0.1767  0.3940 -0.4294
26196SOL    HW182376   2.928   9.718   7.988 -0.2987  0.8357 -0.7959
26196SOL    HW282377   3.046   9.765   8.069 -0.2452 -0.3387 -0.1751
26197SOL     OW82378   3.701  10.054   2.036 -0.3166  0.2021 -0.0379
26197SOL    HW182379   3.787  10.093   2.052 -1.0452  2.4421 -1.1626
26197SOL    HW282380   3.718   9.960   2.031  1.9716  0.5384  0.2906
26198SOL     OW82381   7.712   1.006   1.616  0.2663 -0.4756 -0.1903
26198SOL    HW182382   7.803   0.984   1.638  0.0632 -0.2910  0.9225
26198SOL    HW282383   7.718   1.095   1.581  0.5622 -0.6228 -0.5210
26199SOL     OW82384   2.311   0.790   9.669 -0.6794 -0.2640  0.4236
26199SOL    HW182385   2.275   0.876   9.650 -1.4497 -0.5195  0.6816
26199SOL    HW282386   2.405   0.804   9.679 -0.5437  0.2339 -1.3581
26200SOL     OW82387   0.572   7.187   2.205 -0.3400  0.3368  0.3239
26200SOL    HW182388   0.649   7.198   2.149 -0.4769  0.2894  0.1254
26200SOL    HW282389   0.509   7.251   2.173 -0.6751 -0.1566 -0.0271
26201SOL     OW82390   3.974   2.944   3.151 -0.4972  0.3372  0.5634
26201SOL    HW182391   4.013   3.008   3.210 -1.3870  1.9285 -0.5120
26201SOL    HW282392   4.049   2.897   3.114  0.1019 -0.3235  2.4630
26202SOL     OW82393  10.182   9.806   0.582 -0.1879 -0.1467  0.0183
26202SOL    HW182394  10.146   9.870   0.520 -1.5385 -0.2687  0.6319
26202SOL    HW282395  10.223   9.860   0.649 -2.9779  0.2734  1.5544
26203SOL     OW82396   9.932  10.209   1.832 -0.2014 -0.4350  0.2871
26203SOL    HW182397   9.838  10.200   1.818 -0.1488  1.0565 -1.4057
26203SOL    HW282398   9.945  10.302   1.851  1.1449 -0.1015 -1.8898
26204SOL     OW82399   2.265   3.861   2.565 -0.0584 -0.2029  0.2820
26204SOL    HW182400   2.204   3.894   2.499 -0.4400 -0.7685  0.3465
26204SOL    HW282401   2.351   3.878   2.528 -0.2571  0.3632  0.0701
26205SOL     OW82402   0.452  10.228   2.611 -0.2346  0.4577 -0.2103
26205SOL    HW182403   0.541  10.243   2.642 -0.5646  0.9647  0.4972
26205SOL    HW282404   0.397  10.239   2.688 -1.0906  1.9676 -0.9880
26206SOL     OW82405   2.378   8.150   6.531  0.3200  0.3572  0.1588
26206SOL    HW182406   2.358   8.216   6.464  1.9307 -0.7547 -1.5023
26206SOL    HW282407   2.456   8.106   6.498  1.1776 -0.2433  2.8243
26207SOL     OW82408   8.085   6.813   2.081 -0.3878 -0.2351  0.4593
26207SOL    HW182409   8.029   6.736   2.070 -1.4481  0.5804 -0.0231
26207SOL    HW282410   8.119   6.831   1.994 -1.1273  0.5535  0.3182
26208SOL     OW82411   3.665   2.962   8.352 -0.0425  0.4366 -0.2863
26208SOL    HW182412   3.700   2.935   8.437  0.1921  0.5805 -0.3361
26208SOL    HW282413   3.723   3.033   8.324 -0.0949  0.3627 -0.5856
26209SOL     OW82414   4.043   1.020   2.191 -0.3062 -0.5718  0.1914
26209SOL    HW182415   4.031   1.087   2.259 -2.1851 -0.2856 -0.3415
26209SOL    HW282416   4.113   1.054   2.136 -1.7965  1.4603 -0.5777
26210SOL     OW82417   5.277   3.372   5.204  0.3656  0.5610 -0.0153
26210SOL    HW182418   5.182   3.373   5.209  0.3673 -0.5341  0.4535
26210SOL    HW282419   5.296   3.396   5.113 -0.4084 -0.6170 -0.4996
26211SOL     OW82420   2.279   0.371   5.961  0.1470 -0.0446 -0.1543
26211SOL    HW182421   2.240   0.292   5.999  0.4881 -0.0996  0.0881
26211SOL    HW282422   2.259   0.440   6.025  1.9319 -0.4054  0.8494
26212SOL     OW82423   3.578   5.104   5.439  0.0760  0.2724  0.4041
26212SOL    HW182424   3.631   5.173   5.401  2.0062 -0.4445  1.6565
26212SOL    HW282425   3.507   5.091   5.376  0.8876  1.8550 -0.9141
26213SOL     OW82426   1.660   0.725   6.659 -0.1807  0.1496  0.8943
26213SOL    HW182427   1.755   0.720   6.670 -0.0639  0.6267  0.1666
26213SOL    HW282428   1.645   0.805   6.609 -0.8939 -0.3726  0.2324
26214SOL     OW82429   2.269   4.544   6.616 -0.5147  0.5798 -0.1926
26214SOL    HW182430   2.186   4.557   6.570 -0.5628  0.7802 -0.0492
26214SOL    HW282431   2.255   4.584   6.702 -0.1720  0.8790 -0.2738
26215SOL     OW82432   8.664   7.481   3.404  0.7239 -0.6694 -0.6546
26215SOL    HW182433   8.735   7.467   3.468  0.2929  0.4945  0.1067
26215SOL    HW282434   8.588   7.440   3.445  0.7789 -1.2772 -1.1444
26216SOL     OW82435   8.516   0.487   1.509  0.1442 -0.3381 -0.3454
26216SOL    HW182436   8.502   0.539   1.588  1.0550 -0.3951 -0.1381
26216SOL    HW282437   8.428   0.462   1.480 -0.1924 -0.2925  0.6264
26217SOL     OW82438   1.054   5.386   5.446 -0.2523  0.3855 -0.1103
26217SOL    HW182439   1.104   5.446   5.501 -0.2166  0.1559  0.1101
26217SOL    HW282440   1.107   5.307   5.441 -1.2080 -0.4035  1.3106
26218SOL     OW82441   3.508   5.276   5.219  0.4293  0.2230  0.1718
26218SOL    HW182442   3.556   5.229   5.150  1.4325  1.4829 -0.0224
26218SOL    HW282443   3.416   5.258   5.201  0.7662 -2.3538  0.6011
26219SOL     OW82444   4.140   0.247   7.632  0.1986 -0.8232 -0.3412
26219SOL    HW182445   4.077   0.209   7.570 -0.5913 -0.4253  0.1897
26219SOL    HW282446   4.089   0.260   7.712  1.1467 -1.1110  0.3189
26220SOL     OW82447   1.274  10.169   5.883  0.4822 -0.1704 -0.1456
26220SOL    HW182448   1.357  10.175   5.836 -0.8185 -0.4343 -2.5859
26220SOL    HW282449   1.294  10.208   5.969  3.1496 -0.3972 -0.5513
26221SOL     OW82450   4.861   4.804   5.000  0.0630 -0.1933  0.1457
26221SOL    HW182451   4.942   4.792   5.050  0.2177  0.4442  0.0615
26221SOL    HW282452   4.799   4.842   5.063  0.4117  1.0885 -0.2507
26222SOL     OW82453   4.003  10.253   4.080  0.0576  0.4512 -0.1476
26222SOL    HW182454   3.998  10.342   4.046 -0.8843  0.2192 -0.6484
26222SOL    HW282455   3.914  10.219   4.071  0.0453 -0.0352  1.4240
26223SOL     OW82456   9.543   2.134   0.786 -0.0640  0.4675 -0.4854
26223SOL    HW182457   9.574   2.213   0.829  0.1968  0.0248  0.1552
26223SOL    HW282458   9.449   2.148   0.774  0.0550  1.0455 -0.7574
26224SOL     OW82459   5.747   5.179   8.121  0.1448  0.4763 -0.5385
26224SOL    HW182460   5.652   5.171   8.133  0.0045  1.5094 -0.8575
26224SOL    HW282461   5.785   5.127   8.191 -0.6476 -1.7450 -1.6834
26225SOL     OW82462   3.596   7.297   1.474  0.1489  0.0664  0.1162
26225SOL    HW182463   3.550   7.254   1.546  0.3933 -2.0827 -0.9253
26225SOL    HW282464   3.563   7.253   1.396  2.4561 -0.1040 -0.8173
26226SOL     OW82465   7.349   5.003   1.842  0.0120  0.0878  0.2894
26226SOL    HW182466   7.283   4.948   1.800 -0.1262  0.1594  0.4097
26226SOL    HW282467   7.310   5.091   1.843  0.8011  0.4905 -1.1718
26227SOL     OW82468   3.626   5.970   7.335  0.1722 -0.1726 -0.6056
26227SOL    HW182469   3.619   5.897   7.273 -2.1272 -1.3557  0.9170
26227SOL    HW282470   3.663   6.042   7.283  0.8264 -1.8718 -2.6300
26228SOL     OW82471   9.733   8.336   1.429 -0.3437 -0.5492  0.1417
26228SOL    HW182472   9.704   8.245   1.423 -1.3013 -0.2772  0.5459
26228SOL    HW282473   9.700   8.366   1.514  1.4435 -0.3357  0.8008
26229SOL     OW82474   1.760   4.128   3.255  0.0666 -0.0720  0.4714
26229SOL    HW182475   1.698   4.084   3.313  2.6174 -3.6995  0.7593
26229SOL    HW282476   1.742   4.090   3.168 -0.2403  1.3526 -0.1121
26230SOL     OW82477   4.785   7.868   4.177  0.2373  0.2788 -0.6499
26230SOL    HW182478   4.800   7.807   4.105 -0.7427 -2.0772  1.0056
26230SOL    HW282479   4.824   7.826   4.253 -0.6783  1.6099  0.6292
26231SOL     OW82480   6.161   4.174   9.066  0.5336 -0.2684 -0.1220
26231SOL    HW182481   6.250   4.209   9.067 -0.9668  4.2304  1.2284
26231SOL    HW282482   6.131   4.185   9.157 -2.3142  1.4525 -1.1467
26232SOL     OW82483   9.434   2.652   1.038 -0.2645 -0.5900  0.3515
26232SOL    HW182484   9.397   2.685   1.120 -0.2886 -0.3904  0.2607
26232SOL    HW282485   9.361   2.607   0.995  0.1046 -1.9836  1.1123
26233SOL     OW82486   5.786   7.273   1.809 -0.5067 -0.1345  0.0918
26233SOL    HW182487   5.764   7.234   1.893 -1.7401  1.6836  0.6805
26233SOL    HW282488   5.869   7.319   1.824 -0.6371  0.0407  0.2812
26234SOL     OW82489   3.687   9.628   8.279  0.0304 -0.0968  0.0124
26234SOL    HW182490   3.783   9.628   8.282  0.1803 -0.8631 -2.4786
26234SOL    HW282491   3.663   9.538   8.300 -0.1463  0.0492  0.4453
26235SOL     OW82492   4.941   3.421   0.207  0.4212 -0.4961  0.2924
26235SOL    HW182493   4.889   3.499   0.228 -1.3196 -1.3198 -0.7893
26235SOL    HW282494   5.002   3.413   0.281  1.7950  2.7836 -0.3340
26236SOL     OW82495   8.629   5.593   6.515 -0.3698 -0.4079  0.2161
26236SOL    HW182496   8.702   5.569   6.573  0.6140 -0.1646 -0.8860
26236SOL    HW282497   8.602   5.680   6.545  0.3322 -0.1521  0.1266
26237SOL     OW82498   6.086   6.485  10.328  0.4262 -0.7178 -0.5388
26237SOL    HW182499   6.102   6.452  10.239  0.4037 -1.9462 -0.1079
26237SOL    HW282500   6.158   6.451  10.380  0.0570 -0.5986  0.0611
26238SOL     OW82501   8.308   2.249   4.331  0.1301  0.6440  0.6751
26238SOL    HW182502   8.320   2.292   4.247 -0.7045 -1.6490 -0.6928
26238SOL    HW282503   8.241   2.302   4.375  0.7800  2.0255  0.0654
26239SOL     OW82504   3.184   3.108   6.970  0.4885 -0.5696 -0.1746
26239SOL    HW182505   3.202   3.197   7.000  1.4015 -0.6099 -0.5555
26239SOL    HW282506   3.131   3.070   7.040  0.1958  0.2270  0.0544
26240SOL     OW82507   9.391   3.585   0.585 -0.0367 -0.5831 -0.1779
26240SOL    HW182508   9.310   3.632   0.562  1.2943  1.2326 -1.4035
26240SOL    HW282509   9.419   3.626   0.667 -0.1578 -0.9632  0.0546
26241SOL     OW82510   8.478   5.113   7.161  0.1610  0.4139 -0.0389
26241SOL    HW182511   8.440   5.103   7.074 -0.6926 -0.5046  0.4165
26241SOL    HW282512   8.443   5.039   7.211 -0.1005  1.4158  1.3312
26242SOL     OW82513   1.622   8.947   2.305 -0.1782 -0.5602  0.3740
26242SOL    HW182514   1.544   8.995   2.334  0.3531 -1.0834  2.8822
26242SOL    HW282515   1.602   8.856   2.324  0.6816 -0.8081  0.1207
26243SOL     OW82516   6.488   4.130   9.620 -0.3545 -0.0125 -0.7080
26243SOL    HW182517   6.402   4.102   9.651  0.1915  0.7428  1.7333
26243SOL    HW282518   6.504   4.077   9.542 -1.8336 -2.2077  0.3763
26244SOL     OW82519   6.699   4.726   6.143 -0.3211 -0.6967  0.3861
26244SOL    HW182520   6.609   4.703   6.165 -0.5543 -0.1714  0.0169
26244SOL    HW282521   6.716   4.807   6.192 -0.2201 -0.5275  0.0794
26245SOL     OW82522   8.092  10.173   9.308  0.1913 -0.7427 -0.0408
26245SOL    HW182523   8.040  10.216   9.376 -0.9263 -0.2781 -1.1519
26245SOL    HW282524   8.177  10.216   9.312 -0.1119 -0.1789  0.5379
26246SOL     OW82525   1.990   6.650   2.917  0.6530  0.6314 -0.5175
26246SOL    HW182526   1.903   6.612   2.932  1.1531 -1.6232 -2.6442
26246SOL    HW282527   1.989   6.676   2.825  1.5985  2.5074 -0.0382
26247SOL     OW82528   0.769   9.455   4.880 -0.0835  0.0806  0.0748
26247SOL    HW182529   0.813   9.537   4.860 -0.0275  0.0452  0.0531
26247SOL    HW282530   0.839   9.396   4.908 -0.2854  0.4158  1.3190
26248SOL     OW82531  10.035   2.008   8.143 -0.2628 -0.1332  0.1065
26248SOL    HW182532  10.076   1.964   8.069  1.5056  1.5730  0.0085
26248SOL    HW282533  10.063   1.957   8.220 -1.3560 -1.3618 -0.2648
26249SOL     OW82534   9.166   1.221   8.173 -0.6350 -0.5616  0.2336
26249SOL    HW182535   9.202   1.262   8.251  0.4367 -1.4707  0.2468
26249SOL    HW282536   9.095   1.278   8.146 -0.7920 -0.0459  1.6666
26250SOL     OW82537   4.419   6.263   5.910  0.3622 -0.0472 -0.5103
26250SOL    HW182538   4.334   6.219   5.906 -0.7424  2.0148 -2.0551
26250SOL    HW282539   4.475   6.212   5.851 -0.2416 -0.5972 -0.6226
26251SOL     OW82540   9.496   7.171   3.341 -0.5812 -0.0065  0.4036
26251SOL    HW182541   9.423   7.171   3.278  0.2604  2.7231 -0.6993
26251SOL    HW282542   9.470   7.234   3.408 -0.3355 -1.0063  1.4712
26252SOL     OW82543   9.090   6.102   0.307 -0.0651  0.2372 -0.0316
26252SOL    HW182544   9.096   6.007   0.313 -1.5736 -0.0807 -2.3715
26252SOL    HW282545   9.007   6.124   0.350 -0.5763  0.2667 -1.0040
26253SOL     OW82546   0.042   9.731   0.423  0.3037  0.0712  0.2443
26253SOL    HW182547  -0.015   9.695   0.355  0.7237 -2.5120  1.1384
26253SOL    HW282548  -0.014   9.738   0.500  1.0643 -2.3940  1.1023
26254SOL     OW82549   9.544   4.962   2.738 -0.4276 -0.2883  0.5460
26254SOL    HW182550   9.502   4.894   2.792 -4.5225  2.1250  0.8121
26254SOL    HW282551   9.613   4.998   2.794 -1.0421 -1.3515  2.0643
26255SOL     OW82552   5.594   8.363   4.417  0.7218  0.0996 -0.2247
26255SOL    HW182553   5.519   8.422   4.426  0.2287 -0.6874  1.1400
26255SOL    HW282554   5.617   8.340   4.507  1.5634 -0.9599 -0.6876
26256SOL     OW82555   8.428   1.718   0.844 -0.0339 -0.0489 -0.6639
26256SOL    HW182556   8.360   1.774   0.807 -0.7711 -0.3659  0.1977
26256SOL    HW282557   8.422   1.732   0.938  0.4388 -0.8373 -0.5122
26257SOL     OW82558   3.616   4.905   8.383 -0.0405 -0.5352  0.1658
26257SOL    HW182559   3.525   4.875   8.380 -0.6257  1.1789 -0.1588
26257SOL    HW282560   3.658   4.863   8.308 -0.3350 -1.9638  0.7639
26258SOL     OW82561   3.010   1.740   6.805  0.3787  0.4915  0.0519
26258SOL    HW182562   3.103   1.764   6.801  0.7370 -0.1369  2.5120
26258SOL    HW282563   3.010   1.645   6.796 -0.1883  0.6102 -1.3198
26259SOL     OW82564   4.075   8.598  10.258 -0.1823 -0.1600  0.2614
26259SOL    HW182565   4.072   8.694  10.259 -0.1486 -0.1084  3.3038
26259SOL    HW282566   3.983   8.572  10.251 -0.3667  0.1433  1.4169
26260SOL     OW82567   6.908   5.404   1.826 -0.4855 -0.1168  0.2113
26260SOL    HW182568   6.917   5.499   1.827  0.4576 -0.1939 -0.3835
26260SOL    HW282569   6.957   5.376   1.748  0.1395 -1.1774  0.9707
26261SOL     OW82570   0.851   7.060   4.769  0.5677 -0.5440  0.2732
26261SOL    HW182571   0.826   7.144   4.807  0.9100 -0.5061  0.4184
26261SOL    HW282572   0.775   7.033   4.717  1.3576  1.0482 -1.8537
26262SOL     OW82573   7.096   5.596   5.076  0.3593 -0.6782  0.0535
26262SOL    HW182574   7.171   5.649   5.048  1.4916 -2.4886 -0.5498
26262SOL    HW282575   7.134   5.511   5.099 -1.2851 -1.0270  1.6858
26263SOL     OW82576   5.291   0.438   6.835  0.8183 -0.5145 -0.3660
26263SOL    HW182577   5.273   0.409   6.746 -0.4893  0.0063 -0.2987
26263SOL    HW282578   5.377   0.480   6.830 -0.2543  1.7170 -1.9654
26264SOL     OW82579   2.869   8.701   9.264  0.2409 -0.1842 -0.1152
26264SOL    HW182580   2.887   8.609   9.245 -0.1477 -0.5195  1.0408
26264SOL    HW282581   2.933   8.724   9.331  0.1987  0.3196 -0.2491
26265SOL     OW82582   4.118   3.088   3.360  0.3832  0.1783 -0.1171
26265SOL    HW182583   4.186   3.143   3.320 -0.5057 -0.0120 -1.9770
26265SOL    HW282584   4.166   3.013   3.395  1.3772  1.1415  0.6507
26266SOL     OW82585   8.143   1.864   1.334  0.2451 -0.0368  0.1208
26266SOL    HW182586   8.235   1.841   1.322  0.1552 -0.6139  0.4984
26266SOL    HW282587   8.145   1.948   1.378  0.5962 -0.1548  0.3335
26267SOL     OW82588   6.071   0.008   2.287 -0.5029  0.8681 -0.2069
26267SOL    HW182589   6.146  -0.019   2.341 -0.7635 -0.1462 -0.3436
26267SOL    HW282590   6.110   0.028   2.201 -0.6828 -2.6619 -1.2702
26268SOL     OW82591   7.736   0.083   5.838  0.3216 -0.5402 -0.3444
26268SOL    HW182592   7.804   0.105   5.774 -2.1902 -0.1291 -3.1089
26268SOL    HW282593   7.657   0.126   5.805 -1.2176 -0.4590  3.0242
26269SOL     OW82594   0.262   4.725   2.625  0.7845 -0.0474 -0.0302
26269SOL    HW182595   0.216   4.804   2.655  1.0243 -0.3329  1.1398
26269SOL    HW282596   0.349   4.731   2.664  2.0223  0.7414 -2.6291
26270SOL     OW82597   1.104   7.780   3.777 -0.4642  0.0325 -0.1518
26270SOL    HW182598   1.010   7.799   3.769 -0.8450 -0.3876  2.5923
26270SOL    HW282599   1.144   7.866   3.787 -0.7766  0.1229  0.3720
26271SOL     OW82600   2.963   2.795   8.643  0.6121  0.0451  0.0128
26271SOL    HW182601   3.046   2.788   8.691  0.9348  1.2013 -0.3424
26271SOL    HW282602   2.987   2.773   8.552  0.2498 -0.9171  0.1359
26272SOL     OW82603   6.799   5.150   1.822 -0.3743  0.2875 -0.6110
26272SOL    HW182604   6.740   5.123   1.893  1.2016  0.0636  0.6719
26272SOL    HW282605   6.798   5.245   1.826 -1.2360  0.3093 -1.1172
26273SOL     OW82606   1.913   6.583   7.028 -0.2140  0.1911 -0.1345
26273SOL    HW182607   1.970   6.576   6.952  0.2212  0.6566  0.1410
26273SOL    HW282608   1.885   6.674   7.028  0.9239  0.5717  1.0500
26274SOL     OW82609   7.157   2.738   5.730  0.3583 -0.2989 -0.4378
26274SOL    HW182610   7.245   2.700   5.722 -0.4499 -2.8372  1.4384
26274SOL    HW282611   7.125   2.708   5.815 -1.8365  1.7269 -0.4327
26275SOL     OW82612   9.818   2.058   5.539  0.2202  0.1443 -0.1141
26275SOL    HW182613   9.788   2.016   5.459  1.0790  0.0059 -0.3725
26275SOL    HW282614   9.745   2.047   5.601 -0.4795  0.3146 -0.8866
26276SOL     OW82615   4.065   0.619   5.457 -0.3637  0.2620  0.3538
26276SOL    HW182616   4.083   0.614   5.551 -0.3774 -1.4391  0.3059
26276SOL    HW282617   4.146   0.652   5.419  0.2347 -0.6052  0.8318
26277SOL     OW82618   9.609   4.180   6.975  0.3265 -0.5417 -0.0556
26277SOL    HW182619   9.553   4.187   7.052  0.4808  0.1007  0.0032
26277SOL    HW282620   9.620   4.270   6.945  3.4470 -0.2845  1.4483
26278SOL     OW82621   6.471   5.202   8.552  0.0310  0.3174 -0.0993
26278SOL    HW182622   6.522   5.183   8.631  0.3831 -0.1764 -0.4413
26278SOL    HW282623   6.532   5.246   8.494 -0.3729  1.1549  0.1002
26279SOL     OW82624   5.477   1.267   2.409 -0.4619  0.4721 -0.0538
26279SOL    HW182625   5.453   1.236   2.322  0.5046  0.6058 -0.3855
26279SOL    HW282626   5.394   1.292   2.450 -1.0622 -0.8154 -0.4482
26280SOL     OW82627   4.311   1.221   0.865 -0.4798  0.1680  0.0756
26280SOL    HW182628   4.371   1.148   0.881 -1.2689 -0.7193 -0.8784
26280SOL    HW282629   4.324   1.244   0.773 -1.0581  0.4749  0.0624
26281SOL     OW82630   3.130   2.878   0.952  0.3119  0.2098  0.3968
26281SOL    HW182631   3.122   2.878   0.857  1.2309  0.3894  0.3111
26281SOL    HW282632   3.139   2.971   0.975 -1.3043  0.3028  0.8051
26282SOL     OW82633   8.570   4.199   1.574 -0.4993  0.0445 -0.3212
26282SOL    HW182634   8.605   4.258   1.508 -1.3503  0.9867  0.0469
26282SOL    HW282635   8.641   4.187   1.637  0.5055 -1.2840 -1.6404
26283SOL     OW82636   7.047   3.141   7.108 -0.1448  0.3936 -0.3875
26283SOL    HW182637   6.960   3.123   7.073  0.1174  0.3705 -1.0380
26283SOL    HW282638   7.071   3.225   7.070  0.8181 -0.3949 -1.5794
26284SOL     OW82639   8.668   5.846   7.673  0.1316 -0.4034  0.4671
26284SOL    HW182640   8.617   5.911   7.625  0.4142 -0.1059  0.5706
26284SOL    HW282641   8.696   5.890   7.753  0.5612 -0.5583  0.4065
26285SOL     OW82642   5.856   9.288   4.075  0.2295 -0.4108  0.1028
26285SOL    HW182643   5.817   9.265   4.159  0.8355  2.4060  1.2683
26285SOL    HW282644   5.821   9.223   4.014 -0.7363 -2.1723  2.3734
26286SOL     OW82645   6.412   5.998   9.033 -0.4012  0.0131  0.0578
26286SOL    HW182646   6.357   6.006   8.955 -0.7005 -1.5971  0.0720
26286SOL    HW282647   6.445   6.086   9.048  0.4244  0.2060 -2.4278
26287SOL     OW82648   9.817   5.193   4.743  0.4582 -0.2274 -0.2935
26287SOL    HW182649   9.827   5.217   4.835  2.4076  0.5933 -0.6583
26287SOL    HW282650   9.730   5.153   4.737  0.1777 -0.0299  1.8283
26288SOL     OW82651   9.640   9.592   7.626 -0.2234 -0.6560  0.5507
26288SOL    HW182652   9.604   9.503   7.618  1.7002 -1.4182 -0.0119
26288SOL    HW282653   9.716   9.583   7.683 -0.4416  0.7857  1.1148
26289SOL     OW82654   5.601   5.198   5.535 -0.3728 -0.3974  0.0151
26289SOL    HW182655   5.565   5.116   5.568 -0.6664 -0.6412 -0.8752
26289SOL    HW282656   5.593   5.191   5.440 -2.0380  1.3922 -0.0325
26290SOL     OW82657   6.507   4.167   1.138 -0.1953 -0.1282  0.2624
26290SOL    HW182658   6.440   4.235   1.128 -1.7004 -1.4428  1.0402
26290SOL    HW282659   6.468   4.102   1.195  1.4250 -1.4033  0.0160
26291SOL     OW82660   3.397   2.372   2.418  0.3014 -0.0205  0.6450
26291SOL    HW182661   3.307   2.401   2.402  0.6544  2.1323  2.1416
26291SOL    HW282662   3.391   2.315   2.494  0.2128  0.2556  0.8457
26292SOL     OW82663   2.773   0.662   8.159 -0.1639 -0.1033 -0.4618
26292SOL    HW182664   2.708   0.704   8.214  0.0121 -1.4513  0.8549
26292SOL    HW282665   2.828   0.613   8.221 -0.6545 -2.6289 -1.8784
26293SOL     OW82666   1.464   7.095   4.076  0.0575 -0.4640 -0.1079
26293SOL    HW182667   1.369   7.088   4.072  0.1394 -1.0077 -1.5600
26293SOL    HW282668   1.487   7.050   4.158 -0.8711 -1.0947 -0.1738
26294SOL     OW82669   4.179   7.807   5.236  0.1145 -0.3252 -0.1199
26294SOL    HW182670   4.175   7.753   5.314 -0.1058 -1.4094 -0.8599
26294SOL    HW282671   4.090   7.805   5.200 -0.1699  1.3868  0.3802
26295SOL     OW82672   9.098   0.609   4.102  0.7346 -0.6540  0.5598
26295SOL    HW182673   9.077   0.632   4.192  0.4321  0.1156  0.3014
26295SOL    HW282674   9.187   0.643   4.089  1.2087 -1.7303  0.8956
26296SOL     OW82675   4.453   5.464   9.705  0.0343 -0.2698  0.3071
26296SOL    HW182676   4.548   5.476   9.694  0.4461 -1.6728  1.8667
26296SOL    HW282677   4.423   5.545   9.746  0.1341  1.0389 -2.0152
26297SOL     OW82678   4.394   3.661   2.016 -0.1239  1.0032 -0.3895
26297SOL    HW182679   4.451   3.725   2.058  2.6463 -0.4815 -1.6068
26297SOL    HW282680   4.400   3.583   2.071 -0.4675  0.6115 -0.8942
26298SOL     OW82681   9.697   0.097   0.001  0.3213 -0.8079  0.1713
26298SOL    HW182682   9.779   0.047  -0.007  0.8419  0.1440 -0.6484
26298SOL    HW282683   9.629   0.035  -0.026  0.8982 -1.2501 -0.2950
26299SOL     OW82684   1.483   3.479   4.382 -0.1226  0.3485 -0.3869
26299SOL    HW182685   1.477   3.568   4.348  0.4223 -0.0476 -1.5846
26299SOL    HW282686   1.398   3.440   4.362 -0.0890  0.3659 -0.5663
26300SOL     OW82687   7.935   2.169   8.554  0.0247 -0.0319 -0.3802
26300SOL    HW182688   7.932   2.114   8.633 -1.8542  0.3987 -0.0857
26300SOL    HW282689   7.860   2.140   8.502  1.6360 -0.7792 -2.3867
26301SOL     OW82690   8.807   8.962  10.182  0.6027 -0.0999 -0.4523
26301SOL    HW182691   8.739   8.898  10.201  1.4874 -0.5855  1.3692
26301SOL    HW282692   8.778   9.006  10.102 -1.1830 -1.1603 -0.4345
26302SOL     OW82693   0.573   9.533   3.535 -0.0436 -0.1457  0.1569
26302SOL    HW182694   0.609   9.571   3.456  0.1694 -2.5824 -1.0108
26302SOL    HW282695   0.491   9.492   3.507  0.4768 -1.8196  0.9434
26303SOL     OW82696   0.309   6.199   0.327  0.2378 -0.3693  0.0315
26303SOL    HW182697   0.357   6.139   0.384 -0.1037 -0.7395 -0.0657
26303SOL    HW282698   0.236   6.147   0.294  0.6948 -0.3006 -1.1193
26304SOL     OW82699   3.148   7.901   2.441  0.7946 -0.4323 -0.4840
26304SOL    HW182700   3.200   7.823   2.460 -0.5889 -1.2672  0.0393
26304SOL    HW282701   3.202   7.951   2.380  1.9944 -1.4790 -0.3376
26305SOL     OW82702   3.268   6.388   5.558 -0.3132  0.1852 -0.1012
26305SOL    HW182703   3.234   6.358   5.473 -1.6142 -0.8260  0.7276
26305SOL    HW282704   3.256   6.313   5.616 -0.5861  1.2409  1.2686
26306SOL     OW82705   9.757   4.471   3.391  0.2635 -1.1159 -0.1639
26306SOL    HW182706   9.808   4.551   3.382 -1.1869 -0.1862 -0.3935
26306SOL    HW282707   9.724   4.473   3.481 -1.4228 -0.4035 -0.7613
26307SOL     OW82708   9.294   4.193   8.121  0.2240  0.1894 -0.0322
26307SOL    HW182709   9.266   4.179   8.031 -0.6276  1.6974 -0.0381
26307SOL    HW282710   9.243   4.130   8.172 -1.0020  0.8675 -0.3751
26308SOL     OW82711   7.947   9.366   9.632  0.1774 -0.4238  0.8974
26308SOL    HW182712   7.975   9.457   9.624 -1.9706  0.1302 -2.4180
26308SOL    HW282713   7.873   9.369   9.692 -1.4639  0.6054 -1.0256
26309SOL     OW82714   6.682   6.214   7.570  0.5177 -0.3116 -0.0461
26309SOL    HW182715   6.661   6.306   7.585  1.6316 -0.0933  0.2250
26309SOL    HW282716   6.775   6.214   7.546  0.4558 -1.3398 -0.3169
26310SOL     OW82717   0.554   1.891   0.013  0.2555 -0.3227  0.1972
26310SOL    HW182718   0.543   1.797  -0.002  0.1573 -0.1867 -0.6696
26310SOL    HW282719   0.488   1.931  -0.044 -0.2129  0.2547  1.1151
26311SOL     OW82720   3.138   0.504   0.599 -0.1366 -0.8478 -0.0681
26311SOL    HW182721   3.210   0.441   0.602 -0.3473 -1.0835  0.0710
26311SOL    HW282722   3.097   0.489   0.514 -0.0647 -0.7625 -0.1176
26312SOL     OW82723   6.781   1.089   3.867 -0.6069  0.8587 -0.0901
26312SOL    HW182724   6.747   1.133   3.790 -2.2964 -0.4782 -0.1705
26312SOL    HW282725   6.704   1.054   3.911  0.5605 -2.6227 -0.4445
26313SOL     OW82726   5.372   0.084   2.114  0.2699  0.4575  0.2979
26313SOL    HW182727   5.464   0.104   2.097 -0.0022  1.3243 -0.2399
26313SOL    HW282728   5.364  -0.009   2.094  0.3233  1.0430 -3.1778
26314SOL     OW82729   2.593   1.784   6.176 -0.3388  0.0736  0.1539
26314SOL    HW182730   2.688   1.778   6.190 -0.4399 -0.0854  0.8033
26314SOL    HW282731   2.555   1.750   6.256 -0.9464  2.3882  0.9239
26315SOL     OW82732   0.944   4.793   9.574  0.2604  0.0249  0.7112
26315SOL    HW182733   0.941   4.699   9.596  0.1402 -0.1378  0.0062
26315SOL    HW282734   0.966   4.835   9.657  0.0237 -0.6030  1.1095
26316SOL     OW82735   4.098   5.018   2.710 -0.1207 -0.0802  0.0543
26316SOL    HW182736   4.026   4.955   2.708 -0.6723  0.4898 -3.3038
26316SOL    HW282737   4.056   5.102   2.725  0.3711 -0.1582  2.1723
26317SOL     OW82738   9.891   5.246   6.840  0.0168  0.1353 -0.6239
26317SOL    HW182739   9.938   5.173   6.802 -0.4418  0.9952 -2.9991
26317SOL    HW282740   9.824   5.268   6.776  0.4940  2.9722 -0.2973
26318SOL     OW82741   7.135  10.144   2.068 -0.2950 -0.3177  0.3588
26318SOL    HW182742   7.225  10.116   2.057 -0.1392  0.5325 -0.5803
26318SOL    HW282743   7.140  10.217   2.130 -0.1619  0.5976 -0.6950
26319SOL     OW82744   2.147   7.544   0.026  0.1353 -0.1954 -0.4900
26319SOL    HW182745   2.110   7.460  -0.001  0.1185 -0.5312  0.5159
26319SOL    HW282746   2.071   7.598   0.046  0.1549 -0.2840 -0.1655
26320SOL     OW82747   2.478   4.050   7.309 -0.8663 -0.2820  0.0227
26320SOL    HW182748   2.475   4.060   7.214 -0.2012 -1.3001 -0.1218
26320SOL    HW282749   2.509   3.960   7.323 -1.2517 -0.2512  1.2012
26321SOL     OW82750   9.698   6.248   0.031 -0.1522  0.0572 -0.3298
26321SOL    HW182751   9.677   6.210   0.116 -0.6412 -2.8270 -1.6317
26321SOL    HW282752   9.793   6.260   0.033 -0.1422 -0.0673  0.5463
26322SOL     OW82753   5.319   3.961   4.600 -0.1736  0.0230  0.4649
26322SOL    HW182754   5.302   4.019   4.674  1.4611  1.5058 -0.2418
26322SOL    HW282755   5.410   3.979   4.576 -0.1527 -1.6179 -0.8791
26323SOL     OW82756   5.727   3.286   3.622  0.3521 -0.1494  0.3065
26323SOL    HW182757   5.681   3.338   3.688 -1.3235 -0.1511 -0.7791
26323SOL    HW282758   5.809   3.332   3.606  0.0121  0.7689  1.1620
26324SOL     OW82759   6.131   4.481   6.899 -0.2292 -0.5046  0.1826
26324SOL    HW182760   6.209   4.509   6.851 -0.1011  0.8312  1.1085
26324SOL    HW282761   6.083   4.562   6.917 -0.2436 -0.9049  2.3150
26325SOL     OW82762   2.671   6.562   4.753 -0.0337  0.1637 -0.7417
26325SOL    HW182763   2.736   6.499   4.724 -0.7435  0.0108 -2.0904
26325SOL    HW282764   2.631   6.522   4.830  0.2822 -0.5283 -0.9317
26326SOL     OW82765   8.910   7.450   4.820  0.4834 -0.0842  0.4097
26326SOL    HW182766   8.881   7.476   4.732 -0.4461  2.6298  1.4335
26326SOL    HW282767   8.831   7.454   4.873  1.2120 -0.8174  1.5931
26327SOL     OW82768   2.566   1.284  10.170 -1.6723 -0.4014  0.0838
26327SOL    HW182769   2.508   1.269  10.095 -0.6003 -1.4040 -0.5720
26327SOL    HW282770   2.507   1.301  10.243 -2.7594 -0.0542 -0.8421
26328SOL     OW82771   2.267   7.113   9.916  0.2318 -0.2182 -0.8981
26328SOL    HW182772   2.184   7.161   9.914 -0.2757 -0.9703  0.5398
26328SOL    HW282773   2.243   7.024   9.940  1.5629 -0.1453  0.9157
26329SOL     OW82774   7.208   7.731   1.265  0.2857 -0.0546  0.3922
26329SOL    HW182775   7.226   7.775   1.182 -0.8082 -1.7973 -0.8522
26329SOL    HW282776   7.118   7.757   1.286  0.3928 -0.0053  0.8051
26330SOL     OW82777   0.673   8.712   4.920 -0.3034  0.0386  0.0226
26330SOL    HW182778   0.643   8.784   4.975 -2.2057  0.1275 -1.0181
26330SOL    HW282779   0.612   8.640   4.939 -1.2503  0.1937 -2.1570
26331SOL     OW82780   3.336   3.838   4.582  0.1118  0.5829  0.0270
26331SOL    HW182781   3.320   3.888   4.502  0.6564 -2.0436 -1.8613
26331SOL    HW282782   3.259   3.782   4.591  0.9449 -0.5891  0.1203
26332SOL     OW82783   4.799   1.256   9.118 -0.0503 -0.0698  0.0970
26332SOL    HW182784   4.784   1.177   9.171 -1.5440  1.3033  1.8542
26332SOL    HW282785   4.817   1.222   9.030 -0.9107 -2.3771  0.7145
26333SOL     OW82786   8.712   6.921   3.450  0.1394  0.3263 -0.3471
26333SOL    HW182787   8.805   6.943   3.452  0.5172 -1.2281  0.0709
26333SOL    HW282788   8.700   6.876   3.366  0.2940 -1.5988  0.6225
26334SOL     OW82789   8.398   8.190   5.398  0.1745 -0.2449  0.3399
26334SOL    HW182790   8.425   8.182   5.489 -0.2175  2.4165  0.7571
26334SOL    HW282791   8.318   8.242   5.400 -0.7829 -1.5173 -1.4388
26335SOL     OW82792   9.834   1.248   7.486  0.2865 -0.4718 -0.3102
26335SOL    HW182793   9.917   1.200   7.476  0.0769 -0.5940 -1.7293
26335SOL    HW282794   9.805   1.263   7.396 -1.1636 -0.2941  0.1697
26336SOL     OW82795  10.143   7.350   6.303 -0.2128 -0.1541 -0.1801
26336SOL    HW182796  10.083   7.424   6.310  0.8121  0.7158 -0.3381
26336SOL    HW282797  10.087   7.276   6.281 -1.0703  0.9335 -1.9037
26337SOL     OW82798   6.674   5.559   2.436 -0.2429  0.1575 -0.6066
26337SOL    HW182799   6.646   5.648   2.415 -1.1849  0.0903  0.3008
26337SOL    HW282800   6.753   5.546   2.384 -1.0317  0.9153 -2.0531
26338SOL     OW82801   5.754   1.456   8.168  0.4709  0.5876  0.5314
26338SOL    HW182802   5.722   1.508   8.242 -0.3503 -0.2042  0.7454
26338SOL    HW282803   5.768   1.369   8.204 -1.0696 -0.1191 -0.4994
26339SOL     OW82804   0.514   7.935   1.522  0.5536 -0.8528  0.2943
26339SOL    HW182805   0.547   7.853   1.486 -0.3815  0.0510 -3.0192
26339SOL    HW282806   0.420   7.933   1.505  0.3618  0.5151  1.0353
26340SOL     OW82807   5.716  10.268   0.651  0.3092  0.5679 -0.0123
26340SOL    HW182808   5.770  10.227   0.582  0.9354 -0.6469  1.1535
26340SOL    HW282809   5.730  10.362   0.639 -0.0783  0.4373 -1.9114
26341SOL     OW82810   8.977   0.146   2.098  0.0071 -0.7143 -0.0899
26341SOL    HW182811   9.040   0.200   2.051 -0.5079 -0.7755 -0.8672
26341SOL    HW282812   9.027   0.071   2.130  0.6923  0.1123  0.8463
26342SOL     OW82813   1.985   2.180   5.733  0.7592  0.6458  0.5622
26342SOL    HW182814   1.924   2.107   5.729 -0.8280  1.7911  2.1646
26342SOL    HW282815   2.043   2.167   5.658 -1.2234 -0.7123 -0.8329
26343SOL     OW82816   3.140   8.660   5.558  0.1441  0.3596  0.0007
26343SOL    HW182817   3.190   8.713   5.620  0.2663  0.5908 -0.2934
26343SOL    HW282818   3.089   8.724   5.508 -1.4715  0.0573  1.1777
26344SOL     OW82819   4.798   8.447   8.735  0.3430  0.2930 -0.1396
26344SOL    HW182820   4.829   8.357   8.727  2.1339  0.9617 -1.5932
26344SOL    HW282821   4.806   8.468   8.828  0.8276 -0.7362  0.0571
26345SOL     OW82822   3.569   4.221   3.083  0.6949 -0.6881 -0.3811
26345SOL    HW182823   3.597   4.201   3.172  1.0150 -2.2749 -0.8083
26345SOL    HW282824   3.539   4.312   3.087  1.9993 -0.2873  1.0167
26346SOL     OW82825   7.201   3.558   4.849  0.4449 -0.0560  0.1504
26346SOL    HW182826   7.119   3.601   4.876 -0.2754 -1.1120 -0.2817
26346SOL    HW282827   7.252   3.552   4.930  0.5568  1.5598  0.2274
26347SOL     OW82828  10.323   1.153   0.515  0.2820 -0.1168 -0.3695
26347SOL    HW182829  10.297   1.075   0.565 -1.0901 -0.0133 -0.8805
26347SOL    HW282830  10.246   1.175   0.463  0.6293  1.6058 -0.2209
26348SOL     OW82831   2.042   2.360   8.440  0.2910 -0.3537  0.1997
26348SOL    HW182832   2.128   2.348   8.399  1.6495 -0.9076  2.9734
26348SOL    HW282833   2.024   2.276   8.482 -2.1365 -0.5693 -1.1121
26349SOL     OW82834   5.941   4.344   6.474 -0.2927 -0.1608  0.1453
26349SOL    HW182835   6.029   4.320   6.444 -0.2204  1.3977 -1.0396
26349SOL    HW282836   5.883   4.280   6.432  0.1666 -0.3476 -0.2077
26350SOL     OW82837   1.550   9.483   4.975  0.1180  0.1147  0.6237
26350SOL    HW182838   1.577   9.398   5.010  2.2238  1.0090  1.3642
26350SOL    HW282839   1.518   9.531   5.051 -1.2006 -0.0251  0.1836
26351SOL     OW82840   0.191   5.658   6.246  0.6656  0.3245 -0.0014
26351SOL    HW182841   0.095   5.655   6.242  0.6444  1.4691 -0.9456
26351SOL    HW282842   0.214   5.589   6.307 -0.7886  0.2467  0.5153
26352SOL     OW82843   2.385   4.265   4.771 -0.2651  0.5182  0.0972
26352SOL    HW182844   2.403   4.311   4.852 -0.4517 -0.8068  0.9240
26352SOL    HW282845   2.294   4.235   4.780 -0.2965  0.3821 -0.6045
26353SOL     OW82846   0.479   6.415   9.058  0.6765 -0.0333  0.3002
26353SOL    HW182847   0.443   6.355   8.992  2.2947  0.6605 -1.3008
26353SOL    HW282848   0.573   6.414   9.043  0.9009  1.6963  1.2799
26354SOL     OW82849   1.650   7.124  10.188  0.1287  0.4851 -0.0896
26354SOL    HW182850   1.613   7.150  10.104 -1.1335 -0.1646  0.2444
26354SOL    HW282851   1.657   7.205  10.238 -0.0103  0.7332 -0.4719
26355SOL     OW82852   6.302   5.410   1.152  0.7972  0.4954  0.0479
26355SOL    HW182853   6.251   5.472   1.205  1.0533 -0.0957  1.0247
26355SOL    HW282854   6.245   5.389   1.078  0.4460  1.3914  0.0471
26356SOL     OW82855   0.019   4.973   5.184 -0.2257 -0.3691  0.1854
26356SOL    HW182856  -0.010   4.896   5.233 -0.5158  1.3931  2.9768
26356SOL    HW282857   0.114   4.964   5.180 -0.1130 -0.1648  1.8384
26357SOL     OW82858   9.572   2.237   4.617 -0.0989 -0.1564 -0.0534
26357SOL    HW182859   9.653   2.241   4.566 -0.6549  0.2580 -0.9214
26357SOL    HW282860   9.585   2.162   4.675  0.9628 -0.0124 -0.0772
26358SOL     OW82861   3.471   1.851   1.506 -0.4748 -0.0704 -0.2555
26358SOL    HW182862   3.560   1.880   1.487 -0.2366 -0.7242 -0.1547
26358SOL    HW282863   3.430   1.926   1.548  0.8715 -0.6078  2.1894
26359SOL     OW82864   2.813   9.144   1.079  0.2393 -0.1625 -0.7067
26359SOL    HW182865   2.771   9.115   0.997  0.6432 -2.0380 -0.2944
26359SOL    HW282866   2.821   9.064   1.131  0.0065  0.9887  1.1804
26360SOL     OW82867   2.368   8.558   3.479  0.7860 -0.3473  0.2100
26360SOL    HW182868   2.380   8.605   3.562  0.3229 -0.2058  0.1978
26360SOL    HW282869   2.288   8.595   3.441  1.4620  0.1906 -0.7177
26361SOL     OW82870   2.578   5.830   7.235  0.3847 -0.2265  0.4522
26361SOL    HW182871   2.512   5.770   7.198  0.1484 -0.2348  0.8811
26361SOL    HW282872   2.527   5.902   7.271  0.5332 -0.7693  1.7854
26362SOL     OW82873   9.269   0.515   3.470  0.8166 -0.4208 -0.0879
26362SOL    HW182874   9.280   0.428   3.508  3.0740  0.0489  0.4868
26362SOL    HW282875   9.331   0.517   3.397  1.5549  1.0304  0.5491
26363SOL     OW82876   9.036   1.835   8.949 -0.2173  0.4790  0.6987
26363SOL    HW182877   8.945   1.846   8.921 -0.6408 -0.7459  1.5235
26363SOL    HW282878   9.051   1.907   9.011 -0.2371  1.3696 -0.3029
26364SOL     OW82879   0.159   7.795   7.165 -0.6926  0.7452 -0.0564
26364SOL    HW182880   0.099   7.787   7.091 -1.6650  0.0990  0.7848
26364SOL    HW282881   0.103   7.790   7.242  0.4985 -0.4206  0.7654
26365SOL     OW82882   6.553   1.094   9.695  0.0645 -0.6230 -0.0092
26365SOL    HW182883   6.555   1.029   9.625  0.2204 -1.0399  0.3773
26365SOL    HW282884   6.586   1.174   9.655  1.9315 -1.3113  0.0547
26366SOL     OW82885   0.305   9.228   7.535  0.2841  0.1949  0.0967
26366SOL    HW182886   0.253   9.151   7.555 -0.3232  1.1122  2.3545
26366SOL    HW282887   0.393   9.207   7.568  0.2943  0.2257  0.0892
26367SOL     OW82888   6.532   8.790  10.021 -0.1425 -0.4105  0.4378
26367SOL    HW182889   6.535   8.871  10.071 -1.6500 -0.6361  0.9373
26367SOL    HW282890   6.495   8.726  10.082 -1.6780 -0.7850 -0.8351
26368SOL     OW82891   4.596   8.222   1.366 -0.2666  0.0256 -0.1307
26368SOL    HW182892   4.622   8.213   1.274  0.3880  2.5533 -0.2666
26368SOL    HW282893   4.508   8.184   1.370  0.6757 -2.5437 -1.1617
26369SOL     OW82894   5.115   7.793   1.267  0.0180 -0.2456  0.2115
26369SOL    HW182895   5.092   7.743   1.346  0.6579 -0.7251  0.1059
26369SOL    HW282896   5.167   7.866   1.300 -1.3022  0.6245  0.4114
26370SOL     OW82897   8.287   0.741   2.507 -0.3948 -0.7586  0.5570
26370SOL    HW182898   8.254   0.809   2.448 -0.5110 -2.3385 -1.3131
26370SOL    HW282899   8.234   0.751   2.586 -2.8896 -0.8713 -0.9728
26371SOL     OW82900   9.704   5.275   7.548  0.0024  0.4225 -0.5552
26371SOL    HW182901   9.664   5.361   7.561  0.0134  0.0360  2.7350
26371SOL    HW282902   9.642   5.228   7.491 -2.5197  1.0323  1.5137
26372SOL     OW82903   3.186   2.977   9.621  0.0688 -0.0511  0.4325
26372SOL    HW182904   3.245   2.963   9.695  1.5591 -0.8637 -0.8562
26372SOL    HW282905   3.100   2.949   9.654  0.5683  0.1381  2.0121
26373SOL     OW82906   9.670   0.992   8.360  0.4029 -0.2791  0.1764
26373SOL    HW182907   9.596   1.047   8.384  0.8282 -0.3660  1.7781
26373SOL    HW282908   9.707   0.963   8.443  1.5942 -1.1088 -0.6025
26374SOL     OW82909   4.504   1.901   0.792  0.1129 -0.1610 -0.5357
26374SOL    HW182910   4.591   1.891   0.831 -0.4709 -0.7011  0.6934
26374SOL    HW282911   4.504   1.989   0.756  1.5737 -0.5659 -1.6501
26375SOL     OW82912   2.900  10.303   8.396  0.2775  0.4151 -0.3987
26375SOL    HW182913   2.850  10.269   8.470  0.6019  1.5865  0.3718
26375SOL    HW282914   2.844  10.287   8.320 -1.1658  1.4854  0.4122
26376SOL     OW82915   9.830   8.574   2.738 -0.1344 -0.1806  0.5446
26376SOL    HW182916   9.755   8.633   2.728  0.5627  0.5614 -0.4715
26376SOL    HW282917   9.796   8.503   2.793 -2.1663 -0.8597 -1.4381
26377SOL     OW82918   1.982   3.022   2.902  0.2348  0.0092  0.3693
26377SOL    HW182919   1.891   2.993   2.898  0.7762 -1.6455 -0.9845
26377SOL    HW282920   1.982   3.105   2.855 -0.5001 -0.1976 -0.0228
26378SOL     OW82921   2.024   2.651   6.481  0.0392 -0.0123  0.4729
26378SOL    HW182922   1.939   2.685   6.455  0.0008  0.4386  1.1511
26378SOL    HW282923   2.087   2.707   6.435 -0.0284  0.4537  0.9413
26379SOL     OW82924   6.351   4.858   2.583  0.3450  0.1640 -0.1066
26379SOL    HW182925   6.403   4.913   2.525  0.4381  0.3412  0.1442
26379SOL    HW282926   6.310   4.919   2.645 -0.1446  0.0249 -0.2865
26380SOL     OW82927   6.653   9.098   4.269  0.3458  0.2140 -0.0317
26380SOL    HW182928   6.728   9.100   4.329  0.0043  0.3076  0.3951
26380SOL    HW282929   6.693   9.102   4.181  0.7958  3.7304  0.1550
26381SOL     OW82930   9.144   9.770   3.229 -0.2160 -0.1893  0.6402
26381SOL    HW182931   9.166   9.777   3.137  2.0704 -0.6192  1.1069
26381SOL    HW282932   9.070   9.709   3.231 -0.2827 -0.1926 -0.8893
26382SOL     OW82933   9.490   6.726   8.759 -0.2111 -0.2630  0.4569
26382SOL    HW182934   9.572   6.709   8.712  0.2705 -0.7774  1.4635
26382SOL    HW282935   9.461   6.811   8.725  0.3046 -0.4592 -0.5165
26383SOL     OW82936   0.261   9.074   0.507  0.2291 -0.4634 -0.0629
26383SOL    HW182937   0.274   9.060   0.601 -0.2828 -0.9746 -0.0602
26383SOL    HW282938   0.184   9.131   0.501  1.2598  0.9804 -0.1334
26384SOL     OW82939   4.693   4.457   3.908  0.0529 -0.0325  0.5097
26384SOL    HW182940   4.678   4.548   3.879 -0.1708 -0.8237 -2.1580
26384SOL    HW282941   4.670   4.458   4.001  0.5986  2.7511  0.7219
26385SOL     OW82942   4.352   5.112   6.056  0.3877  0.3744  0.3724
26385SOL    HW182943   4.338   5.081   5.967  0.3526 -2.5076  1.2944
26385SOL    HW282944   4.446   5.105   6.069  0.3428  0.3559  0.6934
26386SOL     OW82945   9.731   0.683   4.200 -0.2934 -0.2651  0.3025
26386SOL    HW182946   9.806   0.629   4.224 -0.1082 -0.5880 -0.9358
26386SOL    HW282947   9.738   0.694   4.105 -1.8924 -0.4368  0.1302
26387SOL     OW82948   7.920   1.804   1.110 -0.0157  0.7523  0.3727
26387SOL    HW182949   8.006   1.763   1.107  0.7452  2.2929 -0.4501
26387SOL    HW282950   7.899   1.821   1.018  0.4478  3.5289  0.6807
26388SOL     OW82951   0.814   2.512   7.270  0.0016  0.5780  0.6475
26388SOL    HW182952   0.792   2.597   7.232  0.5559  1.0312  1.3196
26388SOL    HW282953   0.889   2.530   7.327  1.1820 -0.6662 -0.4691
26389SOL     OW82954   3.605   5.672   1.988 -0.8002 -0.7473 -0.3965
26389SOL    HW182955   3.598   5.630   2.074 -1.9704 -0.6733 -0.4385
26389SOL    HW282956   3.519   5.711   1.974 -0.3726 -0.1050 -1.2736
26390SOL     OW82957   4.668   5.289   4.726 -0.2134  0.5533  0.2262
26390SOL    HW182958   4.625   5.232   4.790  0.6797  0.0209  0.3822
26390SOL    HW282959   4.690   5.231   4.654 -1.6024  1.2414 -0.7856
26391SOL     OW82960   2.378   3.189   1.343  0.3911  0.3910 -0.6426
26391SOL    HW182961   2.400   3.116   1.287  1.4213  0.4527 -0.3290
26391SOL    HW282962   2.451   3.196   1.405  0.2566  1.5946 -0.5888
26392SOL     OW82963   1.247   5.961   8.459 -0.1984 -0.5412  0.0611
26392SOL    HW182964   1.267   5.867   8.461  0.3626 -0.4524 -0.8962
26392SOL    HW282965   1.330   6.003   8.482  0.0200 -0.2399 -1.2393
26393SOL     OW82966   1.344   2.089   2.433  0.1355  0.0254 -0.8311
26393SOL    HW182967   1.410   2.152   2.462 -0.8136  1.7063 -2.1220
26393SOL    HW282968   1.276   2.093   2.501 -0.3396  1.1451 -1.3315
26394SOL     OW82969   8.926   9.826   5.487  0.3231 -0.5798  0.5174
26394SOL    HW182970   8.977   9.905   5.468 -1.9172  0.4834 -1.8487
26394SOL    HW282971   8.929   9.775   5.406  2.8286 -3.7705  2.3994
26395SOL     OW82972   5.221   3.176  10.299  0.0594 -0.1478  0.7453
26395SOL    HW182973   5.267   3.174  10.215 -0.5293 -1.6132  0.4449
26395SOL    HW282974   5.134   3.143  10.281  0.1262 -1.1294  2.0445
26396SOL     OW82975   5.240   0.032   0.351  0.0443 -0.0006  1.0057
26396SOL    HW182976   5.235  -0.013   0.266  1.5661  0.3970  0.6739
26396SOL    HW282977   5.189  -0.024   0.410 -0.8236 -0.4292 -0.0942
26397SOL     OW82978  10.359   4.046   9.887 -0.1837 -0.8812 -0.2529
26397SOL    HW182979  10.270   4.014   9.900 -0.2829 -0.6215 -0.2708
26397SOL    HW282980  10.393   4.060   9.975 -0.2094 -0.8530 -0.2473
26398SOL     OW82981   3.390   2.107   1.173 -0.2271  0.2857 -0.4505
26398SOL    HW182982   3.451   2.040   1.141 -0.3362  0.2109 -0.5014
26398SOL    HW282983   3.315   2.057   1.206  0.6528  0.2484  1.6227
26399SOL     OW82984   5.153   0.295   3.832 -0.0502 -0.0827  0.0980
26399SOL    HW182985   5.164   0.207   3.797 -2.4301 -0.3404 -0.1564
26399SOL    HW282986   5.135   0.349   3.755  0.3574  0.4430  0.3651
26400SOL     OW82987   8.595   3.034   8.580  0.2005  0.1988  0.5477
26400SOL    HW182988   8.601   3.029   8.485  2.5283 -2.1424  0.7099
26400SOL    HW282989   8.501   3.033   8.598 -0.3344  1.8085 -1.6952
26401SOL     OW82990   8.605   0.067   5.074  0.3283 -0.1945 -0.2901
26401SOL    HW182991   8.686   0.031   5.110  0.5936 -1.1819 -1.7907
26401SOL    HW282992   8.536   0.028   5.128  0.7469 -1.2089 -0.4661
26402SOL     OW82993   0.629   9.839   4.851  0.0910 -0.0809 -0.1887
26402SOL    HW182994   0.563   9.860   4.785 -0.1520 -1.5262 -0.4526
26402SOL    HW282995   0.601   9.754   4.886  2.1308 -1.0325 -0.7412
26403SOL     OW82996   4.396   3.270   2.488  0.3238 -0.4114  0.0065
26403SOL    HW182997   4.464   3.269   2.556  0.1631 -0.2897  0.1698
26403SOL    HW282998   4.315   3.283   2.536  0.0028 -2.0333 -0.0373
26404SOL     OW82999   6.744   0.306   0.974 -0.0704 -0.3972  0.1263
26404SOL    HW183000   6.738   0.213   0.951  0.0232  0.1122 -2.2944
26404SOL    HW283001   6.791   0.345   0.900 -0.0787  1.5689  1.1104
26405SOL     OW83002   5.194   9.610   2.894 -0.0722  0.0809  0.0376
26405SOL    HW183003   5.180   9.686   2.949  0.5824  2.8949 -3.3190
26405SOL    HW283004   5.289   9.607   2.881 -0.0216 -1.7309  0.5440
26406SOL     OW83005   7.202   5.146   6.909 -0.3748 -0.0238 -0.0463
26406SOL    HW183006   7.142   5.079   6.942  1.5790 -0.7073  2.3502
26406SOL    HW283007   7.150   5.227   6.910 -1.8443 -0.9289  0.0107
26407SOL     OW83008   7.634   6.632   4.003  0.0337  0.0554 -0.2151
26407SOL    HW183009   7.607   6.541   4.001 -0.0072  0.0523  0.3750
26407SOL    HW283010   7.708   6.634   4.064  0.0188  0.4181 -0.2051
26408SOL     OW83011   5.680   2.941   5.161 -0.6351  0.1169  0.2455
26408SOL    HW183012   5.591   2.955   5.192 -1.0145  0.5517 -0.9638
26408SOL    HW283013   5.681   2.980   5.074  0.5864 -0.3704  0.0197
26409SOL     OW83014   3.459   5.368   7.070  0.3391 -0.3613  0.4476
26409SOL    HW183015   3.540   5.384   7.021  0.4004 -2.1741 -0.1468
26409SOL    HW283016   3.399   5.331   7.005  0.0281 -1.7414  1.4530
26410SOL     OW83017   5.006   6.166   3.478 -0.0711  0.8022  0.4428
26410SOL    HW183018   4.946   6.155   3.552 -1.5316 -2.5263 -1.0532
26410SOL    HW283019   4.957   6.217   3.415 -1.1338 -1.1757 -0.4222
26411SOL     OW83020   0.759   3.058   6.758 -0.5677 -0.2518  0.4071
26411SOL    HW183021   0.680   3.053   6.704 -0.2849  2.3303 -0.4044
26411SOL    HW283022   0.830   3.062   6.695 -0.0604  0.6526  1.0147
26412SOL     OW83023   5.588   7.303   6.304 -0.3768 -0.5822  0.3346
26412SOL    HW183024   5.664   7.275   6.252 -0.5413 -0.7777  0.1985
26412SOL    HW283025   5.551   7.222   6.338 -0.8787 -0.5345 -0.0930
26413SOL     OW83026   4.850   4.156   8.421  0.2003  0.2315 -0.8410
26413SOL    HW183027   4.764   4.194   8.404 -1.0145 -0.8161  2.2990
26413SOL    HW283028   4.873   4.185   8.509  1.0087 -2.9130  0.1422
26414SOL     OW83029   1.461   0.423   5.097  0.2427  0.7706  0.3838
26414SOL    HW183030   1.470   0.346   5.041 -0.1117  0.6848  0.4412
26414SOL    HW283031   1.538   0.421   5.154 -0.7739 -0.7035  1.7968
26415SOL     OW83032   7.341   1.681   0.157  0.2256  0.0492  0.5615
26415SOL    HW183033   7.399   1.604   0.154  0.4376  0.0680  2.7426
26415SOL    HW283034   7.323   1.694   0.250 -2.8516  0.4158  0.0066
26416SOL     OW83035   2.201   1.467   7.404 -0.0806 -0.0429  0.7083
26416SOL    HW183036   2.200   1.534   7.472 -1.0853 -0.3333  1.0130
26416SOL    HW283037   2.176   1.386   7.451  0.7820 -0.5613  0.2917
26417SOL     OW83038   8.349   5.988   0.611  0.5257 -0.2881 -0.3846
26417SOL    HW183039   8.274   5.930   0.606  1.0500 -0.9072 -1.2541
26417SOL    HW283040   8.401   5.969   0.533  0.0982  2.2506 -1.4014
26418SOL     OW83041   7.833   0.102   8.600 -0.3641  0.0070 -0.0467
26418SOL    HW183042   7.822   0.019   8.555 -0.9351 -0.0121  0.1236
26418SOL    HW283043   7.873   0.079   8.684 -0.8110 -0.1337  0.1311
26419SOL     OW83044   0.131   5.595   0.826  0.4885 -0.3735  0.0034
26419SOL    HW183045   0.158   5.643   0.748 -0.5606 -2.1184 -1.5453
26419SOL    HW283046   0.035   5.604   0.828  0.3457 -1.6741  0.1191
26420SOL     OW83047   2.811   0.334   5.610 -0.0731 -0.2778  0.3425
26420SOL    HW183048   2.768   0.399   5.554  0.3705 -0.9132 -0.7593
26420SOL    HW283049   2.832   0.382   5.690 -0.6137  0.6805 -0.0685
26421SOL     OW83050   2.963   3.386   8.093  0.0890  0.3908  0.2633
26421SOL    HW183051   3.015   3.309   8.117  0.7379  0.5260 -0.6585
26421SOL    HW283052   2.999   3.457   8.146  0.4486  0.3605  0.0583
26422SOL     OW83053   8.422   4.746   3.456 -0.0180 -0.5218  0.0797
26422SOL    HW183054   8.392   4.766   3.545  0.8241 -0.6007  0.3949
26422SOL    HW283055   8.435   4.651   3.456  1.8890 -0.2937  0.5062
26423SOL     OW83056   4.862   6.819   1.787 -0.6591 -0.0107  0.0111
26423SOL    HW183057   4.857   6.743   1.846  0.2537  0.9099  1.3410
26423SOL    HW283058   4.948   6.811   1.746  0.3346  1.3460  1.7113
26424SOL     OW83059   7.833   7.392   9.343 -0.7279  0.1932 -0.0811
26424SOL    HW183060   7.779   7.452   9.395 -0.9199 -0.2700  0.2602
26424SOL    HW283061   7.812   7.305   9.377  0.2339  0.0022  0.0637
26425SOL     OW83062   8.364   6.424   5.155  0.2988  0.2715  0.4723
26425SOL    HW183063   8.430   6.354   5.157  1.2558  1.1439  0.3508
26425SOL    HW283064   8.284   6.383   5.187  0.1495 -1.5887 -1.9902
26426SOL     OW83065   8.349   9.275   1.718  0.1087  0.1051  0.0513
26426SOL    HW183066   8.359   9.204   1.655 -0.0495 -0.6114  0.8122
26426SOL    HW283067   8.302   9.236   1.791  1.5494  0.5215  1.2478
26427SOL     OW83068   0.259   0.078   1.710  0.1026 -0.3248 -0.2907
26427SOL    HW183069   0.291   0.136   1.779  1.7587  1.1004 -2.1438
26427SOL    HW283070   0.167   0.064   1.731  0.1197  1.5099  1.2222
26428SOL     OW83071   9.903   1.269   2.173  0.8703 -0.2027  0.4504
26428SOL    HW183072   9.880   1.361   2.184 -0.5132 -0.5474  0.6774
26428SOL    HW283073   9.995   1.270   2.148  0.3826  1.3665 -1.6234
26429SOL     OW83074   8.984   6.250   4.929  0.0100 -0.1866 -0.3597
26429SOL    HW183075   8.990   6.282   4.839 -0.8608 -1.1344 -0.7675
26429SOL    HW283076   9.069   6.274   4.968  0.0329  1.0866 -1.1227
26430SOL     OW83077   2.723   9.068   2.998 -0.1852 -0.2932 -0.0678
26430SOL    HW183078   2.666   9.086   3.072  2.8517  0.2940  2.3030
26430SOL    HW283079   2.715   8.973   2.985 -0.4703 -0.4793  1.2983
26431SOL     OW83080   0.494   0.844   2.425 -0.0609  0.0000  0.2376
26431SOL    HW183081   0.542   0.872   2.503 -0.7766 -0.9974  1.0828
26431SOL    HW283082   0.523   0.754   2.410 -0.5524 -0.1040 -0.1289
26432SOL     OW83083   1.675   2.668   9.516 -0.2020  0.5159  0.4265
26432SOL    HW183084   1.693   2.724   9.591 -2.1369 -1.0625  2.2176
26432SOL    HW283085   1.579   2.665   9.511 -0.1315  0.2552 -1.9072
26433SOL     OW83086   6.896   7.821   3.758  0.5457 -0.0056  0.4320
26433SOL    HW183087   6.805   7.810   3.731  1.0556 -0.4042 -1.3068
26433SOL    HW283088   6.924   7.733   3.782  0.4419  0.1352  1.0648
26434SOL     OW83089   8.410   0.439   9.392  0.1389  0.0648  0.1166
26434SOL    HW183090   8.471   0.480   9.331 -0.9003  2.3920  0.5673
26434SOL    HW283091   8.337   0.410   9.337 -0.0281  0.6179  0.0495
26435SOL     OW83092   3.065   5.795   9.088 -0.5376  0.1116 -0.0982
26435SOL    HW183093   3.016   5.846   9.152 -1.7444  0.0612 -0.9509
26435SOL    HW283094   3.147   5.844   9.077 -0.1106 -0.1080  1.7568
26436SOL     OW83095   1.209   8.868   0.871  0.5484  0.1649  0.1367
26436SOL    HW183096   1.253   8.866   0.956  0.9638  0.5400 -0.0658
26436SOL    HW283097   1.253   8.938   0.823  0.1986  0.0703 -0.3244
26437SOL     OW83098   3.342   6.019   9.876  0.3159 -0.1312 -0.1010
26437SOL    HW183099   3.383   5.952   9.821  2.2028  0.3719  0.6184
26437SOL    HW283100   3.299   6.077   9.814 -2.3029 -2.4652 -0.7116
26438SOL     OW83101   4.120   1.887   1.254  0.5855 -0.4289 -0.1302
26438SOL    HW183102   4.201   1.921   1.218  0.9939 -0.9261  0.2893
26438SOL    HW283103   4.060   1.883   1.180  1.6737 -2.2802 -0.9967
26439SOL     OW83104   2.815   8.709   4.553  0.1149 -0.5596  0.1272
26439SOL    HW183105   2.884   8.767   4.522 -0.3940  0.8579  1.5178
26439SOL    HW283106   2.734   8.745   4.516 -0.1061 -0.9388  0.2312
26440SOL     OW83107   0.431   0.910   1.920 -0.4095 -0.2539 -0.2367
26440SOL    HW183108   0.343   0.879   1.899 -0.3324 -0.4899 -0.2123
26440SOL    HW283109   0.470   0.838   1.970  0.4618 -0.9540 -1.8577
26441SOL     OW83110   2.527   9.708   2.500  0.1348  0.1765 -0.0272
26441SOL    HW183111   2.559   9.679   2.586  0.0205 -0.2076 -0.1129
26441SOL    HW283112   2.505   9.627   2.454  1.8262  0.2606 -1.0755
26442SOL     OW83113   8.861   0.620   6.449  0.2548 -0.4499 -0.3916
26442SOL    HW183114   8.855   0.550   6.384  0.3663  0.5427 -1.5062
26442SOL    HW283115   8.803   0.689   6.415 -1.3898 -0.7303  1.6575
26443SOL     OW83116   8.482   9.588   3.614 -0.6424  0.1614 -0.4357
26443SOL    HW183117   8.506   9.502   3.578  0.3621  0.4080 -0.3840
26443SOL    HW283118   8.472   9.572   3.708  3.0330  0.7302  0.1935
26444SOL     OW83119   3.170   0.594   7.586  0.2501 -0.0747 -0.0463
26444SOL    HW183120   3.203   0.505   7.594  0.5789  0.0857  0.3758
26444SOL    HW283121   3.248   0.648   7.573  0.1975  0.3507  1.3050
26445SOL     OW83122   4.756   3.493   8.914  0.5797 -0.4295 -0.1863
26445SOL    HW183123   4.739   3.585   8.934  0.2450  0.2542 -3.1685
26445SOL    HW283124   4.702   3.445   8.977 -0.9194  1.4694  0.0794
26446SOL     OW83125   9.541   7.745   1.509 -1.0277  0.3328  0.3757
26446SOL    HW183126   9.520   7.769   1.419  0.7007  1.5124  0.2482
26446SOL    HW283127   9.637   7.739   1.511 -0.9998  0.6944  2.2241
26447SOL     OW83128   1.742   9.211   3.363  0.2564 -0.3725  0.4445
26447SOL    HW183129   1.739   9.284   3.424  0.3649 -0.1833  0.2248
26447SOL    HW283130   1.829   9.173   3.375  1.3570  1.3545 -1.5396
26448SOL     OW83131   3.984   5.860  10.014 -0.1872  0.0688  0.3156
26448SOL    HW183132   3.972   5.768  10.038  0.6255  0.1972  1.2758
26448SOL    HW283133   3.905   5.881   9.964  0.3409 -1.5830 -1.3530
26449SOL     OW83134   3.852   6.458   3.712  0.1116  0.6873  0.0097
26449SOL    HW183135   3.764   6.496   3.713  0.1149  0.7188 -0.5973
26449SOL    HW283136   3.891   6.488   3.630  0.1575 -0.5193 -0.4312
26450SOL     OW83137   2.730   9.700   4.449 -0.1509 -0.7728 -0.2094
26450SOL    HW183138   2.675   9.747   4.387 -0.6690  0.4782  1.1459
26450SOL    HW283139   2.809   9.753   4.457 -1.0132  0.3511  1.8330
26451SOL     OW83140   4.287  10.278   8.263  0.0657 -0.0832  0.3068
26451SOL    HW183141   4.360  10.297   8.322 -0.4081 -0.0337  0.8859
26451SOL    HW283142   4.255  10.193   8.292  0.2503 -0.3699 -0.3147
26452SOL     OW83143   1.171   5.480   8.390  0.0972  0.5960  0.6646
26452SOL    HW183144   1.096   5.528   8.424  1.6264  3.2561  0.5292
26452SOL    HW283145   1.172   5.501   8.296  0.8925  0.4573  0.6336
26453SOL     OW83146   2.586   3.778   8.454 -0.1127  0.0151  0.7458
26453SOL    HW183147   2.647   3.849   8.436  2.3955 -2.0977  0.2974
26453SOL    HW283148   2.550   3.755   8.368 -2.3168  1.7890  1.1065
26454SOL     OW83149   6.103   3.501   4.789  0.5973 -0.0876  0.0604
26454SOL    HW183150   6.167   3.442   4.749 -1.0593 -1.1671 -1.1000
26454SOL    HW283151   6.071   3.555   4.717  0.1522  0.4107  0.6202
26455SOL     OW83152   4.420   1.859   1.432  0.0079 -0.5355 -0.7152
26455SOL    HW183153   4.415   1.899   1.345  0.0505 -0.2604 -0.5912
26455SOL    HW283154   4.379   1.923   1.490  1.5543  0.0630 -0.2635
26456SOL     OW83155   0.757   3.096   7.728  0.4712 -0.3874 -0.3504
26456SOL    HW183156   0.737   3.089   7.821 -0.7896  2.7571 -0.2399
26456SOL    HW283157   0.839   3.049   7.717  2.0026  1.2402  2.8909
26457SOL     OW83158   8.145   9.023   3.733 -0.1016  0.1818  0.2518
26457SOL    HW183159   8.143   8.933   3.766  1.0694 -0.7832 -2.0382
26457SOL    HW283160   8.183   9.015   3.645 -0.1710  2.9053 -0.1095
26458SOL     OW83161   8.380   0.861   2.048  0.5733 -0.0018 -0.4741
26458SOL    HW183162   8.446   0.815   2.100 -0.2062 -1.1288 -0.4396
26458SOL    HW283163   8.430   0.903   1.977  1.5056  0.5824  0.4949
26459SOL     OW83164   3.474   0.820   7.069 -0.1825  0.3039  0.3009
26459SOL    HW183165   3.477   0.880   7.144  0.4575 -0.2904  0.7629
26459SOL    HW283166   3.466   0.877   6.993  1.3512  1.0297  0.6521
26460SOL     OW83167   1.340   6.609   7.396 -0.1496 -0.4567  0.5288
26460SOL    HW183168   1.302   6.697   7.386 -2.1547 -0.9507  2.6809
26460SOL    HW283169   1.319   6.564   7.315 -0.7255  0.4989  0.1292
26461SOL     OW83170   3.716   8.218   5.631 -0.2653  0.8529  0.0868
26461SOL    HW183171   3.783   8.215   5.563 -1.4257  0.6051 -1.0920
26461SOL    HW283172   3.648   8.157   5.600 -0.9550  0.9546  1.3316
26462SOL     OW83173   6.768   0.681   0.907 -0.2064 -0.3784 -0.1915
26462SOL    HW183174   6.778   0.769   0.873 -2.1415 -0.5341 -1.3682
26462SOL    HW283175   6.840   0.669   0.968  0.7264  1.6014 -0.8475
26463SOL     OW83176   7.733   3.029   8.719 -0.5285 -0.0727  0.6363
26463SOL    HW183177   7.788   3.108   8.716  2.3426 -1.9369 -1.9725
26463SOL    HW283178   7.652   3.055   8.676  0.0750  1.6085  0.4178
26464SOL     OW83179   5.247   1.609   1.100 -0.3789 -0.3499  0.0010
26464SOL    HW183180   5.166   1.592   1.052  0.4536 -1.0558 -1.1992
26464SOL    HW283181   5.311   1.548   1.062  1.1986  1.4463 -0.3697
26465SOL     OW83182   7.739   2.871   1.714  0.2612  0.3949 -0.0625
26465SOL    HW183183   7.667   2.919   1.672  0.9630  0.5964 -1.0703
26465SOL    HW283184   7.711   2.862   1.805 -2.0100 -1.3939 -0.8500
26466SOL     OW83185   7.890   9.399   6.809 -0.0425  0.3656 -0.4658
26466SOL    HW183186   7.949   9.335   6.849 -0.0206  0.0917 -0.9188
26466SOL    HW283187   7.817   9.406   6.870 -0.1648 -0.2937 -0.5233
26467SOL     OW83188   6.037   5.668   6.983 -0.1579  0.1183 -0.1993
26467SOL    HW183189   6.127   5.670   7.015  0.4376 -0.9970 -1.6539
26467SOL    HW283190   6.042   5.620   6.900 -2.3753 -1.7385  0.6162
26468SOL     OW83191   2.796   5.273   2.745  0.0496 -0.0542 -0.0527
26468SOL    HW183192   2.771   5.303   2.657  0.0850 -1.0983 -0.4267
26468SOL    HW283193   2.886   5.243   2.736 -0.2270 -0.9582  0.1407
26469SOL     OW83194   2.473   3.206   4.130 -0.4006  0.2324 -0.0066
26469SOL    HW183195   2.492   3.114   4.117 -2.0203  0.1039 -1.8263
26469SOL    HW283196   2.392   3.207   4.182  0.3209  0.6632  1.1412
26470SOL     OW83197   8.085   8.678   7.142 -0.0959  0.2703  0.2751
26470SOL    HW183198   8.145   8.736   7.094 -1.5110  1.1291 -0.5104
26470SOL    HW283199   8.136   8.649   7.218  1.2934  1.0046 -0.3341
26471SOL     OW83200   0.842   7.251   0.714 -0.1133  0.2912  0.0324
26471SOL    HW183201   0.867   7.164   0.684  1.6173  0.8077 -0.1144
26471SOL    HW283202   0.799   7.236   0.799  1.0421 -0.6390  0.4778
26472SOL     OW83203   8.961   7.691   7.586  0.5077  0.3685  0.1869
26472SOL    HW183204   9.015   7.669   7.511  1.4460  0.0543  0.9288
26472SOL    HW283205   8.994   7.776   7.615  0.1300  0.5046  0.2298
26473SOL     OW83206   9.742   3.458   1.245  0.0979 -0.2987 -0.4100
26473SOL    HW183207   9.733   3.370   1.281  0.2093  0.1409  0.7260
26473SOL    HW283208   9.715   3.516   1.316  2.3981  0.6864 -0.2660
26474SOL     OW83209   9.239   0.970   3.316 -0.0187  0.7337 -0.5012
26474SOL    HW183210   9.202   1.057   3.302 -2.0656  0.3049  1.6722
26474SOL    HW283211   9.172   0.910   3.283  0.5620 -0.0474 -0.2884
26475SOL     OW83212   7.226   2.681   4.749 -0.0496 -0.2453  0.2054
26475SOL    HW183213   7.220   2.613   4.682  2.2093 -0.4126  0.0954
26475SOL    HW283214   7.157   2.659   4.812  0.1203 -2.1689 -0.2398
26476SOL     OW83215   2.543   8.426   3.287  0.7044 -0.3678  0.4347
26476SOL    HW183216   2.613   8.411   3.350  1.2327  1.5469  0.3901
26476SOL    HW283217   2.487   8.493   3.328  0.6253  0.3541 -0.7697
26477SOL     OW83218   3.203   4.575   9.113  0.4726  0.5173 -0.1588
26477SOL    HW183219   3.149   4.618   9.179 -1.0107  1.0287 -1.6424
26477SOL    HW283220   3.223   4.489   9.151  0.4816  1.1406  1.3372
26478SOL     OW83221   1.299   1.080   8.444  0.4341 -0.4611  0.7260
26478SOL    HW183222   1.242   1.152   8.418  1.7682  0.1486 -0.6462
26478SOL    HW283223   1.365   1.120   8.501  2.8036  0.0815 -2.1657
26479SOL     OW83224   6.366   7.563   0.196  0.0015  0.2335 -0.1300
26479SOL    HW183225   6.306   7.573   0.122 -0.8561 -0.2544  0.4792
26479SOL    HW283226   6.390   7.471   0.195  0.8965  0.4644 -0.4756
26480SOL     OW83227   0.074   7.489   9.167 -0.1406 -0.7231 -0.1989
26480SOL    HW183228   0.079   7.555   9.236 -0.1096 -0.6500 -0.2696
26480SOL    HW283229   0.164   7.481   9.135 -0.1235 -0.8928 -0.1047
26481SOL     OW83230   9.706   3.796   3.794 -0.6639 -0.0427 -0.3430
26481SOL    HW183231   9.701   3.702   3.810  1.4143 -0.0314  0.6358
26481SOL    HW283232   9.654   3.835   3.865  2.4182 -0.3288  2.2794
26482SOL     OW83233   5.176   0.285   0.935  0.4613  0.5348  0.4213
26482SOL    HW183234   5.181   0.263   0.842  0.9709 -1.4145  0.8611
26482SOL    HW283235   5.082   0.296   0.951  0.1042 -1.6428  0.1600
26483SOL     OW83236   0.447   9.599   1.125  0.1550  0.0284  0.1099
26483SOL    HW183237   0.423   9.671   1.184  0.0497  0.9579 -1.0413
26483SOL    HW283238   0.543   9.600   1.125  0.2291  1.9069 -1.8653
26484SOL     OW83239   2.697   5.610   9.924 -0.7395  0.1957  0.0092
26484SOL    HW183240   2.644   5.574   9.853  0.7341 -1.5008 -0.3203
26484SOL    HW283241   2.785   5.617   9.887 -0.1954  0.4801  1.2897
26485SOL     OW83242   9.258   2.914   3.217 -0.2749  0.3364  0.1780
26485SOL    HW183243   9.353   2.910   3.220 -0.2707  0.8496  1.1970
26485SOL    HW283244   9.235   2.890   3.128  0.7855 -0.2357  0.0544
26486SOL     OW83245   0.938   0.673   2.871 -0.2694  0.0919 -0.2220
26486SOL    HW183246   0.983   0.728   2.807 -0.1339 -0.1376 -0.3269
26486SOL    HW283247   1.006   0.615   2.906 -0.5645 -0.5710 -0.7156
26487SOL     OW83248   1.507   5.640   7.159 -0.4988  0.1563 -0.2220
26487SOL    HW183249   1.441   5.596   7.105 -0.0254 -1.7646  0.6970
26487SOL    HW283250   1.580   5.654   7.099 -0.3681 -1.0389 -0.3751
26488SOL     OW83251   0.874   7.365   9.702 -0.0386 -0.6713 -0.1104
26488SOL    HW183252   0.903   7.299   9.765  0.1284 -0.4898  0.0022
26488SOL    HW283253   0.893   7.326   9.617  0.6138 -0.5239 -0.0410
26489SOL     OW83254   3.472   9.503   8.578  0.0813 -0.2074 -0.0384
26489SOL    HW183255   3.525   9.552   8.641  1.2010 -1.3730 -0.0361
26489SOL    HW283256   3.407   9.458   8.632 -0.5599  0.7616  0.0183
26490SOL     OW83257   4.156   3.342   2.610  0.5573 -0.2579  0.2065
26490SOL    HW183258   4.195   3.314   2.692 -0.7192 -0.2960  0.8210
26490SOL    HW283259   4.064   3.358   2.631  0.1773 -0.3923 -1.2329
26491SOL     OW83260   4.412   8.846  10.319 -0.2234  0.6419  0.1464
26491SOL    HW183261   4.499   8.861  10.356 -0.7476  1.3483  1.1215
26491SOL    HW283262   4.363   8.802  10.389 -1.4541  2.6691  0.6368
26492SOL     OW83263   5.568   7.984   8.039  0.2985 -0.3027 -0.8100
26492SOL    HW183264   5.580   8.030   7.956 -1.7643  1.9636  0.0519
26492SOL    HW283265   5.651   7.995   8.085  0.1424  1.9056 -0.9855
26493SOL     OW83266   7.351   3.689   2.902  0.2792 -0.1758  0.2522
26493SOL    HW183267   7.442   3.696   2.930  0.3293 -1.6596  0.5442
26493SOL    HW283268   7.346   3.739   2.820  1.2715  0.1786  0.4031
26494SOL     OW83269   2.140   2.199   4.768  0.4048  0.8645  0.0275
26494SOL    HW183270   2.091   2.252   4.830 -0.6430 -0.2978  0.2484
26494SOL    HW283271   2.175   2.126   4.820  2.4388  1.6558 -0.1201
26495SOL     OW83272   4.995   2.922   9.706  0.5338  0.6437 -0.0435
26495SOL    HW183273   5.062   2.977   9.746  1.7183 -1.4265  0.9806
26495SOL    HW283274   4.924   2.982   9.683  1.9231  2.6154  0.6196
26496SOL     OW83275   2.374   8.830   8.732  0.3037 -0.8795 -0.0421
26496SOL    HW183276   2.334   8.789   8.655 -0.9812 -2.2875  1.3040
26496SOL    HW283277   2.400   8.757   8.787  0.0234  0.1041  1.4404
26497SOL     OW83278   5.217   8.015   2.330  0.0856  0.3243  0.3878
26497SOL    HW183279   5.160   8.029   2.254  0.5125  0.3078  0.0563
26497SOL    HW283280   5.158   8.015   2.405 -0.3135  0.5888  0.0787
26498SOL     OW83281   0.954   6.634   1.107  0.0743  0.0841 -0.0215
26498SOL    HW183282   0.994   6.713   1.071  1.7005 -1.0366 -0.8004
26498SOL    HW283283   0.902   6.598   1.035  0.1265 -0.0685  0.0166
26499SOL     OW83284   9.788   1.492   1.108  0.8151  0.4515  0.1237
26499SOL    HW183285   9.738   1.573   1.117  0.1333  0.0707 -0.1526
26499SOL    HW283286   9.868   1.518   1.063 -0.0685  0.7432 -1.3365
26500SOL     OW83287   0.435   1.801   5.290 -0.7117 -0.8850 -0.0540
26500SOL    HW183288   0.509   1.792   5.351 -1.2631  0.4075  0.8685
26500SOL    HW283289   0.476   1.818   5.205  0.1275  2.0887  0.8208
26501SOL     OW83290   8.430   5.930   2.161 -0.0326 -0.4595  0.3325
26501SOL    HW183291   8.518   5.900   2.138  0.6237  0.7222  1.1979
26501SOL    HW283292   8.419   6.012   2.113 -1.9176 -2.0717 -2.2208
26502SOL     OW83293   2.898   5.074   8.894  0.4161  0.1459 -0.2037
26502SOL    HW183294   2.919   4.998   8.949  0.3259  1.4714  1.7464
26502SOL    HW283295   2.810   5.056   8.861 -0.1571  0.0052  1.3556
26503SOL     OW83296   7.125  10.234   8.201 -0.1370  0.6952  0.0560
26503SOL    HW183297   7.087  10.157   8.159 -0.0749  0.8225 -0.2362
26503SOL    HW283298   7.089  10.232   8.290  1.7352 -1.0079  0.8528
26504SOL     OW83299   7.261   2.693   1.651  0.8491 -0.2601  0.2487
26504SOL    HW183300   7.281   2.707   1.744  0.2266 -0.9980  0.5090
26504SOL    HW283301   7.263   2.598   1.640 -2.1871 -0.4377  0.2885
26505SOL     OW83302   9.654   7.753   4.983  0.0578  0.0019  0.1823
26505SOL    HW183303   9.591   7.710   5.041  1.1917 -0.0128  1.4735
26505SOL    HW283304   9.710   7.803   5.043  2.1782 -1.1523 -0.7258
26506SOL     OW83305   8.652   5.396   9.171 -0.5885 -0.7290 -0.2738
26506SOL    HW183306   8.586   5.328   9.181  0.2998 -1.4979  0.4617
26506SOL    HW283307   8.725   5.352   9.128 -0.3838  0.0203 -0.7139
26507SOL     OW83308   5.078   4.765   0.176 -0.1075 -0.2897 -0.0877
26507SOL    HW183309   5.051   4.680   0.141 -1.8925  0.4419 -0.6106
26507SOL    HW283310   5.097   4.817   0.099  0.9997 -0.2069  0.2332
26508SOL     OW83311   0.116   8.690   0.390 -0.5560  0.4288  0.0723
26508SOL    HW183312   0.058   8.709   0.464 -0.7532 -0.0141  0.0300
26508SOL    HW283313   0.073   8.620   0.342  1.0188 -1.4924  1.2603
26509SOL     OW83314  10.352   9.349   2.198  0.3431 -0.4063 -0.2677
26509SOL    HW183315  10.305   9.385   2.123  0.0400 -0.2889 -0.0238
26509SOL    HW283316  10.383   9.426   2.246  0.6841 -0.4836 -0.3648
26510SOL     OW83317   4.578   3.290   1.387 -0.4803  0.0765  0.7791
26510SOL    HW183318   4.510   3.270   1.323 -1.0980  0.4935  1.2974
26510SOL    HW283319   4.628   3.209   1.395  0.7275  0.4937 -1.5455
26511SOL     OW83320   4.290   2.502   5.805  0.2515  0.2177 -0.3121
26511SOL    HW183321   4.380   2.488   5.777  0.3839  0.5074 -0.0453
26511SOL    HW283322   4.292   2.588   5.847  0.1648 -0.3972  0.9992
26512SOL     OW83323   8.928   5.117   1.294  0.0725  0.3193 -0.2318
26512SOL    HW183324   8.933   5.042   1.354 -0.1313  0.5018  0.0157
26512SOL    HW283325   8.989   5.095   1.224 -1.4598 -1.0020 -1.2065
26513SOL     OW83326   1.022   3.170   4.935  0.6151  0.2796  0.1027
26513SOL    HW183327   1.093   3.106   4.941  1.0215  0.7309  0.1462
26513SOL    HW283328   0.954   3.125   4.884  0.5191 -0.5229  0.9160
26514SOL     OW83329   3.455   7.861   2.998  0.0356 -0.8495  0.3555
26514SOL    HW183330   3.372   7.909   2.996 -0.0265 -0.9505  0.5150
26514SOL    HW283331   3.513   7.917   3.050  0.4077 -0.2335 -0.6851
26515SOL     OW83332   0.262  10.036   3.177  0.2615  0.4572 -0.0486
26515SOL    HW183333   0.168  10.049   3.192 -0.2242 -1.1901 -1.3684
26515SOL    HW283334   0.280   9.951   3.215  1.5748  1.3387  1.4108
26516SOL     OW83335   1.121   4.033   6.009  0.2447  0.3461 -0.1499
26516SOL    HW183336   1.158   4.114   6.043 -0.1910 -0.4431  2.4875
26516SOL    HW283337   1.147   3.967   6.073  0.3370 -1.5755 -2.0507
26517SOL     OW83338   9.269   5.307   6.874  0.3184  0.0000 -0.3922
26517SOL    HW183339   9.181   5.273   6.884  0.2432  0.2855 -0.0646
26517SOL    HW283340   9.323   5.231   6.853  0.0382 -0.2114 -0.3332
26518SOL     OW83341   6.480   7.555  10.231  0.0526  0.4343  0.4723
26518SOL    HW183342   6.447   7.634  10.189  0.8456  0.2909 -0.4565
26518SOL    HW283343   6.403   7.516  10.272 -0.4726  1.3273  0.3681
26519SOL     OW83344   5.077   0.824   0.064  0.0192 -0.1069 -0.3268
26519SOL    HW183345   5.053   0.736   0.093  1.8322 -0.5565 -0.0980
26519SOL    HW283346   5.078   0.876   0.144 -1.2248  0.1968 -0.4841
26520SOL     OW83347   1.303   4.494   8.438 -0.1743  0.0550  0.0697
26520SOL    HW183348   1.253   4.573   8.418 -2.2920 -0.8467  1.5230
26520SOL    HW283349   1.249   4.422   8.406  1.7716 -0.8831 -1.3289
26521SOL     OW83350   2.984   6.885   2.595  0.6628  0.2320 -0.3975
26521SOL    HW183351   3.008   6.867   2.504  1.3063  1.4924 -0.4994
26521SOL    HW283352   3.032   6.820   2.646  0.8927 -0.0057 -0.9118
26522SOL     OW83353   6.150   6.032   7.161  0.1424  0.2867 -0.2540
26522SOL    HW183354   6.143   6.128   7.157 -1.0273  0.2316 -0.0206
26522SOL    HW283355   6.194   6.015   7.244  1.1851  0.6403 -0.7206
26523SOL     OW83356   4.674   2.936   5.932  0.6528  0.2311 -0.3699
26523SOL    HW183357   4.639   2.852   5.962 -0.5046  0.7278 -0.2925
26523SOL    HW283358   4.616   2.963   5.861  1.6648  0.4556 -1.1345
26524SOL     OW83359   1.787  10.292   4.441 -0.3574 -0.6507  0.4064
26524SOL    HW183360   1.852  10.331   4.382 -0.9691  0.0521  0.1913
26524SOL    HW283361   1.826  10.300   4.528 -0.2447 -0.0448  0.3016
26525SOL     OW83362   4.347   8.196   6.194 -0.6281  0.1036 -0.5072
26525SOL    HW183363   4.380   8.224   6.109 -1.3085  0.0170 -0.8078
26525SOL    HW283364   4.364   8.102   6.196  2.0296  0.5346  0.6720
26526SOL     OW83365   5.642   3.355   4.313  0.3592  0.1366 -0.2233
26526SOL    HW183366   5.605   3.293   4.250  0.8398 -1.1411  0.7196
26526SOL    HW283367   5.566   3.404   4.346 -0.3676 -1.5566  0.7298
26527SOL     OW83368   7.221   0.749   0.497  0.3026 -0.2225 -0.0335
26527SOL    HW183369   7.212   0.844   0.504 -2.7013 -0.3219 -1.1224
26527SOL    HW283370   7.296   0.737   0.439  0.2149  1.5068 -0.5788
26528SOL     OW83371   9.492   5.911   2.037 -0.0318 -0.1351 -0.8119
26528SOL    HW183372   9.444   5.842   1.992 -0.7158  0.5527 -1.1770
26528SOL    HW283373   9.578   5.911   1.995  0.7414 -2.1711  0.6636
26529SOL     OW83374   9.763   0.189   2.524  0.2503 -0.1109 -0.5063
26529SOL    HW183375   9.767   0.201   2.430 -1.2928 -0.9353 -0.7227
26529SOL    HW283376   9.780   0.275   2.561 -0.7268  0.5835 -1.6073
26530SOL     OW83377   1.760   9.817   6.172 -0.0460 -0.0574  0.1047
26530SOL    HW183378   1.758   9.829   6.267 -0.5274 -4.5727  0.8926
26530SOL    HW283379   1.707   9.739   6.157  2.4651 -1.3152 -3.5308
26531SOL     OW83380   4.509   5.519   6.436  0.8928  0.6003  0.2426
26531SOL    HW183381   4.471   5.436   6.465  0.2701  0.7844 -0.0330
26531SOL    HW283382   4.587   5.492   6.386  0.4279  0.1508 -0.2584
26532SOL     OW83383   1.268   0.762   6.944 -0.1250  0.8142  0.9302
26532SOL    HW183384   1.194   0.708   6.969 -0.0247  0.0506 -0.3315
26532SOL    HW283385   1.344   0.717   6.981 -0.0795  0.2771  0.2104
26533SOL     OW83386   9.991   6.039   0.755 -0.3457  0.2174 -0.5490
26533SOL    HW183387   9.946   5.967   0.711  0.1799 -1.4140  1.4041
26533SOL    HW283388  10.083   6.025   0.737 -0.3150  1.1259 -1.1391
26534SOL     OW83389   1.302   6.899   9.955  0.1355 -0.1832  0.2431
26534SOL    HW183390   1.214   6.907   9.917 -0.9072 -0.1544  2.5337
26534SOL    HW283391   1.318   6.984   9.995  1.1378 -0.2740  0.0534
26535SOL     OW83392   3.229   3.653   3.441 -0.7367  0.0333 -0.1386
26535SOL    HW183393   3.143   3.619   3.468 -1.4289  2.1005  0.4194
26535SOL    HW283394   3.280   3.656   3.521 -0.6327  0.2004 -0.2118
26536SOL     OW83395   4.167   6.404   2.702 -0.2880  0.4450 -0.0821
26536SOL    HW183396   4.218   6.349   2.761 -0.3980  0.3225 -0.1013
26536SOL    HW283397   4.211   6.489   2.704 -0.6817  0.6319  0.6881
26537SOL     OW83398   1.878   1.127   6.479  0.2857 -0.7616  0.2706
26537SOL    HW183399   1.850   1.138   6.389  0.4661  3.0671  0.4930
26537SOL    HW283400   1.971   1.106   6.473 -0.0328 -2.0662 -0.3892
26538SOL     OW83401   9.383   8.745   4.627 -0.2021  0.0612  0.5309
26538SOL    HW183402   9.384   8.840   4.615 -2.4742  0.4682  2.6940
26538SOL    HW283403   9.300   8.717   4.589 -0.6544 -0.6713  1.9881
26539SOL     OW83404   9.993   6.801   4.532 -0.2230  0.2497 -0.0699
26539SOL    HW183405   9.970   6.831   4.445 -1.6942 -2.2876 -0.6571
26539SOL    HW283406  10.052   6.727   4.517 -0.1087  0.0770  1.1171
26540SOL     OW83407   7.901   7.812   5.725  0.1935 -1.0914 -0.1489
26540SOL    HW183408   7.986   7.782   5.695  1.4558  1.3533  0.7560
26540SOL    HW283409   7.914   7.904   5.748 -1.8441 -1.4646  3.1755
26541SOL     OW83410  10.005   0.856   7.225 -0.3159  0.0780  0.1432
26541SOL    HW183411  10.020   0.883   7.316 -0.8676  0.9621 -0.0117
26541SOL    HW283412  10.035   0.931   7.173 -0.5920 -0.1681 -0.3758
26542SOL     OW83413   0.382   3.879   0.382 -0.3734 -0.2513  0.1085
26542SOL    HW183414   0.287   3.884   0.386 -0.5035  2.3120 -2.7869
26542SOL    HW283415   0.412   3.937   0.453 -0.9437 -0.7405  0.7640
26543SOL     OW83416   7.828   0.910   2.440  0.0846 -0.2521 -0.5744
26543SOL    HW183417   7.824   0.947   2.352 -1.2873 -2.1269 -1.3904
26543SOL    HW283418   7.737   0.913   2.471  0.1365 -1.7248 -0.2074
26544SOL     OW83419   9.047   1.961   3.505 -0.1130 -0.5164  0.2381
26544SOL    HW183420   9.103   1.883   3.504 -1.4325 -1.4901 -0.5829
26544SOL    HW283421   9.026   1.977   3.413 -0.7560  0.1351  0.4882
26545SOL     OW83422   6.986  10.338   0.979 -0.0498  0.0303  0.1640
26545SOL    HW183423   7.046  10.271   0.946 -0.9670 -1.2600  1.0220
26545SOL    HW283424   6.939  10.369   0.902  0.2824 -0.4224 -0.2274
26546SOL     OW83425   1.061   6.939   3.621  0.5654 -0.8334 -0.4704
26546SOL    HW183426   1.084   6.846   3.621 -0.8703 -1.2452  0.9084
26546SOL    HW283427   0.970   6.941   3.590  0.8101  0.2010 -1.1789
26547SOL     OW83428   4.920   2.457   0.814 -0.2055 -0.0877  0.6163
26547SOL    HW183429   4.911   2.540   0.861 -2.0894 -1.2210  2.4388
26547SOL    HW283430   4.881   2.474   0.729 -0.7867  0.8645  1.0477
26548SOL     OW83431   5.643   1.651   1.616 -0.2321 -0.4929 -0.4656
26548SOL    HW183432   5.584   1.599   1.562 -1.0671 -0.1725  0.1135
26548SOL    HW283433   5.679   1.716   1.556 -0.4219 -0.7344 -0.8435
26549SOL     OW83434   5.664   6.428   8.646 -0.7647  0.5307  0.0278
26549SOL    HW183435   5.586   6.374   8.634  0.0257 -1.3101  2.2576
26549SOL    HW283436   5.736   6.365   8.651  0.4923  1.9441  0.7555
26550SOL     OW83437   6.406   5.021   5.148  0.0115  0.4871 -0.7291
26550SOL    HW183438   6.338   4.991   5.209 -0.4460  1.6512 -0.6336
26550SOL    HW283439   6.427   4.944   5.095  0.5131 -0.6088  0.9682
26551SOL     OW83440   8.570   2.334   3.252  0.1257  0.0581  0.2518
26551SOL    HW183441   8.487   2.374   3.225  0.8513  2.0711  0.8033
26551SOL    HW283442   8.635   2.402   3.237  1.2360 -0.3654  2.6672
26552SOL     OW83443   1.828   4.586   1.314  0.7928  0.3096 -0.2445
26552SOL    HW183444   1.810   4.660   1.372 -1.3888  0.6922 -1.3077
26552SOL    HW283445   1.749   4.532   1.318  1.8126 -1.2641 -0.5233
26553SOL     OW83446   9.001   2.088   7.101  0.4190  0.2101 -0.5808
26553SOL    HW183447   9.083   2.122   7.063  0.8509 -1.1805 -0.9397
26553SOL    HW283448   8.937   2.099   7.031  0.1974  1.6180 -0.1823
26554SOL     OW83449   7.388   7.552   4.636 -0.0510  0.4943 -0.0981
26554SOL    HW183450   7.382   7.595   4.722  1.7197  0.0577  0.2682
26554SOL    HW283451   7.355   7.464   4.652  1.1713  0.1056  0.3891
26555SOL     OW83452   9.870   7.745   1.713 -0.3174 -1.3440  0.3581
26555SOL    HW183453   9.878   7.835   1.683  3.3276 -1.5073  0.4476
26555SOL    HW283454   9.780   7.738   1.745 -0.3107  2.6790  1.7340
26556SOL     OW83455   3.356   1.403   4.293 -0.0589  0.2087  0.3639
26556SOL    HW183456   3.380   1.350   4.370 -0.9146 -0.9074 -0.1016
26556SOL    HW283457   3.421   1.379   4.227  0.4274  0.8518  0.6088
26557SOL     OW83458   1.052   4.225   4.846  0.5087 -0.1621  0.3190
26557SOL    HW183459   1.027   4.287   4.777 -1.6949  0.2188  1.4074
26557SOL    HW283460   1.059   4.141   4.801  0.7751  0.3650 -0.6551
26558SOL     OW83461   7.656   1.819   1.543 -0.3080  0.1748 -0.1897
26558SOL    HW183462   7.716   1.852   1.476 -1.8940  1.3072 -1.1259
26558SOL    HW283463   7.711   1.768   1.601  1.1962 -0.6391 -2.1972
26559SOL     OW83464   1.393   8.058   6.605 -0.3775 -0.4338 -1.0358
26559SOL    HW183465   1.362   8.140   6.644 -0.2732 -0.1762 -1.4968
26559SOL    HW283466   1.453   8.022   6.671 -0.2245 -0.0166 -0.9449
26560SOL     OW83467   4.051   7.213   0.266  0.2076 -0.2819  0.3407
26560SOL    HW183468   4.029   7.302   0.296 -0.8711 -0.5346  0.3176
26560SOL    HW283469   4.102   7.176   0.339 -1.6522 -0.5881  1.5558
26561SOL     OW83470   6.152   9.543   2.312 -0.1997  0.2342  0.1685
26561SOL    HW183471   6.218   9.534   2.243  0.0757 -1.8944  0.6335
26561SOL    HW283472   6.069   9.522   2.268  0.0913 -2.1478  0.6088
26562SOL     OW83473   1.097   6.387   3.541  0.0472  0.0262 -0.0922
26562SOL    HW183474   1.083   6.302   3.498 -0.0959 -0.8656  1.6160
26562SOL    HW283475   1.022   6.440   3.514  0.8588  0.1511 -2.3203
26563SOL     OW83476   3.874   0.188   4.204 -0.1155 -0.2165 -0.2839
26563SOL    HW183477   3.922   0.198   4.121  1.2999 -0.1465  0.5054
26563SOL    HW283478   3.820   0.267   4.209  0.4638  0.2268 -0.7346
26564SOL     OW83479   1.595   8.660   4.054 -0.4355  0.5106  0.1505
26564SOL    HW183480   1.648   8.681   3.977 -1.1567 -0.8433 -0.7472
26564SOL    HW283481   1.516   8.714   4.045 -0.7919 -0.0993 -0.3813
26565SOL     OW83482   1.522   2.585   5.310 -0.4796  0.2674  0.1894
26565SOL    HW183483   1.478   2.535   5.379 -2.7930  1.7999 -0.0541
26565SOL    HW283484   1.476   2.561   5.230 -1.8080  2.7814  0.0976
26566SOL     OW83485   1.992   8.537   4.971 -0.1326 -0.7336  0.3913
26566SOL    HW183486   1.901   8.532   4.943  0.2051  0.1519 -0.9501
26566SOL    HW283487   1.996   8.615   5.026 -0.1827 -0.7658  0.4404
26567SOL     OW83488   9.818   1.314   1.689  0.1610 -0.3139  0.0893
26567SOL    HW183489   9.903   1.341   1.723  0.3090 -0.7754  0.0887
26567SOL    HW283490   9.817   1.219   1.698  0.1677 -0.4432 -1.0959
26568SOL     OW83491   6.619   2.524   2.144 -0.1274 -0.1861  0.7149
26568SOL    HW183492   6.700   2.510   2.095  0.8398  1.2469  1.8204
26568SOL    HW283493   6.553   2.475   2.095  1.2910 -0.9709 -0.5114
26569SOL     OW83494   0.151   3.062   9.749  0.3830  0.0986 -0.4107
26569SOL    HW183495   0.110   2.977   9.735 -1.6156  0.9239  0.1294
26569SOL    HW283496   0.202   3.051   9.829 -1.4155 -0.0799  0.7413
26570SOL     OW83497   6.036   4.216   9.321 -0.4061 -0.0194  0.0550
26570SOL    HW183498   6.092   4.205   9.397  0.2820 -0.1754 -0.4731
26570SOL    HW283499   5.986   4.296   9.339 -0.4073 -0.1799  0.7622
26571SOL     OW83500   2.205   0.593   7.244 -0.0291 -0.0288 -0.4464
26571SOL    HW183501   2.282   0.633   7.282 -0.8483  0.2685  0.9467
26571SOL    HW283502   2.153   0.666   7.210 -0.5573 -0.0539  0.2767
26572SOL     OW83503   2.509   4.746   4.870 -0.0534  0.2136 -0.1601
26572SOL    HW183504   2.489   4.780   4.783 -1.8133 -1.8768 -0.6535
26572SOL    HW283505   2.578   4.682   4.856  1.0637  1.2642  0.3224
26573SOL     OW83506   1.860   0.354   9.801  0.2556  0.4394 -0.1942
26573SOL    HW183507   1.848   0.402   9.719  1.9658 -0.2843 -0.8999
26573SOL    HW283508   1.953   0.364   9.821  0.1588 -0.6612  0.8563
26574SOL     OW83509   6.825   4.394   8.615  0.1518  0.0716 -0.1324
26574SOL    HW183510   6.766   4.464   8.642  0.7452  1.4596 -2.2081
26574SOL    HW283511   6.798   4.374   8.525  3.3456  1.4395 -1.5474
26575SOL     OW83512   4.086   3.462   5.866 -0.4399  0.8484  0.0069
26575SOL    HW183513   4.046   3.498   5.945  0.1410 -1.4796  1.4557
26575SOL    HW283514   4.062   3.369   5.867  3.0802 -0.1935 -0.2208
26576SOL     OW83515   4.631   7.486   4.400  0.9536 -0.3243  0.0545
26576SOL    HW183516   4.714   7.532   4.416  1.0003  0.1896 -1.5728
26576SOL    HW283517   4.599   7.521   4.317 -1.1329 -0.2063  0.8513
26577SOL     OW83518   7.696   2.393   5.376  0.2855 -0.6414  0.3107
26577SOL    HW183519   7.705   2.484   5.404 -0.7251 -0.7301  0.9633
26577SOL    HW283520   7.661   2.398   5.288  0.9042 -0.3982  0.0686
26578SOL     OW83521   1.299   8.892   0.158  0.1865 -0.1560  0.4888
26578SOL    HW183522   1.278   8.800   0.142 -0.3398  0.1607 -0.7702
26578SOL    HW283523   1.393   8.898   0.144  0.1214 -0.3906 -0.0924
26579SOL     OW83524   3.121   2.251   6.219  0.2078  0.1685 -0.0998
26579SOL    HW183525   3.126   2.235   6.124 -0.6041 -1.3373  0.0801
26579SOL    HW283526   3.145   2.343   6.229 -0.2451  0.5162 -1.8372
26580SOL     OW83527   1.429   5.773   6.593  0.4895  0.0784 -0.6276
26580SOL    HW183528   1.373   5.736   6.524  1.5969 -0.7843 -1.0903
26580SOL    HW283529   1.410   5.867   6.591 -0.4109 -0.1072 -1.2609
26581SOL     OW83530   7.164   4.733   9.229  0.0685 -0.7158  0.4307
26581SOL    HW183531   7.156   4.637   9.223  0.2800 -0.7440  0.5902
26581SOL    HW283532   7.250   4.747   9.269 -0.7645 -0.5074  2.2080
26582SOL     OW83533   0.150   2.878   4.999 -0.1654 -0.1676 -0.3914
26582SOL    HW183534   0.241   2.900   5.021 -0.2118 -1.7940  1.7459
26582SOL    HW283535   0.149   2.876   4.904  2.2279 -0.7480 -0.4714
26583SOL     OW83536  10.106   6.953   4.160  0.0185  0.1468 -0.1862
26583SOL    HW183537  10.072   7.016   4.096  0.2542  2.4963  1.8614
26583SOL    HW283538  10.029   6.926   4.211  0.1481 -0.1725 -0.1530
26584SOL     OW83539   8.829   1.377   7.675  0.1500 -0.3308  0.1354
26584SOL    HW183540   8.783   1.422   7.745  0.3405  0.8711 -0.4944
26584SOL    HW283541   8.854   1.293   7.713  1.6315  0.8887  2.0368
26585SOL     OW83542   9.582   1.994   1.083  0.2064  0.2457 -0.1068
26585SOL    HW183543   9.535   1.968   1.163 -1.1518  0.4400 -0.7989
26585SOL    HW283544   9.597   2.088   1.094  2.1352 -0.1325  0.9231
26586SOL     OW83545   8.468   7.863   5.086  0.0091  0.1382 -0.6669
26586SOL    HW183546   8.505   7.942   5.046 -0.0472  0.8349  0.5953
26586SOL    HW283547   8.528   7.842   5.158 -0.2741 -0.6578 -0.6517
26587SOL     OW83548   5.654   7.711   1.670 -0.0908 -0.0318 -0.0024
26587SOL    HW183549   5.641   7.618   1.691  0.1498  0.1087  0.8330
26587SOL    HW283550   5.711   7.710   1.593 -0.2672 -0.5798 -0.1318
26588SOL     OW83551   1.074   7.092   0.886  0.3853  0.4147 -0.0322
26588SOL    HW183552   1.083   7.186   0.869  0.1045  0.6093  0.8711
26588SOL    HW283553   1.100   7.051   0.804  2.7504  1.1970  0.2514
26589SOL     OW83554   1.634   3.853   6.779  0.0151 -0.0188  0.8975
26589SOL    HW183555   1.616   3.760   6.762 -0.8985  0.4478 -0.9450
26589SOL    HW283556   1.729   3.861   6.767  0.1134 -0.7349  1.1686
26590SOL     OW83557   6.847   3.552   0.316 -0.0058 -0.2350 -0.4767
26590SOL    HW183558   6.754   3.544   0.292  0.0094 -0.3388 -0.5023
26590SOL    HW283559   6.866   3.472   0.365  0.7794 -1.5641 -2.8002
26591SOL     OW83560   5.176   9.566   0.739 -0.4636  0.3233  0.2763
26591SOL    HW183561   5.194   9.512   0.816 -1.1648 -0.2630  0.0418
26591SOL    HW283562   5.202   9.654   0.765 -0.8545  0.1683  1.2471
26592SOL     OW83563   3.856   4.633   9.390 -0.1834  0.3016  0.2654
26592SOL    HW183564   3.936   4.645   9.340  0.6183  1.0513  1.6476
26592SOL    HW283565   3.789   4.680   9.341  0.4602  0.5840 -0.3579
26593SOL     OW83566   8.283   1.500   4.039  0.6825 -0.2287  0.0654
26593SOL    HW183567   8.327   1.415   4.040  2.3497  0.6055  0.9712
26593SOL    HW283568   8.244   1.508   4.126  3.0401  1.1291  1.0798
26594SOL     OW83569   9.948   6.054   8.483 -0.5470 -0.5512  0.4050
26594SOL    HW183570  10.035   6.016   8.472 -0.4887 -0.0054 -1.4114
26594SOL    HW283571   9.897   6.020   8.409 -1.0524  1.2589 -0.1387
26595SOL     OW83572   8.491   8.337   7.517 -1.0280 -0.3557  0.0480
26595SOL    HW183573   8.495   8.276   7.442 -1.3981  0.1897 -0.4203
26595SOL    HW283574   8.575   8.382   7.515 -1.0094 -0.3921 -0.0006
26596SOL     OW83575  10.141   2.970   0.345 -0.7131 -0.4975 -0.1288
26596SOL    HW183576  10.149   3.029   0.420  0.7934 -1.1466  0.2505
26596SOL    HW283577  10.149   2.882   0.382 -0.2723 -0.8410 -1.0030
26597SOL     OW83578   7.906   3.501   3.012 -0.0807  0.4368 -0.3620
26597SOL    HW183579   7.885   3.563   3.081  0.0907  0.7212 -0.5641
26597SOL    HW283580   7.991   3.465   3.037 -0.1525  0.3246 -0.2759
26598SOL     OW83581   2.742   1.979   0.105  0.7472 -0.4872 -0.1738
26598SOL    HW183582   2.764   2.049   0.167  0.1875  0.2108 -0.7353
26598SOL    HW283583   2.681   1.923   0.153  0.0608  0.2296 -0.1843
26599SOL     OW83584   0.442   4.494   7.277 -0.1330  0.1616  0.3334
26599SOL    HW183585   0.507   4.561   7.298  1.3228 -0.7350 -1.0548
26599SOL    HW283586   0.390   4.533   7.206  2.1204 -0.8598 -2.0441
26600SOL     OW83587   3.444   3.594   9.169 -0.2073 -0.3493 -0.2822
26600SOL    HW183588   3.482   3.591   9.257 -1.0177  1.6825  0.1898
26600SOL    HW283589   3.520   3.600   9.111  0.3293 -1.4947  0.2812
26601SOL     OW83590   8.297   5.255   7.465 -0.3699  0.1648  0.3196
26601SOL    HW183591   8.384   5.270   7.502  0.5509 -0.0246 -1.6122
26601SOL    HW283592   8.285   5.326   7.403  0.0628 -1.7568 -2.1445
26602SOL     OW83593  10.218  10.200  10.227 -0.0653 -0.8568  0.0553
26602SOL    HW183594  10.305  10.163  10.240  0.3977 -0.3990 -1.5013
26602SOL    HW283595  10.173  10.137  10.171 -0.4119 -0.6596  0.1093
26603SOL     OW83596   7.947   5.687   1.672 -0.2888 -0.1417 -0.0605
26603SOL    HW183597   7.982   5.599   1.656  0.9008 -0.0395  1.7112
26603SOL    HW283598   7.934   5.724   1.585 -0.7097 -2.0199 -0.8444
26604SOL     OW83599   3.855   1.986   3.192  0.1523 -0.3363 -0.6014
26604SOL    HW183600   3.893   1.948   3.271  2.0517  0.5469 -1.0216
26604SOL    HW283601   3.790   2.048   3.223  3.0559  2.4091  0.5447
26605SOL     OW83602   7.883   8.083   0.026 -0.7809 -0.7301  0.6923
26605SOL    HW183603   7.817   8.151   0.038 -0.4196 -0.4651  1.2441
26605SOL    HW283604   7.897   8.079  -0.068 -0.5620  0.1994  0.6777
26606SOL     OW83605   7.211   2.707   2.305 -0.2210 -0.6401  0.0199
26606SOL    HW183606   7.185   2.797   2.287 -0.5745 -0.6915  0.2619
26606SOL    HW283607   7.306   2.711   2.314  0.0367 -0.6648 -2.1600
26607SOL     OW83608   6.047   3.331   6.623 -0.1657  0.1336  0.5857
26607SOL    HW183609   6.050   3.295   6.712 -0.3437  0.3010  0.6595
26607SOL    HW283610   6.097   3.412   6.629  0.7740 -0.4054  0.2743
26608SOL     OW83611   7.391   3.466   2.214 -0.0971 -0.1807 -0.3216
26608SOL    HW183612   7.423   3.408   2.283 -0.9175 -2.0399 -1.4412
26608SOL    HW283613   7.339   3.532   2.260 -1.6234 -2.0737  0.7926
26609SOL     OW83614   6.139   6.810   9.461  0.2057  0.0892  0.5353
26609SOL    HW183615   6.216   6.848   9.419  0.9537  0.3734  2.0836
26609SOL    HW283616   6.161   6.717   9.471  1.7425  0.6598  3.6935
26610SOL     OW83617   1.947   8.673   0.833  0.1720  0.4390 -0.0115
26610SOL    HW183618   1.951   8.629   0.918  0.3804  0.2512 -0.1175
26610SOL    HW283619   1.881   8.741   0.845  1.4338  1.5754  0.8440
26611SOL     OW83620  10.015   8.999   9.357 -0.4134  0.6772  0.2107
26611SOL    HW183621   9.981   8.913   9.333  0.7051  0.2956 -0.0315
26611SOL    HW283622   9.979   9.016   9.444 -2.1579  0.8031 -0.4855
26612SOL     OW83623   0.384   9.579   9.066 -0.2103  0.3536  0.6956
26612SOL    HW183624   0.316   9.560   9.001 -1.2372  0.6043  1.6756
26612SOL    HW283625   0.424   9.494   9.084  0.4122  0.3476 -0.5908
26613SOL     OW83626   5.432   5.021   0.261 -0.6615  0.2593 -0.0608
26613SOL    HW183627   5.470   4.933   0.263 -0.4577  0.3531  0.5472
26613SOL    HW283628   5.343   5.008   0.296 -0.7900  0.2246 -0.3978
26614SOL     OW83629   5.402   1.739  10.220  0.5413 -0.2591  0.2653
26614SOL    HW183630   5.405   1.765  10.312  0.3362  0.8063 -0.0127
26614SOL    HW283631   5.309   1.739  10.198  0.5397 -1.1776  0.2297
26615SOL     OW83632   3.483   1.393   0.550  0.4225  0.2135 -0.1718
26615SOL    HW183633   3.469   1.439   0.467 -1.7746  2.2562  1.1843
26615SOL    HW283634   3.578   1.396   0.564  0.6021  2.1389 -1.4018
26616SOL     OW83635   9.136   3.041   7.079 -0.2533 -0.0124  0.2431
26616SOL    HW183636   9.052   3.081   7.102 -1.3986 -1.4737 -1.1834
26616SOL    HW283637   9.161   3.083   6.997  1.8972  2.4194  1.9789
26617SOL     OW83638   6.020   6.946   1.772  0.0928 -0.1195  0.1143
26617SOL    HW183639   6.016   7.002   1.694  2.2807  1.1984  0.8442
26617SOL    HW283640   6.106   6.904   1.767 -0.5458 -1.5782  0.8256
26618SOL     OW83641   6.451   3.882   9.467  0.0127 -0.7635  0.1423
26618SOL    HW183642   6.367   3.887   9.422 -0.3243 -2.2682  0.5429
26618SOL    HW283643   6.514   3.865   9.397 -0.3055 -1.6295  0.0590
26619SOL     OW83644   6.685   3.631   4.479  0.1381  0.0146  0.1201
26619SOL    HW183645   6.674   3.585   4.396 -0.8151  0.0733  0.2031
26619SOL    HW283646   6.631   3.583   4.541  0.1449  0.4862  0.5040
26620SOL     OW83647   9.465   7.718   9.621  0.2284 -0.0557  0.3142
26620SOL    HW183648   9.492   7.809   9.631  1.9997 -0.4215 -0.8622
26620SOL    HW283649   9.464   7.702   9.527 -2.6756 -0.5557  0.3064
26621SOL     OW83650   0.490   7.285   5.954  0.2259  0.3966 -0.5954
26621SOL    HW183651   0.518   7.266   5.864 -0.4438  0.0392 -0.7364
26621SOL    HW283652   0.432   7.361   5.944  0.9957  1.0261 -0.3296
26622SOL     OW83653   7.009   9.955   1.917  0.0912 -0.1830 -0.6893
26622SOL    HW183654   7.029  10.005   1.996 -0.6797 -2.3586  0.9667
26622SOL    HW283655   6.920   9.981   1.894 -0.4254 -0.9986  0.3458
26623SOL     OW83656  10.221   0.973   9.797 -0.5388 -0.6116  0.5876
26623SOL    HW183657  10.275   0.896   9.816 -0.9639 -1.3270 -0.9979
26623SOL    HW283658  10.281   1.034   9.755 -0.7547 -1.0626 -0.3869
26624SOL     OW83659   1.586   2.524   0.068  0.3932 -0.0730  0.6581
26624SOL    HW183660   1.568   2.444   0.117  0.0011 -0.2126  0.2963
26624SOL    HW283661   1.548   2.508  -0.019  2.7692 -0.6034 -0.3523
26625SOL     OW83662   0.263   6.938   0.821  0.5916  0.1628 -0.1881
26625SOL    HW183663   0.167   6.931   0.824  0.7107 -1.3330  0.7767
26625SOL    HW283664   0.279   7.010   0.760 -1.1509  0.5854 -0.2045
26626SOL     OW83665   0.074   2.911   3.595 -0.7818 -0.5032 -0.4385
26626SOL    HW183666   0.044   2.959   3.673 -0.4016  0.4599 -0.8672
26626SOL    HW283667  -0.005   2.869   3.561 -0.8036 -1.6443  0.9354
26627SOL     OW83668   1.494   5.507   3.699 -0.2341  0.1387 -0.0211
26627SOL    HW183669   1.566   5.571   3.697 -2.0022  2.4522  2.9827
26627SOL    HW283670   1.454   5.514   3.612  1.8407  0.2885 -1.0439
26628SOL     OW83671   3.224   7.247   3.219 -0.1059  0.0773  0.7777
26628SOL    HW183672   3.278   7.184   3.267 -1.1343  0.6642  2.8076
26628SOL    HW283673   3.177   7.295   3.286 -1.1304  1.4328 -0.8188
26629SOL     OW83674   1.522   8.453   4.703 -0.3054  0.1614  0.5070
26629SOL    HW183675   1.440   8.429   4.659  0.4990 -0.8354 -0.5027
26629SOL    HW283676   1.589   8.401   4.659  0.8305  0.6761  1.5722
26630SOL     OW83677   3.264   3.804   3.905  0.1367  0.2512 -0.2464
26630SOL    HW183678   3.239   3.834   3.817  1.1982 -1.3890 -1.1505
26630SOL    HW283679   3.319   3.875   3.939  0.1183  0.6931 -1.1014
26631SOL     OW83680   3.589   0.061   7.904 -1.2812 -0.0716  0.3711
26631SOL    HW183681   3.632   0.085   7.986  0.3396  0.2722 -0.5174
26631SOL    HW283682   3.607   0.135   7.846 -2.9368 -0.0285 -0.1238
26632SOL     OW83683   0.868   0.570   9.311  0.2147  0.5157  0.1122
26632SOL    HW183684   0.871   0.486   9.265 -2.0612 -0.8362  2.1636
26632SOL    HW283685   0.940   0.565   9.373  0.8625  0.6412 -0.6174
26633SOL     OW83686   3.691   9.677   9.857 -0.8480  0.1594  0.5725
26633SOL    HW183687   3.781   9.669   9.888 -1.0944 -0.3308  1.1594
26633SOL    HW283688   3.667   9.767   9.879 -1.1586 -0.2975  2.1952
26634SOL     OW83689   3.019   9.113   9.182 -0.1164 -0.5020  0.0772
26634SOL    HW183690   2.930   9.104   9.218 -0.0873  0.9354  0.5676
26634SOL    HW283691   3.057   9.186   9.230  1.0561 -0.5759 -0.6984
26635SOL     OW83692   3.895   4.781   5.145  0.0350  0.6653  0.7150
26635SOL    HW183693   3.814   4.829   5.130 -0.4185  0.4871  2.3678
26635SOL    HW283694   3.867   4.696   5.179  0.8825 -0.0953 -0.3796
26636SOL     OW83695   6.421   6.907   3.280 -0.3187  0.0422 -0.1020
26636SOL    HW183696   6.479   6.837   3.309  0.8377  0.8190 -0.4682
26636SOL    HW283697   6.410   6.892   3.186 -0.4083  0.1028 -0.1008
26637SOL     OW83698   8.854   2.646   9.777  0.2287 -0.2876  0.2439
26637SOL    HW183699   8.771   2.678   9.813 -0.8692 -0.3824 -2.0116
26637SOL    HW283700   8.902   2.725   9.753  1.0738 -0.2149  1.9887
26638SOL     OW83701   8.469   2.157   7.697  0.4861  0.7238  0.0436
26638SOL    HW183702   8.412   2.184   7.770 -0.5777 -1.2388  0.0149
26638SOL    HW283703   8.558   2.172   7.729  0.1356 -1.7394  2.5359
26639SOL     OW83704   1.490   6.750  10.113 -0.1898  0.3290 -0.0859
26639SOL    HW183705   1.552   6.731  10.043 -0.4187 -1.5136  0.1631
26639SOL    HW283706   1.431   6.815  10.076  0.6064  0.5216 -1.0538
26640SOL     OW83707   1.547   9.114   2.784 -0.1843 -0.0268  0.1404
26640SOL    HW183708   1.573   9.204   2.800 -0.5269  0.2010 -0.5785
26640SOL    HW283709   1.502   9.088   2.864  1.5092 -0.1757  1.1042
26641SOL     OW83710   7.775   4.321   8.970 -0.1933 -0.1179  0.1070
26641SOL    HW183711   7.732   4.240   8.944  1.0602 -0.0911 -2.3491
26641SOL    HW283712   7.738   4.388   8.911  0.9325  0.4828  0.0516
26642SOL     OW83713   7.964   1.632   6.416 -0.3724 -0.1593  0.7808
26642SOL    HW183714   8.050   1.592   6.427 -0.6466 -0.6873  1.0503
26642SOL    HW283715   7.977   1.724   6.439  0.5984  0.2733 -1.2607
26643SOL     OW83716   4.840   6.638   3.785  0.4156  0.2434  0.4019
26643SOL    HW183717   4.881   6.577   3.724  0.6272  1.6524 -0.9245
26643SOL    HW283718   4.869   6.609   3.872  1.4063 -0.8442 -0.2658
26644SOL     OW83719   9.607   1.854   8.422 -0.3130 -0.7824 -0.1155
26644SOL    HW183720   9.664   1.930   8.415 -2.1257  0.5569 -0.8528
26644SOL    HW283721   9.647   1.801   8.492  0.8576  0.9401  0.5841
26645SOL     OW83722   1.684   3.315   3.502 -0.1745  0.3144 -0.3128
26645SOL    HW183723   1.677   3.359   3.417  0.2915  0.6385 -0.1820
26645SOL    HW283724   1.743   3.242   3.486  0.1250  0.5328 -0.2019
26646SOL     OW83725   6.010   6.830   8.311 -0.0847  0.1045 -0.0355
26646SOL    HW183726   6.104   6.817   8.324 -0.0144  1.8880  1.6801
26646SOL    HW283727   6.003   6.872   8.225  0.8192  1.1300  0.3707
26647SOL     OW83728   9.953   4.798   4.650 -0.1466 -0.3726  0.0881
26647SOL    HW183729   9.981   4.709   4.627 -0.4096 -1.0484  2.1856
26647SOL    HW283730  10.030   4.836   4.692 -0.2118  0.2000 -0.3105
26648SOL     OW83731   6.279   7.859   0.896  0.4670  0.4307  0.3126
26648SOL    HW183732   6.330   7.926   0.852  0.8513 -0.7690 -1.1704
26648SOL    HW283733   6.256   7.797   0.826 -1.1463 -0.2015  1.3485
26649SOL     OW83734   5.810   2.881   9.642 -0.2439  0.4713  0.4357
26649SOL    HW183735   5.865   2.876   9.565 -2.1319  0.0976 -0.9622
26649SOL    HW283736   5.786   2.973   9.649 -1.3936  0.2542 -0.4342
26650SOL     OW83737   1.968   4.840   3.273  0.1671  0.1609 -0.0093
26650SOL    HW183738   1.927   4.772   3.327 -2.6472  3.2084  2.0520
26650SOL    HW283739   2.041   4.872   3.326 -0.0857  0.4399  0.1717
26651SOL     OW83740   7.502   6.349   3.691  0.1891 -0.0081 -0.3614
26651SOL    HW183741   7.494   6.258   3.661 -2.4262  0.6330 -1.9200
26651SOL    HW283742   7.531   6.398   3.614 -1.7969  0.9437 -0.5569
26652SOL     OW83743   0.688   5.238   2.600  0.3408  0.4219  0.5770
26652SOL    HW183744   0.630   5.271   2.669 -1.0052  0.5350 -0.5569
26652SOL    HW283745   0.688   5.308   2.534 -0.8144 -0.8847 -0.8754
26653SOL     OW83746   0.225   4.962   4.813  0.1943 -0.1529  0.2703
26653SOL    HW183747   0.252   5.019   4.885  1.8733  0.3231 -0.6839
26653SOL    HW283748   0.236   5.015   4.735 -1.7443 -0.6092 -0.3783
26654SOL     OW83749   1.949   6.227   7.587 -0.6405 -1.1300 -0.3207
26654SOL    HW183750   1.877   6.244   7.526 -0.9554 -1.4694 -0.0408
26654SOL    HW283751   1.940   6.294   7.655 -0.9997 -1.4891 -0.0113
26655SOL     OW83752   8.524   3.612   1.937 -0.1170  0.3742 -0.4469
26655SOL    HW183753   8.485   3.685   1.985 -0.3156  0.3836 -0.6244
26655SOL    HW283754   8.558   3.650   1.856  0.7904  0.4761 -0.0340
26656SOL     OW83755   7.460   4.823   3.515 -0.0546  0.0516  0.1723
26656SOL    HW183756   7.430   4.740   3.551 -1.4419 -0.1213 -1.3109
26656SOL    HW283757   7.520   4.799   3.444  1.1344  0.3723  1.0337
26657SOL     OW83758   0.050   2.803   6.584 -0.5971  0.6859  0.1658
26657SOL    HW183759  -0.004   2.840   6.514 -0.4947 -1.1528 -0.9276
26657SOL    HW283760   0.027   2.710   6.587  0.5535  0.4027  1.5129
26658SOL     OW83761   3.893   3.214   1.848 -0.5222  0.1896 -0.1701
26658SOL    HW183762   3.861   3.293   1.893  2.1891  0.9623  0.5792
26658SOL    HW283763   3.961   3.247   1.789  2.2586 -1.7167  1.7470
26659SOL     OW83764   8.230   1.882   6.677 -0.7403  0.5564  0.0995
26659SOL    HW183765   8.300   1.919   6.623 -1.5954  1.3520 -0.5021
26659SOL    HW283766   8.254   1.906   6.767 -0.5369  1.3378 -0.1499
26660SOL     OW83767   0.865   3.388   7.343  0.1117 -0.5669 -0.3193
26660SOL    HW183768   0.826   3.450   7.404  1.1959 -0.8303  0.6823
26660SOL    HW283769   0.944   3.432   7.312  0.5061 -1.1458 -0.1519
26661SOL     OW83770   3.611   9.885   8.307 -0.6585  0.0224  0.4610
26661SOL    HW183771   3.640   9.796   8.287 -1.2565 -0.6898  2.4521
26661SOL    HW283772   3.530   9.896   8.257 -0.2023 -0.2527 -0.3618
26662SOL     OW83773   8.831   6.403  10.031 -0.5277  0.2682  0.2767
26662SOL    HW183774   8.846   6.497  10.041 -1.6080  0.6046 -0.9513
26662SOL    HW283775   8.866   6.383   9.944 -1.0778 -0.2768  0.1794
26663SOL     OW83776   0.075   1.829   5.453 -0.0264 -0.3127 -0.5086
26663SOL    HW183777  -0.020   1.813   5.452 -0.2564  0.7900 -3.1748
26663SOL    HW283778   0.083   1.924   5.448  1.2215 -0.4377 -1.0628
26664SOL     OW83779   5.121   6.507   5.667 -0.0445  0.3014 -0.1545
26664SOL    HW183780   5.198   6.482   5.717 -0.9413 -0.2284  1.0015
26664SOL    HW283781   5.156   6.552   5.590  1.3765  0.7814  0.7425
26665SOL     OW83782   5.402   4.099   6.826  0.2213 -0.5616  0.2818
26665SOL    HW183783   5.366   4.039   6.891 -1.3715 -0.4679 -0.4764
26665SOL    HW283784   5.410   4.047   6.747  0.0698 -0.1048 -0.0356
26666SOL     OW83785   6.650   2.475  10.053  0.3873  0.1931  0.1051
26666SOL    HW183786   6.602   2.449  10.132 -0.6970  1.4422 -0.1015
26666SOL    HW283787   6.728   2.420  10.052  0.0380 -0.3592  1.6476
26667SOL     OW83788   0.595   7.262  10.227  0.5068  0.5596 -0.4031
26667SOL    HW183789   0.523   7.199  10.219 -0.1700  1.5425 -3.6347
26667SOL    HW283790   0.558   7.335  10.278  0.1036 -0.0676  0.2147
26668SOL     OW83791   4.022   8.133   8.951  0.4549 -1.1099  0.1793
26668SOL    HW183792   3.988   8.150   9.039  1.0499 -0.2290  0.2461
26668SOL    HW283793   3.944   8.116   8.898 -0.3352  2.6529 -0.0891
26669SOL     OW83794  10.253   2.251   7.305 -0.0764 -0.3380  0.6729
26669SOL    HW183795  10.337   2.283   7.271 -0.0557 -1.3334 -0.2934
26669SOL    HW283796  10.269   2.237   7.399  0.7890 -0.3369  0.5365
26670SOL     OW83797   3.101   0.054   7.361 -0.1980  0.4717 -0.0365
26670SOL    HW183798   3.143   0.131   7.323 -0.1716 -0.9440 -3.2219
26670SOL    HW283799   3.011   0.081   7.377 -0.1699  1.1990 -1.0519
26671SOL     OW83800   4.409   8.268   3.346 -0.0911  0.1288 -0.2427
26671SOL    HW183801   4.477   8.321   3.388  0.0073  0.0077 -0.2511
26671SOL    HW283802   4.334   8.276   3.404  0.0161  0.0383 -0.0921
26672SOL     OW83803   2.112   9.994   4.557  0.2538  0.3646 -0.0375
26672SOL    HW183804   2.088  10.008   4.465 -1.5880  0.4850  0.4199
26672SOL    HW283805   2.124  10.083   4.592 -0.5317  0.3901  0.1868
26673SOL     OW83806   3.907  10.107   6.639 -0.2422 -0.6281  0.5232
26673SOL    HW183807   3.822  10.132   6.675 -0.8323 -1.6040 -0.1109
26673SOL    HW283808   3.912  10.153   6.555  0.2516  0.1126  0.9558
26674SOL     OW83809   6.578   7.142   5.004  0.2396  0.1092  0.4941
26674SOL    HW183810   6.586   7.102   4.917  0.3388  0.4895  0.3229
26674SOL    HW283811   6.668   7.141   5.038 -0.0481 -1.5958  1.3159
26675SOL     OW83812   8.163   1.775   4.021  0.1360  0.0027 -0.4189
26675SOL    HW183813   8.178   1.684   3.995 -2.3969 -0.8789  0.9659
26675SOL    HW283814   8.234   1.795   4.082 -1.0865 -2.2529  1.9126
26676SOL     OW83815   6.315   4.200   7.378 -0.9767  0.0803  0.5905
26676SOL    HW183816   6.286   4.228   7.291 -0.6576  1.2565  0.8314
26676SOL    HW283817   6.321   4.282   7.428 -0.4759 -0.5011  1.5087
26677SOL     OW83818   0.499   2.008   0.264 -0.2634  0.1129  0.2806
26677SOL    HW183819   0.518   1.966   0.180  2.0653  1.9198 -0.1976
26677SOL    HW283820   0.474   1.936   0.322 -1.6728 -1.2236 -1.8281
26678SOL     OW83821   6.242   3.529  10.037 -0.1710  0.9294  0.1901
26678SOL    HW183822   6.320   3.504   9.987  0.1400 -0.8614  1.4796
26678SOL    HW283823   6.169   3.497   9.984  0.1014  0.0717  0.3161
26679SOL     OW83824   4.120   1.704   3.614 -0.2790 -0.0980 -0.1407
26679SOL    HW183825   4.085   1.790   3.591 -3.9339 -1.3374  0.1724
26679SOL    HW283826   4.113   1.652   3.534  1.6679 -0.2739 -0.2673
26680SOL     OW83827   4.965   3.297   9.244  0.0330 -0.7064  0.1258
26680SOL    HW183828   5.054   3.314   9.277 -0.3724  0.9151  0.4515
26680SOL    HW283829   4.962   3.341   9.160 -0.8006  0.1770  0.6090
26681SOL     OW83830   1.055  10.194   6.643  0.1480 -0.0601  0.5932
26681SOL    HW183831   1.029  10.267   6.699 -0.1694 -0.7571  1.3881
26681SOL    HW283832   1.045  10.226   6.554 -0.7884  0.5902  0.9200
26682SOL     OW83833   0.987   4.657   1.129  0.2231  0.0076 -0.2018
26682SOL    HW183834   1.046   4.582   1.130  0.9121  0.5078  1.9716
26682SOL    HW283835   1.018   4.711   1.057  0.6026 -1.1061 -0.9019
26683SOL     OW83836   1.689  10.050   1.541 -0.2660  0.2619 -0.2243
26683SOL    HW183837   1.639  10.056   1.460  0.9625 -2.5104 -1.3428
26683SOL    HW283838   1.774  10.089   1.520 -0.4310  0.9130  0.2577
26684SOL     OW83839   3.549  10.075   3.725 -0.5836 -0.0163  0.0881
26684SOL    HW183840   3.492  10.014   3.680 -0.3408  0.0610 -0.3275
26684SOL    HW283841   3.612  10.104   3.659 -1.0098  1.0789  0.1309
26685SOL     OW83842   1.779   6.096   5.842  0.0434 -0.6303 -0.1772
26685SOL    HW183843   1.718   6.045   5.896  0.9542 -1.6240 -0.0519
26685SOL    HW283844   1.744   6.090   5.754 -1.6982  1.3614  0.2893
26686SOL     OW83845   8.878   8.732   0.417  0.1898  0.1150 -0.3147
26686SOL    HW183846   8.818   8.672   0.372  0.9251 -1.1002  0.2582
26686SOL    HW283847   8.962   8.717   0.374  0.3387  0.9487 -0.3337
26687SOL     OW83848   4.349   4.236  10.322 -0.4842 -0.2522 -0.2414
26687SOL    HW183849   4.363   4.188  10.403 -0.7473 -0.1160 -0.1132
26687SOL    HW283850   4.318   4.171  10.260 -0.2930 -0.3544 -0.2319
26688SOL     OW83851   3.366   1.986   9.842  0.2123 -0.5079  0.8272
26688SOL    HW183852   3.423   2.009   9.916  3.2806  2.0407 -2.0076
26688SOL    HW283853   3.396   1.900   9.814  1.1652 -0.1529  0.7236
26689SOL     OW83854   4.792   4.242   0.707 -0.1589 -0.0876 -0.0511
26689SOL    HW183855   4.842   4.185   0.648 -1.3389 -1.0307 -0.1889
26689SOL    HW283856   4.702   4.239   0.673 -0.7578 -0.2221  1.4637
26690SOL     OW83857   6.045   1.285   5.654  0.0654 -0.1469 -0.0609
26690SOL    HW183858   5.997   1.230   5.716  0.1766  0.4804  0.5905
26690SOL    HW283859   6.037   1.239   5.570 -2.6312  0.4738 -0.2387
26691SOL     OW83860   8.552   2.724   4.322 -0.5439 -0.8422 -0.5071
26691SOL    HW183861   8.536   2.794   4.259  4.0542  1.0392  0.0148
26691SOL    HW283862   8.607   2.661   4.274  2.1894  0.1337  1.0798
26692SOL     OW83863   7.410   6.745   9.408  0.0282  0.2504 -0.1734
26692SOL    HW183864   7.324   6.786   9.405 -0.1522 -0.1263 -0.1441
26692SOL    HW283865   7.393   6.652   9.395  0.2897 -0.0194  1.3230
26693SOL     OW83866   6.430   1.932   4.287 -0.0441 -0.2726 -0.0140
26693SOL    HW183867   6.429   1.843   4.324 -1.3100  0.3416  1.5761
26693SOL    HW283868   6.385   1.924   4.203  0.8930 -1.3307 -0.4297
26694SOL     OW83869   1.319   2.452   5.575  0.4902 -0.0109 -0.3897
26694SOL    HW183870   1.392   2.477   5.633  0.9191 -1.8832 -0.0718
26694SOL    HW283871   1.274   2.382   5.622 -0.2020 -0.3878 -1.5722
26695SOL     OW83872   4.909   6.241   8.895 -0.0629  0.2669  0.2841
26695SOL    HW183873   4.918   6.279   8.982  2.4853  1.3810 -0.3704
26695SOL    HW283874   4.830   6.187   8.901 -0.6445  1.2202  2.9051
26696SOL     OW83875   2.134   9.530   1.261  0.4518 -0.3272  0.0632
26696SOL    HW183876   2.124   9.520   1.356 -0.8631  1.7345  0.2168
26696SOL    HW283877   2.045   9.542   1.229  0.9955  0.3844 -1.2416
26697SOL     OW83878   6.453   2.942   9.190 -0.1043 -0.5247 -0.6099
26697SOL    HW183879   6.427   2.955   9.099  0.3621 -2.6292 -1.1113
26697SOL    HW283880   6.495   2.855   9.191  3.7586  1.1174  0.7780
26698SOL     OW83881   4.215   0.508   0.889  0.1689 -0.1919  0.3787
26698SOL    HW183882   4.224   0.463   0.973 -0.5837 -0.2430  0.4337
26698SOL    HW283883   4.299   0.552   0.877 -0.5822  2.0395  2.4550
26699SOL     OW83884   8.775   1.776   6.535 -0.2287  0.3928  0.1690
26699SOL    HW183885   8.710   1.770   6.605  0.3199  0.2869  0.6735
26699SOL    HW283886   8.803   1.867   6.535  0.7359  0.1100  0.9762
26700SOL     OW83887   1.663   5.552   4.712 -0.2941 -0.0631  0.0355
26700SOL    HW183888   1.646   5.483   4.776  2.5145 -0.0920  0.8991
26700SOL    HW283889   1.758   5.564   4.715 -0.5760  3.2575 -0.7195
26701SOL     OW83890   0.907   4.232   2.786 -0.2393  0.2537 -0.3856
26701SOL    HW183891   0.866   4.183   2.715 -1.4342  1.3200 -0.4514
26701SOL    HW283892   0.902   4.174   2.861  0.3953 -0.6017 -0.9803
26702SOL     OW83893   4.874   0.617   6.311  0.3030 -0.3919 -0.0706
26702SOL    HW183894   4.916   0.545   6.359 -1.0506  1.0972  3.6893
26702SOL    HW283895   4.946   0.677   6.292  0.8892 -0.9722  0.2534
26703SOL     OW83896  10.129   8.332   1.801 -0.8545 -0.0115 -0.0691
26703SOL    HW183897  10.035   8.345   1.814 -0.7177  0.3339  0.5879
26703SOL    HW283898  10.169   8.357   1.884 -0.2543 -0.9968 -0.0366
26704SOL     OW83899   3.945   3.133   6.736 -0.0995 -0.0109  0.5596
26704SOL    HW183900   3.983   3.057   6.692  0.9315  0.3894  0.7276
26704SOL    HW283901   3.931   3.103   6.826  0.8218  0.1486  0.7677
26705SOL     OW83902   0.069   0.757   9.903 -0.1142  0.1851 -0.0249
26705SOL    HW183903  -0.017   0.716   9.909  0.2214 -0.4776  0.4143
26705SOL    HW283904   0.126   0.701   9.956  0.6190  0.5237 -0.4374
26706SOL     OW83905   0.335   7.985   6.788 -0.1061  0.5549  0.1038
26706SOL    HW183906   0.249   8.025   6.778 -0.0619  0.3893 -1.0656
26706SOL    HW283907   0.394   8.040   6.737  0.4922  0.6443  0.8575
26707SOL     OW83908   9.068   4.562   4.335 -0.2882 -0.1315  0.1861
26707SOL    HW183909   9.045   4.616   4.259 -1.9372 -0.8049  0.1791
26707SOL    HW283910   9.094   4.478   4.298  1.8819  0.4680  0.2252
26708SOL     OW83911   2.982   7.199   4.289  0.3316 -0.3677 -0.3023
26708SOL    HW183912   2.927   7.122   4.301 -0.5413  0.2243 -0.3737
26708SOL    HW283913   3.051   7.171   4.229 -0.2830 -0.9507 -0.7509
26709SOL     OW83914   0.541   7.909   5.748 -0.4325  0.1485 -0.1986
26709SOL    HW183915   0.539   7.822   5.710 -0.8825  0.1557 -0.2050
26709SOL    HW283916   0.632   7.938   5.740 -0.2314 -0.4169  0.0335
26710SOL     OW83917   6.526   0.564   3.327  0.3401 -0.0365 -0.0372
26710SOL    HW183918   6.486   0.651   3.327  1.2754  0.4067 -0.1930
26710SOL    HW283919   6.597   0.570   3.263  0.8287 -0.7235  0.4292
26711SOL     OW83920   9.784   6.905   0.196 -0.4747 -0.0998 -0.4280
26711SOL    HW183921   9.857   6.967   0.199 -1.1951  0.7488  0.1276
26711SOL    HW283922   9.708   6.959   0.176 -1.2581 -0.6667  0.8971
26712SOL     OW83923   5.699   2.024   7.594  0.2039 -0.2702 -0.2446
26712SOL    HW183924   5.672   1.933   7.586 -0.4375 -0.2183  1.2157
26712SOL    HW283925   5.633   2.073   7.546  1.2346 -0.6202 -2.1555
26713SOL     OW83926   0.764   8.130   7.321 -0.0538  0.1313 -0.7716
26713SOL    HW183927   0.705   8.163   7.389 -0.5117 -1.5000 -0.3354
26713SOL    HW283928   0.791   8.208   7.273 -1.3049  1.0955  0.0258
26714SOL     OW83929   4.107   6.555  10.005 -0.0523  0.0822  0.2427
26714SOL    HW183930   4.050   6.632  10.008 -0.2062 -0.0401  0.4997
26714SOL    HW283931   4.154   6.557  10.088 -1.0625 -0.8581  0.8608
26715SOL     OW83932   2.291   9.157   0.469 -0.5056 -0.1147  0.4565
26715SOL    HW183933   2.286   9.248   0.497  1.3936  0.2138 -0.0999
26715SOL    HW283934   2.305   9.161   0.374  0.3775 -0.9447  0.5346
26716SOL     OW83935   0.971   8.442   3.755  0.3509 -0.1459  0.1552
26716SOL    HW183936   1.048   8.418   3.702  0.7716  0.7494  0.3458
26716SOL    HW283937   0.988   8.532   3.782 -1.6729  0.7626 -1.3912
26717SOL     OW83938   8.877   8.083   6.940 -0.0082  1.0001 -0.8036
26717SOL    HW183939   8.909   8.075   7.030  1.1484  3.0628 -0.9545
26717SOL    HW283940   8.909   8.005   6.896  1.6652  1.1894 -0.0156
26718SOL     OW83941   2.598   0.428   6.642  0.2106  0.1461 -0.0084
26718SOL    HW183942   2.576   0.433   6.735 -0.9449  2.1384 -0.3174
26718SOL    HW283943   2.542   0.358   6.607  2.0067 -1.9455  1.0584
26719SOL     OW83944   1.734   2.011   8.759 -0.5405 -0.5601 -0.2175
26719SOL    HW183945   1.667   1.986   8.823 -1.7622  2.4059 -0.1563
26719SOL    HW283946   1.816   2.003   8.807 -1.2052 -0.7227  0.9348
26720SOL     OW83947   6.174   6.801   2.166  0.0883  0.1000  0.1553
26720SOL    HW183948   6.223   6.864   2.218 -0.2476  1.9879 -1.6881
26720SOL    HW283949   6.111   6.854   2.118 -0.9304 -1.7906 -0.6973
26721SOL     OW83950   5.211   0.408   2.542 -0.0799 -0.4009  0.3794
26721SOL    HW183951   5.249   0.483   2.588 -1.8281  0.7276  0.0895
26721SOL    HW283952   5.280   0.379   2.482  0.6266  0.9895  0.4871
26722SOL     OW83953   8.773  10.178   2.153  0.3877  0.0570 -0.0677
26722SOL    HW183954   8.824  10.164   2.233 -3.1635 -2.1923  2.1024
26722SOL    HW283955   8.766  10.091   2.114 -2.6124 -0.0475  0.4554
26723SOL     OW83956   1.012   5.496   5.205  0.6121 -0.5918  0.1623
26723SOL    HW183957   1.090   5.549   5.192  0.8808 -1.2285 -0.8954
26723SOL    HW283958   1.025   5.454   5.290  1.3488 -0.5727  0.0613
26724SOL     OW83959   2.977   9.427   7.547  0.0540  0.2725  0.1275
26724SOL    HW183960   2.991   9.521   7.561  0.4077  0.1614  0.5301
26724SOL    HW283961   3.062   9.393   7.521  0.3108 -0.2172  1.5569
26725SOL     OW83962   2.122   2.426   1.265  0.3087 -0.7032  0.2621
26725SOL    HW183963   2.082   2.512   1.276  1.5732 -0.0882  0.1891
26725SOL    HW283964   2.143   2.398   1.354  1.0259 -0.3817  0.1950
26726SOL     OW83965   5.898   5.560   3.666 -0.3903  0.3443  0.0234
26726SOL    HW183966   5.819   5.615   3.669 -0.8133 -0.2511  0.1724
26726SOL    HW283967   5.892   5.514   3.583 -0.4372 -0.0459  0.2428
26727SOL     OW83968   7.073   9.706   1.966 -0.2859  0.3488 -0.0086
26727SOL    HW183969   7.053   9.798   1.952 -3.0027 -0.1625 -0.1265
26727SOL    HW283970   7.041   9.662   1.887  0.7337 -0.7290  0.1474
26728SOL     OW83971   7.768   5.140   1.201  0.3017  0.1053 -1.0095
26728SOL    HW183972   7.810   5.061   1.235 -0.3034 -0.2996 -1.1765
26728SOL    HW283973   7.840   5.194   1.169  1.0150  0.9372  1.7260
26729SOL     OW83974   7.813   5.420   0.146  0.2702  0.1254  0.2795
26729SOL    HW183975   7.857   5.452   0.225 -0.4746 -0.5294  0.9809
26729SOL    HW283976   7.818   5.325   0.153 -0.5679  0.0475 -0.0151
26730SOL     OW83977   6.101   1.113   8.890  0.5337  0.3817  0.0071
26730SOL    HW183978   6.180   1.109   8.835 -0.5415 -0.6425 -1.5261
26730SOL    HW283979   6.100   1.029   8.936 -0.6185 -0.4263 -1.4155
26731SOL     OW83980   5.187   5.288   6.240  0.0868  0.2188 -0.2721
26731SOL    HW183981   5.146   5.210   6.203 -0.3775  0.9219 -1.2852
26731SOL    HW283982   5.238   5.325   6.168  0.5830  0.6640  0.2965
26732SOL     OW83983   4.304   4.873   6.458 -0.1783 -0.0321 -0.0702
26732SOL    HW183984   4.359   4.808   6.415 -0.4521  0.9838 -2.0352
26732SOL    HW283985   4.302   4.947   6.398 -3.5754  0.0482 -0.0452
26733SOL     OW83986   1.985   4.425   0.097 -0.4798  0.2099  0.5779
26733SOL    HW183987   1.944   4.473   0.168 -0.1826  0.9170  0.2791
26733SOL    HW283988   1.968   4.479   0.019 -1.4130 -0.8915 -0.0168
26734SOL     OW83989   1.232   9.296   5.262  0.5834 -0.3314 -0.2322
26734SOL    HW183990   1.187   9.236   5.321  0.1037 -1.5241 -1.7254
26734SOL    HW283991   1.322   9.264   5.258  0.9471  0.5040  0.7698
26735SOL     OW83992   7.645   2.054   5.124 -0.1282  0.9737 -0.0203
26735SOL    HW183993   7.629   1.995   5.051 -0.7861 -0.1366  0.9912
26735SOL    HW283994   7.560   2.062   5.168  0.8524 -0.9692  2.4816
26736SOL     OW83995  10.006   3.908   0.087  0.5195 -0.0431  0.1378
26736SOL    HW183996   9.972   3.864   0.009  0.5032  1.2629 -0.6204
26736SOL    HW283997  10.100   3.917   0.071  0.5863 -0.1447  0.4653
26737SOL     OW83998   6.674   9.023   2.698  0.5972  0.1153 -0.2677
26737SOL    HW183999   6.598   9.072   2.730  0.4443 -0.6788  0.6554
26737SOL    HW284000   6.646   8.931   2.704  1.4278 -0.1524 -0.4648
26738SOL     OW84001   4.171   2.369   6.930  0.5972  0.1453  0.7373
26738SOL    HW184002   4.142   2.363   6.839  0.1080 -1.0579  0.9505
26738SOL    HW284003   4.101   2.418   6.974  0.3064 -0.2019  0.6698
26739SOL     OW84004   4.122   7.795   4.082  0.4863  0.4579  0.1059
26739SOL    HW184005   4.068   7.837   4.149  0.9249  0.4956  0.4424
26739SOL    HW284006   4.062   7.775   4.011  0.4250  2.6367 -0.5380
26740SOL     OW84007   1.733   2.706   6.412 -0.2555  0.1595 -0.4825
26740SOL    HW184008   1.668   2.651   6.455  1.8501 -0.3532  2.3176
26740SOL    HW284009   1.727   2.683   6.319 -1.3014 -2.7743  0.2226
26741SOL     OW84010   0.473   7.052   7.266  0.7032 -0.4456 -0.1367
26741SOL    HW184011   0.522   7.117   7.317 -0.4342  1.4537 -1.3873
26741SOL    HW284012   0.454   6.983   7.329  3.3272 -0.3927  0.8514
26742SOL     OW84013   4.169   9.744   2.680 -0.4590  0.0620 -0.8156
26742SOL    HW184014   4.144   9.670   2.625  0.7616 -0.8995 -0.1498
26742SOL    HW284015   4.214   9.804   2.621  1.4181 -1.2538 -0.8305
26743SOL     OW84016   8.259   9.296   9.309  0.2699  0.0217 -0.3448
26743SOL    HW184017   8.242   9.208   9.275 -0.0155  0.0948 -0.3909
26743SOL    HW284018   8.318   9.336   9.244 -1.2975  0.6258 -1.4546
26744SOL     OW84019   0.025   7.645   7.799  0.3272 -0.9418  0.1409
26744SOL    HW184020   0.070   7.568   7.763 -0.9977 -1.6564 -0.0236
26744SOL    HW284021   0.046   7.716   7.737  0.5930 -1.4447 -0.3509
26745SOL     OW84022   1.870   5.266   6.926 -0.0602  0.1840  0.1192
26745SOL    HW184023   1.902   5.354   6.906  0.5912 -0.0630  0.0216
26745SOL    HW284024   1.937   5.229   6.984  0.5661 -0.8323 -1.1771
26746SOL     OW84025   1.398   7.446   8.889 -0.6398  0.2985 -0.1542
26746SOL    HW184026   1.471   7.389   8.911 -0.6160  0.3947  0.0216
26746SOL    HW284027   1.427   7.496   8.813 -0.6710  0.0570 -0.3237
26747SOL     OW84028   0.663   6.731   7.595  0.3029  0.0467  0.3058
26747SOL    HW184029   0.567   6.737   7.588  0.2500  1.2935  1.7231
26747SOL    HW284030   0.685   6.650   7.549 -1.2824  0.4555 -1.2683
26748SOL     OW84031   2.292   5.151   1.470 -0.0281 -0.3750 -0.1661
26748SOL    HW184032   2.281   5.230   1.523 -0.9897 -0.4084 -0.2959
26748SOL    HW284033   2.306   5.183   1.381  0.3898 -0.3388 -0.0880
26749SOL     OW84034   4.289   6.269   9.472  0.0718  0.1740 -0.6119
26749SOL    HW184035   4.281   6.353   9.426  1.0184  0.1727 -0.7893
26749SOL    HW284036   4.370   6.275   9.521 -0.3188 -0.2957  0.1108
26750SOL     OW84037   3.466   6.767   6.487 -0.0568  0.3188  0.7234
26750SOL    HW184038   3.434   6.776   6.397  2.0111 -1.7110 -0.2967
26750SOL    HW284039   3.426   6.841   6.533 -1.4842  1.2235 -1.7445
26751SOL     OW84040   6.768   9.786   3.322  0.5571  0.3105  0.3554
26751SOL    HW184041   6.699   9.782   3.256  1.0159  1.4683 -0.2203
26751SOL    HW284042   6.730   9.743   3.398 -0.9083  1.1358  0.1437
26752SOL     OW84043   7.933   2.264   9.837  0.1760  0.3441  0.7919
26752SOL    HW184044   7.884   2.268   9.919  1.8741 -0.6460  1.9192
26752SOL    HW284045   8.005   2.325   9.850  0.2873  0.3995 -0.0872
26753SOL     OW84046   5.746   3.963   0.526 -0.0687  0.2397  0.2976
26753SOL    HW184047   5.781   3.997   0.443  2.6175 -1.0337  0.8189
26753SOL    HW284048   5.657   3.936   0.504  0.0347  1.3368 -1.7852
26754SOL     OW84049   4.034   9.184   4.636 -0.9193  0.2937 -0.1920
26754SOL    HW184050   4.024   9.125   4.711 -1.1460  0.3883 -0.1490
26754SOL    HW284051   4.125   9.213   4.641 -0.5752 -0.6524 -0.6519
26755SOL     OW84052   7.924   1.505   4.691  0.2553  0.0315 -0.2266
26755SOL    HW184053   7.953   1.596   4.681  0.1971  0.0534 -0.2007
26755SOL    HW284054   7.933   1.467   4.604  2.1592 -0.5059  0.1664
26756SOL     OW84055   9.403   0.237   4.450  0.2361 -0.4826 -0.1281
26756SOL    HW184056   9.352   0.203   4.524  0.7023 -0.0402  0.4068
26756SOL    HW284057   9.492   0.204   4.465  0.5425  0.3887  0.0318
26757SOL     OW84058   1.220   6.757   6.659  0.1957 -0.0982 -0.2975
26757SOL    HW184059   1.140   6.705   6.669 -0.7267  1.1849 -0.7335
26757SOL    HW284060   1.262   6.722   6.581  0.6334 -1.4598  0.5012
26758SOL     OW84061   1.840  10.107   3.776  0.1426 -0.4591 -0.1032
26758SOL    HW184062   1.786  10.178   3.742 -1.1998 -1.4885 -0.2237
26758SOL    HW284063   1.855  10.129   3.868 -0.3223 -0.0643 -0.1219
26759SOL     OW84064   9.146   6.896   8.372 -0.1967  0.2551  0.0229
26759SOL    HW184065   9.189   6.888   8.286 -1.0096 -0.9886 -0.3047
26759SOL    HW284066   9.183   6.824   8.424 -0.8941 -0.0066  0.1670
26760SOL     OW84067   2.036   9.640  10.053  0.2951 -0.2672  0.1101
26760SOL    HW184068   2.023   9.559  10.101  0.0756 -1.4434 -1.8148
26760SOL    HW284069   2.039   9.613   9.961  0.4018  1.8865 -0.5778
26761SOL     OW84070   5.943   5.086   3.495  0.4445  0.0456  0.6206
26761SOL    HW184071   5.922   5.132   3.414 -1.1137  0.8185  1.4244
26761SOL    HW284072   6.001   5.015   3.467 -1.1671 -0.5994 -1.4241
26762SOL     OW84073  10.074   1.833   8.399 -0.3555  0.4171  0.5865
26762SOL    HW184074  10.127   1.864   8.472  1.2938 -1.2504  0.1984
26762SOL    HW284075  10.042   1.747   8.427 -0.1210 -0.0158 -0.4239
26763SOL     OW84076   4.770   8.781   6.827  0.3677 -0.2124  0.0697
26763SOL    HW184077   4.719   8.825   6.894 -1.2235 -0.9383 -0.6180
26763SOL    HW284078   4.851   8.832   6.821 -1.0035  2.0709 -0.0881
26764SOL     OW84079   7.719   5.569  10.015  0.0384  0.1136 -0.0922
26764SOL    HW184080   7.757   5.482  10.004  0.5444  0.4526 -1.0974
26764SOL    HW284081   7.708   5.602   9.926  2.3348  2.1377  0.2598
26765SOL     OW84082   0.252   3.491   5.802  0.9255 -0.3427 -0.2637
26765SOL    HW184083   0.175   3.464   5.751  1.1549 -0.3737 -0.5952
26765SOL    HW284084   0.242   3.586   5.812  0.3806 -0.4641  0.4704
26766SOL     OW84085   8.058   4.700   0.257  0.0392 -0.5488  0.2842
26766SOL    HW184086   8.024   4.642   0.325 -1.3972  1.4503  1.3873
26766SOL    HW284087   7.997   4.689   0.184  0.2203 -0.9930  0.1998
26767SOL     OW84088   5.706   1.572   5.383 -0.1507 -0.5159  0.0344
26767SOL    HW184089   5.612   1.580   5.400 -0.2666  1.7018 -1.2553
26767SOL    HW284090   5.747   1.598   5.465 -0.6979  0.9753 -0.1355
26768SOL     OW84091   7.957   4.493   7.190  0.1838  0.0270  0.1902
26768SOL    HW184092   7.915   4.562   7.138  0.8486  1.3574  1.3272
26768SOL    HW284093   7.884   4.449   7.233 -0.2206  0.6881  0.2091
26769SOL     OW84094   2.045   7.679   9.716 -0.3536  0.2256 -0.1904
26769SOL    HW184095   2.036   7.703   9.808  0.6172 -0.5580  0.1232
26769SOL    HW284096   2.102   7.602   9.716  0.1216  0.5453 -1.4821
26770SOL     OW84097   0.829   4.424   1.482  0.0944  0.4825  0.0710
26770SOL    HW184098   0.793   4.416   1.570 -1.6612 -1.2541 -0.7032
26770SOL    HW284099   0.864   4.337   1.463  0.7094  0.9128 -0.8499
26771SOL     OW84100   6.114   2.414  10.350 -1.0023 -0.5971 -0.2806
26771SOL    HW184101   6.033   2.374  10.380 -1.6032 -0.7924 -2.0743
26771SOL    HW284102   6.166   2.341  10.317  0.1219 -0.5311  1.2336
26772SOL     OW84103   5.456   4.461   2.090  0.0080  0.0026 -0.5354
26772SOL    HW184104   5.365   4.448   2.065 -0.7875  1.4213  1.3847
26772SOL    HW284105   5.454   4.471   2.185  2.0639  0.9332 -0.5334
26773SOL     OW84106   8.951   1.344   9.608  0.4385  0.0648 -0.2967
26773SOL    HW184107   9.006   1.373   9.534 -0.0646 -2.0648 -1.5873
26773SOL    HW284108   9.013   1.304   9.669  0.7394  0.9934  0.0317
26774SOL     OW84109   0.406   7.710   8.746  0.2470  0.1820  0.2219
26774SOL    HW184110   0.481   7.751   8.790  1.6203 -0.7355 -1.1359
26774SOL    HW284111   0.439   7.625   8.717 -1.4204 -0.3566 -0.2013
26775SOL     OW84112   3.894   9.755   0.996 -0.5809 -0.1915 -0.3626
26775SOL    HW184113   3.890   9.842   0.956  0.8397 -0.0529 -0.2424
26775SOL    HW284114   3.812   9.747   1.046 -0.3811  1.3877  0.2548
26776SOL     OW84115   4.274   2.310   9.524 -0.1090 -0.3234  0.5040
26776SOL    HW184116   4.179   2.298   9.523  0.1813 -3.6109 -1.6769
26776SOL    HW284117   4.291   2.352   9.609 -3.4393  0.1941  1.0760
26777SOL     OW84118   6.906   4.396   0.162  0.1893  0.0995  0.1413
26777SOL    HW184119   6.974   4.364   0.103 -0.6735 -0.0729 -0.8098
26777SOL    HW284120   6.906   4.491   0.151 -0.7434 -0.0088 -1.0796
26778SOL     OW84121   0.061   1.247   5.047  0.2742 -0.1570 -0.4133
26778SOL    HW184122   0.086   1.156   5.062 -2.0045 -0.6269  1.2147
26778SOL    HW284123  -0.011   1.242   4.984 -1.1920  0.2566  1.1553
26779SOL     OW84124   5.237   4.255   0.188  0.6275 -0.3636  0.5188
26779SOL    HW184125   5.206   4.168   0.215  1.9305 -0.5818  1.3699
26779SOL    HW284126   5.293   4.239   0.113  1.3555 -0.3270  1.0505
26780SOL     OW84127   2.091   5.436   2.259 -0.7542  0.7208 -0.4330
26780SOL    HW184128   2.072   5.378   2.333 -2.9807 -0.6023 -1.9051
26780SOL    HW284129   2.033   5.511   2.272 -0.6708  0.7949 -0.4898
26781SOL     OW84130   1.716   5.259   0.935  0.4248  0.4197  0.3820
26781SOL    HW184131   1.753   5.270   0.848  0.4954 -1.4555  0.1353
26781SOL    HW284132   1.623   5.276   0.924  0.3803 -0.1332 -0.1362
26782SOL     OW84133   6.031   9.616   9.840  0.6044 -0.7630  0.1149
26782SOL    HW184134   5.965   9.665   9.890 -0.1387 -1.4924 -0.1314
26782SOL    HW284135   5.994   9.610   9.752  1.2030 -0.8127 -0.1350
26783SOL     OW84136   7.228   7.700   0.477  0.4380  0.1762  0.5106
26783SOL    HW184137   7.221   7.795   0.481  0.5864  0.1841  0.5887
26783SOL    HW284138   7.276   7.683   0.396  1.0536  0.2029  0.8613
26784SOL     OW84139   7.288   0.499   9.480  0.0138  0.6517  0.3255
26784SOL    HW184140   7.259   0.472   9.393 -1.4196 -0.0464  0.9772
26784SOL    HW284141   7.322   0.588   9.468 -2.5973  1.6309 -0.5458
26785SOL     OW84142   4.313   4.433   0.593 -0.3561  0.2757  0.0587
26785SOL    HW184143   4.233   4.412   0.544  0.6955  1.1240 -2.1106
26785SOL    HW284144   4.310   4.373   0.669 -2.1681 -0.9086 -0.8579
26786SOL     OW84145   8.026   8.552   7.528  0.1758  0.3579 -0.2255
26786SOL    HW184146   7.957   8.610   7.495 -1.1144 -1.3884 -0.8416
26786SOL    HW284147   8.103   8.575   7.477 -0.5058  1.0158 -0.9972
26787SOL     OW84148   7.360   4.451   3.036  0.2658  0.0979 -0.2770
26787SOL    HW184149   7.402   4.513   3.096 -1.6764  1.0698  0.1432
26787SOL    HW284150   7.333   4.504   2.961 -0.8766 -0.3413 -0.1935
26788SOL     OW84151   0.218   7.028   1.219 -0.3957 -0.0023  0.0554
26788SOL    HW184152   0.299   7.077   1.234  0.0271 -0.3897 -0.8434
26788SOL    HW284153   0.237   6.940   1.251 -0.8160  0.1578  0.7652
26789SOL     OW84154   6.536   2.686   9.188  0.7223  0.1385 -0.2086
26789SOL    HW184155   6.488   2.604   9.187  2.5664 -1.0058  0.0065
26789SOL    HW284156   6.592   2.680   9.265  1.3426  1.3331 -0.5313
26790SOL     OW84157   1.759   2.914  10.064  0.3222 -0.2924  0.6227
26790SOL    HW184158   1.751   2.906   9.969 -0.1498  0.2271  0.6136
26790SOL    HW284159   1.705   2.844  10.099 -0.7912  0.4910  0.5139
26791SOL     OW84160  10.246   8.387   5.933  0.9582  0.3281 -0.3902
26791SOL    HW184161  10.214   8.343   6.012  0.1039  0.2005 -0.8019
26791SOL    HW284162  10.335   8.354   5.922  1.2197  0.6041  0.7042
26792SOL     OW84163   9.379   2.571   6.400 -0.1331  0.1656  0.1001
26792SOL    HW184164   9.438   2.641   6.373 -1.6418  1.5564  0.1907
26792SOL    HW284165   9.397   2.499   6.340  3.4755 -0.5403  1.7869
26793SOL     OW84166   3.426   4.149   1.804  0.0205 -0.7542 -0.2316
26793SOL    HW184167   3.439   4.238   1.773 -1.1620 -0.5526 -0.1796
26793SOL    HW284168   3.487   4.140   1.878 -0.5284  0.3379  0.3795
26794SOL     OW84169   9.563   6.471   0.339 -0.2961  0.0989  0.4344
26794SOL    HW184170   9.556   6.415   0.417 -1.8866  0.1800  0.3854
26794SOL    HW284171   9.608   6.550   0.371  1.4842 -0.9480  0.6230
26795SOL     OW84172  10.071   1.537  10.163  0.1959 -0.2020  0.0583
26795SOL    HW184173  10.105   1.581  10.240  0.5015  0.1560 -0.2780
26795SOL    HW284174   9.979   1.521  10.184  0.8512 -2.5213  1.5845
26796SOL     OW84175   1.322   5.442   4.850  0.3491  0.1305  0.1953
26796SOL    HW184176   1.287   5.491   4.924 -1.1386  1.0339 -1.0571
26796SOL    HW284177   1.289   5.488   4.773 -0.5453 -2.4206 -1.0594
26797SOL     OW84178   6.105   7.032   4.346 -0.1943 -0.2302  0.1285
26797SOL    HW184179   6.181   7.052   4.292 -0.6369 -0.0141 -0.4184
26797SOL    HW284180   6.142   7.010   4.432  0.5149 -0.6353 -0.2710
26798SOL     OW84181   2.822   1.129   2.772 -0.0113  0.3787  0.3680
26798SOL    HW184182   2.741   1.180   2.773 -0.4809 -0.3651  0.4428
26798SOL    HW284183   2.884   1.185   2.725 -0.5207  1.0094  0.4235
26799SOL     OW84184   4.710  10.066   5.146  0.1136 -0.1156  0.2036
26799SOL    HW184185   4.719  10.111   5.061  3.7311  0.5867  0.7588
26799SOL    HW284186   4.693  10.137   5.208  3.0820  0.2931  0.7031
26800SOL     OW84187   3.296   8.897   6.259 -0.1083  0.2116  0.2961
26800SOL    HW184188   3.351   8.831   6.217  0.0113  0.6944 -0.3206
26800SOL    HW284189   3.335   8.909   6.346  1.4044  1.2657 -0.4700
26801SOL     OW84190   5.198   8.194   9.881  0.1247 -0.1236 -0.2644
26801SOL    HW184191   5.266   8.135   9.851 -0.4281 -0.2420 -1.3416
26801SOL    HW284192   5.130   8.137   9.917  1.3781  0.0653  2.6602
26802SOL     OW84193   2.991   4.858   0.100 -0.3079 -0.0122 -0.4285
26802SOL    HW184194   3.046   4.786   0.069 -1.9743 -1.4814 -0.1336
26802SOL    HW284195   3.049   4.909   0.158  1.0617 -0.7836 -1.0709
26803SOL     OW84196   9.617   4.366   4.877 -0.2183 -0.4669  0.0513
26803SOL    HW184197   9.552   4.375   4.808 -2.1886 -1.1594  1.7304
26803SOL    HW284198   9.578   4.307   4.941  1.3076  0.4929  2.0113
26804SOL     OW84199  10.152   5.442   1.171  0.2571 -0.1384  0.1879
26804SOL    HW184200  10.110   5.528   1.168 -0.3350 -0.4371 -2.1217
26804SOL    HW284201  10.086   5.385   1.211 -0.4937 -0.0315 -0.8338
26805SOL     OW84202   6.268   3.588   4.529 -0.0776 -0.4111  1.0070
26805SOL    HW184203   6.298   3.569   4.440 -1.1430 -1.8596  0.9194
26805SOL    HW284204   6.173   3.576   4.525 -0.3710  1.2475  1.9479
26806SOL     OW84205   6.378   4.424   2.220 -0.6146  0.5524  0.1763
26806SOL    HW184206   6.435   4.478   2.274 -1.1591  1.5195 -0.1855
26806SOL    HW284207   6.329   4.371   2.283 -1.6284  2.0408  0.7164
26807SOL     OW84208   2.934   8.127   5.182 -0.1711 -0.4981 -0.0475
26807SOL    HW184209   3.016   8.115   5.230  1.1011  3.4900 -0.8940
26807SOL    HW284210   2.880   8.182   5.239 -1.2757 -0.9873 -0.5790
26808SOL     OW84211  10.021   3.640   5.223 -0.4836 -0.1898 -0.2323
26808SOL    HW184212  10.031   3.547   5.204 -0.9631 -0.1535 -0.6860
26808SOL    HW284213   9.997   3.679   5.139 -0.7372  0.2711  0.0512
26809SOL     OW84214   2.818   8.717   7.841  0.5256 -0.3471 -0.0946
26809SOL    HW184215   2.769   8.642   7.877  1.3020 -1.0136 -0.4015
26809SOL    HW284216   2.752   8.768   7.795  0.0244 -0.9876 -0.1072
26810SOL     OW84217   3.536   2.849   4.345 -0.6388  0.0573 -0.6312
26810SOL    HW184218   3.478   2.839   4.421  0.6048 -1.7242  0.1514
26810SOL    HW284219   3.608   2.904   4.377  0.2822 -1.3381 -0.2508
26811SOL     OW84220   6.296   4.192   3.911 -0.0708 -0.0227  0.0358
26811SOL    HW184221   6.263   4.103   3.924  0.3524 -0.1375  0.3490
26811SOL    HW284222   6.238   4.247   3.963 -2.4647  0.3414 -2.7317
26812SOL     OW84223   7.322   0.648   7.376 -0.4884 -0.0731 -0.0261
26812SOL    HW184224   7.412   0.619   7.391  0.1467  0.4749 -2.3186
26812SOL    HW284225   7.304   0.623   7.285 -2.2024  0.9721 -0.0127
26813SOL     OW84226   3.151   7.836   1.043 -0.1336 -0.4498  0.3138
26813SOL    HW184227   3.247   7.838   1.047 -0.1697  1.3224  3.2040
26813SOL    HW284228   3.125   7.783   1.118 -1.4132 -0.4405 -0.1085
26814SOL     OW84229   1.791   2.669   1.971  0.6792 -0.0364 -0.8342
26814SOL    HW184230   1.789   2.758   2.006 -0.9734 -0.2567 -0.2954
26814SOL    HW284231   1.766   2.679   1.879  1.1988  0.1230 -0.9610
26815SOL     OW84232   1.438   0.564   8.743  0.4157 -0.3547  0.4151
26815SOL    HW184233   1.483   0.618   8.808  0.5871  0.1311 -0.0994
26815SOL    HW284234   1.475   0.591   8.659 -0.6801 -0.0798 -0.0013
26816SOL     OW84235   7.874   3.451  10.116 -0.1615  0.0908  0.3244
26816SOL    HW184236   7.781   3.466  10.099 -0.4264  0.1243  1.7436
26816SOL    HW284237   7.905   3.531  10.157  0.5223  0.0968 -0.1785
26817SOL     OW84238   6.377   0.077   8.716  0.0953  0.2153  0.0666
26817SOL    HW184239   6.285   0.068   8.691  0.9578 -3.0022 -2.6856
26817SOL    HW284240   6.392   0.004   8.777  0.6532  1.3009  1.2679
26818SOL     OW84241   0.758   5.634   0.419  0.1114  0.4750 -0.2931
26818SOL    HW184242   0.697   5.620   0.491 -1.1277  2.3229 -0.9137
26818SOL    HW284243   0.737   5.566   0.355 -2.1246  1.7264 -0.9803
26819SOL     OW84244   1.866   2.960   5.953  0.4285  0.5069  0.2493
26819SOL    HW184245   1.942   2.911   5.920 -0.1332  0.6296 -1.3067
26819SOL    HW284246   1.833   3.007   5.876 -0.3820  1.5728  1.2184
26820SOL     OW84247   7.383   4.864   1.083 -0.4378 -0.0022 -0.0465
26820SOL    HW184248   7.418   4.946   1.049  0.2042 -0.3158 -0.1744
26820SOL    HW284249   7.310   4.843   1.026 -0.7566  0.6039  0.1360
26821SOL     OW84250   9.166   9.049   4.870  0.2234  0.0968  0.6086
26821SOL    HW184251   9.158   9.075   4.961  0.6655  0.3399  0.5844
26821SOL    HW284252   9.076   9.031   4.841  0.1749 -0.9352  1.3565
26822SOL     OW84253   0.631   8.614   3.468 -0.3327 -1.0548  0.2342
26822SOL    HW184254   0.542   8.601   3.500 -0.2783  3.2016  2.9935
26822SOL    HW284255   0.621   8.671   3.392  0.0112 -1.5761 -0.2068
26823SOL     OW84256   4.987   5.591   0.792 -0.4152 -0.3057  0.1054
26823SOL    HW184257   5.008   5.634   0.874  0.3309 -0.1239 -0.1653
26823SOL    HW284258   4.929   5.652   0.746 -2.2499 -1.1589  1.2017
26824SOL     OW84259   5.560   0.307   2.722  0.3923  0.6383  0.6487
26824SOL    HW184260   5.652   0.329   2.734  0.3207  0.3445  1.8062
26824SOL    HW284261   5.559   0.213   2.705  0.4722  0.9853 -1.7333
26825SOL     OW84262   9.908   9.623   6.533 -0.0627  0.3311  0.5048
26825SOL    HW184263   9.941   9.533   6.530 -0.5337  0.1113  1.4723
26825SOL    HW284264   9.879   9.634   6.624 -0.8259  1.1651  0.1655
26826SOL     OW84265   7.125   1.687   2.627  0.4894  0.3930  0.0339
26826SOL    HW184266   7.182   1.616   2.597 -1.3980 -0.6256 -1.2658
26826SOL    HW284267   7.125   1.678   2.723 -0.8433 -2.3375 -0.1356
26827SOL     OW84268   8.635   7.481   4.950  0.2473 -0.0637 -0.5166
26827SOL    HW184269   8.552   7.436   4.968 -0.7446  1.2244 -1.5662
26827SOL    HW284270   8.608   7.567   4.917  2.0159  1.9709  2.8022
26828SOL     OW84271   0.926  10.310   2.196  0.0091  0.0869 -0.3810
26828SOL    HW184272   0.990  10.267   2.140 -0.3947  0.8789 -1.5033
26828SOL    HW284273   0.940  10.404   2.181 -1.5848  0.2811 -0.8858
26829SOL     OW84274   5.692   7.929   1.850 -0.5714 -0.0043 -0.1838
26829SOL    HW184275   5.673   7.858   1.788 -1.5098  0.3458 -0.3165
26829SOL    HW284276   5.723   8.001   1.795  0.2279 -0.2538 -0.0652
26830SOL     OW84277   4.247   0.776   8.279 -0.2282 -0.8234 -0.1623
26830SOL    HW184278   4.234   0.838   8.208 -0.9575  1.0399  1.5137
26830SOL    HW284279   4.165   0.726   8.284 -1.1454  0.7141  0.8703
26831SOL     OW84280   0.313   6.605   2.468 -0.0433 -0.1336  0.1616
26831SOL    HW184281   0.312   6.539   2.537  2.3516 -0.8945 -0.4485
26831SOL    HW284282   0.244   6.578   2.407  0.8364 -2.0744 -0.0330
26832SOL     OW84283   2.498   4.054   5.810 -0.3614 -0.2802 -0.0105
26832SOL    HW184284   2.449   4.084   5.733  1.4084  0.5171 -0.8789
26832SOL    HW284285   2.574   4.008   5.774  0.8092  0.6004  1.2293
26833SOL     OW84286   7.060   5.096   3.420  0.1860  0.0707 -0.0980
26833SOL    HW184287   7.095   5.010   3.445  1.1791  1.2717  3.2427
26833SOL    HW284288   7.137   5.148   3.398  0.0916  1.2067  2.0090
26834SOL     OW84289   0.636   1.566   6.457 -0.8883  0.1894  0.3412
26834SOL    HW184290   0.570   1.497   6.461  0.5997 -1.2409  1.9096
26834SOL    HW284291   0.700   1.542   6.524  2.1392  0.5409 -2.1853
26835SOL     OW84292   2.727  10.193   5.056 -0.1023 -0.2058 -0.1543
26835SOL    HW184293   2.728  10.289   5.052 -0.1185 -0.1679  0.6542
26835SOL    HW284294   2.704  10.173   5.146 -0.7508 -0.9758 -0.4781
26836SOL     OW84295   6.990   2.692   9.622 -0.4888  0.2498 -0.2832
26836SOL    HW184296   7.053   2.645   9.566  0.7042  0.2577  0.9737
26836SOL    HW284297   6.911   2.639   9.618 -0.3393  0.0898 -1.7160
26837SOL     OW84298   1.197   7.440   3.085  0.5223 -0.0256  0.3246
26837SOL    HW184299   1.258   7.512   3.101 -0.0460  0.1563  1.8211
26837SOL    HW284300   1.144   7.470   3.011  1.7187  0.1287 -0.5104
26838SOL     OW84301   3.441   3.307   2.266 -0.2084  0.1364  0.2465
26838SOL    HW184302   3.444   3.221   2.307  0.9771  0.1491  0.2085
26838SOL    HW284303   3.462   3.291   2.174 -0.5712  0.3946  0.1145
26839SOL     OW84304   7.721   4.668   3.433  0.0137  0.1555  0.1582
26839SOL    HW184305   7.761   4.662   3.346 -0.9912 -0.3502 -0.2849
26839SOL    HW284306   7.757   4.748   3.471 -0.3511  0.9763 -1.1692
26840SOL     OW84307   3.526   9.794   0.360 -0.3859  0.1749  0.2686
26840SOL    HW184308   3.481   9.867   0.403 -0.0604 -1.0323  2.8587
26840SOL    HW284309   3.494   9.717   0.407  0.7095 -1.1812 -1.1379
26841SOL     OW84310   9.164   7.269   0.083  0.1081  0.4099  0.0946
26841SOL    HW184311   9.170   7.200   0.016  1.2415 -1.1300  1.6866
26841SOL    HW284312   9.073   7.299   0.077  0.0680  0.0873 -1.8631
26842SOL     OW84313   7.267   4.214   8.894  0.0689 -0.0099 -0.8360
26842SOL    HW184314   7.316   4.132   8.894  0.5050  0.2125 -2.4554
26842SOL    HW284315   7.334   4.282   8.899 -0.2860  0.2785  0.4089
26843SOL     OW84316   9.795  10.114   2.654 -0.3941  0.5150  0.1194
26843SOL    HW184317   9.749  10.188   2.693  1.4446  0.5447  2.4135
26843SOL    HW284318   9.843  10.074   2.726 -0.3041 -2.1772 -1.3007
26844SOL     OW84319   5.441   2.911   1.325 -0.1521  0.0467  0.9630
26844SOL    HW184320   5.452   2.816   1.329 -2.2866 -0.2993 -0.1143
26844SOL    HW284321   5.445   2.932   1.231  1.0635  1.1492  1.2343
26845SOL     OW84322   4.266   9.806   0.183  0.5644 -0.1615 -0.1711
26845SOL    HW184323   4.255   9.781   0.275 -1.1723  1.7968  0.2488
26845SOL    HW284324   4.180   9.790   0.144  1.5184 -1.8140 -1.7449
26846SOL     OW84325   8.093   7.254   6.094 -0.1968 -0.5592 -0.3507
26846SOL    HW184326   8.143   7.289   6.020  0.4840 -0.2749  0.2393
26846SOL    HW284327   8.071   7.164   6.067 -0.4254 -0.2801 -1.1209
26847SOL     OW84328   0.688   4.431   2.135 -0.3892  0.1488  0.4404
26847SOL    HW184329   0.622   4.488   2.175 -0.4971 -1.0911  2.1332
26847SOL    HW284330   0.637   4.362   2.093 -0.2809  1.4676 -2.0313
26848SOL     OW84331   3.379   5.600   3.053  0.3676  0.4102 -0.1432
26848SOL    HW184332   3.452   5.657   3.033  0.4650  0.2579 -0.2254
26848SOL    HW284333   3.420   5.517   3.079  0.2261  0.3313 -0.1686
26849SOL     OW84334   4.446   2.272   6.870  0.3525  0.7323  0.2368
26849SOL    HW184335   4.508   2.309   6.932  1.3425 -1.0071  0.3588
26849SOL    HW284336   4.360   2.300   6.902  0.9215  1.0511  1.5559
26850SOL     OW84337  10.342  10.281   4.710 -0.1452  0.1013  0.2166
26850SOL    HW184338  10.358  10.191   4.682  0.5601 -0.0242  0.9998
26850SOL    HW284339  10.320  10.273   4.803  1.2448  0.8508  0.6319
26851SOL     OW84340   9.685   2.731   2.544  0.1456  0.1406 -0.1904
26851SOL    HW184341   9.726   2.659   2.495  0.4151 -0.4534  0.8652
26851SOL    HW284342   9.610   2.690   2.589  0.8099  0.2964  1.1149
26852SOL     OW84343   9.025   1.773   7.341 -0.8523 -0.4071  0.3978
26852SOL    HW184344   8.938   1.752   7.376 -0.3661 -0.9124  1.3565
26852SOL    HW284345   9.054   1.848   7.393 -0.0708 -1.2359  1.2043
26853SOL     OW84346   1.743   7.142   9.477 -0.1605 -0.2578 -0.6744
26853SOL    HW184347   1.703   7.087   9.544  3.7097 -1.9729  0.5196
26853SOL    HW284348   1.784   7.213   9.526  2.9970 -1.7114 -0.9722
26854SOL     OW84349   9.810   4.565   9.614 -0.4677  0.1142 -0.8650
26854SOL    HW184350   9.806   4.477   9.652  0.2897 -0.5839 -2.3103
26854SOL    HW284351   9.729   4.574   9.564  0.1520 -0.4021 -1.9927
26855SOL     OW84352   2.494   7.616   5.869 -0.4470  0.0197 -0.2138
26855SOL    HW184353   2.459   7.530   5.893  1.9667 -0.9102  0.2932
26855SOL    HW284354   2.547   7.642   5.944 -0.4318  1.5655 -0.7262
26856SOL     OW84355   6.787   9.480   3.640  0.8613 -0.5210 -0.3477
26856SOL    HW184356   6.843   9.463   3.564 -0.4315 -0.5196 -1.3568
26856SOL    HW284357   6.745   9.564   3.621  1.6319  0.2169  1.0997
26857SOL     OW84358   9.349   6.300   5.451  0.3982 -0.2933 -0.0428
26857SOL    HW184359   9.382   6.338   5.369  0.7299 -1.6430 -0.5631
26857SOL    HW284360   9.308   6.217   5.424 -0.5637 -0.1895  1.0162
26858SOL     OW84361   1.144   7.772   6.067  0.3269 -0.2616 -0.0254
26858SOL    HW184362   1.113   7.862   6.052 -0.7262 -0.5881  0.1078
26858SOL    HW284363   1.173   7.772   6.158  0.8012  0.0739 -0.1745
26859SOL     OW84364   4.656   3.734   5.558 -0.1768  0.3203  0.1042
26859SOL    HW184365   4.705   3.652   5.558 -0.9513 -0.1851  1.9197
26859SOL    HW284366   4.568   3.710   5.531 -0.4512  0.5013  0.8088
26860SOL     OW84367   4.899   9.815   0.448 -0.3783  0.1949 -0.1437
26860SOL    HW184368   4.946   9.736   0.472  0.1306  0.5614  0.0838
26860SOL    HW284369   4.811   9.785   0.426  0.8654 -1.0693 -4.2809
26861SOL     OW84370   8.674   7.438   6.321  0.0426 -0.2432  0.2805
26861SOL    HW184371   8.581   7.444   6.298  0.1889  2.6767  0.1242
26861SOL    HW284372   8.716   7.509   6.272  2.1760 -0.7104  1.3047
26862SOL     OW84373   5.305   2.462   1.676 -0.7476 -0.0498  0.5781
26862SOL    HW184374   5.292   2.481   1.769  0.0404 -1.2233  0.9503
26862SOL    HW284375   5.294   2.367   1.669  0.5667 -0.1674 -0.2685
26863SOL     OW84376   2.010   3.798   6.474  0.4312 -0.0354  0.4235
26863SOL    HW184377   1.929   3.752   6.452  0.7251 -0.3282 -0.0854
26863SOL    HW284378   2.070   3.728   6.499  0.8008  0.0883 -0.0981
26864SOL     OW84379   1.260   2.829   7.183  0.2759 -0.1409  0.1533
26864SOL    HW184380   1.309   2.767   7.237 -1.2829 -0.1139  1.7070
26864SOL    HW284381   1.266   2.795   7.094  0.9683 -1.5122  0.7050
26865SOL     OW84382   6.370   0.211   2.074 -0.5799  0.0001  0.2443
26865SOL    HW184383   6.462   0.222   2.049 -0.2426 -0.0878  1.4040
26865SOL    HW284384   6.321   0.265   2.012  0.4268  1.7921  0.9439
26866SOL     OW84385   6.083   7.606   1.319  0.3456 -0.2001 -0.2413
26866SOL    HW184386   6.145   7.599   1.247  1.1582 -1.7187  0.5733
26866SOL    HW284387   5.998   7.582   1.280  0.7765 -1.0289 -0.6801
26867SOL     OW84388   3.331   7.450   3.753  0.3681  0.2016 -0.0459
26867SOL    HW184389   3.350   7.531   3.801  0.3363  0.3406 -0.2651
26867SOL    HW284390   3.391   7.452   3.678  0.9202 -0.3661  0.3750
26868SOL     OW84391   1.495   4.315   2.416  0.1231  0.4087 -0.4323
26868SOL    HW184392   1.538   4.316   2.331  2.1998 -0.0354  0.5520
26868SOL    HW284393   1.402   4.327   2.396  0.4399 -0.5442 -2.8129
26869SOL     OW84394   4.712   2.426   2.547 -0.5203 -0.2185  0.4240
26869SOL    HW184395   4.764   2.375   2.609 -0.6241 -1.7270 -0.6542
26869SOL    HW284396   4.631   2.376   2.539 -0.6876  0.2025 -0.5528
26870SOL     OW84397   6.461   6.775   3.670 -0.3405 -0.1405 -0.5159
26870SOL    HW184398   6.498   6.810   3.589 -0.3719  1.6734  0.2072
26870SOL    HW284399   6.401   6.843   3.700 -0.8002 -1.0533  0.7242
26871SOL     OW84400   6.696   4.243   4.428  0.4187  0.0411 -0.3788
26871SOL    HW184401   6.664   4.223   4.516  0.5938 -1.3437 -0.5989
26871SOL    HW284402   6.674   4.335   4.414  0.5547  0.3350  1.1772
26872SOL     OW84403   2.094   4.182   5.108 -0.2178  0.1525 -0.0739
26872SOL    HW184404   2.000   4.188   5.092  0.0000  0.4195 -1.3507
26872SOL    HW284405   2.120   4.271   5.133  0.1027  0.6964 -2.2025
26873SOL     OW84406   2.547   4.370   5.282  0.0302 -0.2730  0.1044
26873SOL    HW184407   2.595   4.316   5.220  0.9366  2.5879 -1.8454
26873SOL    HW284408   2.460   4.378   5.244 -1.2251 -2.9312  2.0960
26874SOL     OW84409   1.547   2.060   8.384  0.5851 -0.3321 -0.6154
26874SOL    HW184410   1.487   2.028   8.316  2.2048 -0.1974 -2.1981
26874SOL    HW284411   1.512   2.146   8.408  0.6434  0.1641 -2.1993
26875SOL     OW84412   1.441   8.732   9.407  0.5896  0.2102  0.5469
26875SOL    HW184413   1.357   8.698   9.440 -0.8183 -0.0296 -2.9035
26875SOL    HW284414   1.483   8.656   9.367  0.0338  1.2507 -2.2178
26876SOL     OW84415   9.753   7.339   0.734  0.1762  0.2204  0.0003
26876SOL    HW184416   9.802   7.293   0.802 -1.0923  1.0749  1.5564
26876SOL    HW284417   9.667   7.297   0.734 -0.4853  1.5238  0.3568
26877SOL     OW84418   3.019   6.236   5.787  0.4795  0.6169  0.0940
26877SOL    HW184419   3.064   6.264   5.867 -1.9570  1.5930  1.2321
26877SOL    HW284420   2.938   6.287   5.786 -0.8560 -1.3599 -1.5503
26878SOL     OW84421   5.257   0.931   4.878  0.0662  0.5019  0.1406
26878SOL    HW184422   5.272   0.912   4.785  0.6384 -1.5791  0.6020
26878SOL    HW284423   5.341   0.912   4.920 -0.4335  0.5671  1.2036
26879SOL     OW84424   5.925   1.146   6.670 -0.0683 -0.4021  0.5148
26879SOL    HW184425   5.927   1.051   6.663 -1.9977 -0.3598 -3.0963
26879SOL    HW284426   5.837   1.167   6.701 -0.2318  0.2211 -0.3415
26880SOL     OW84427   1.380   7.025   6.330  0.3900  0.3603  0.4428
26880SOL    HW184428   1.413   7.014   6.419 -0.5546 -0.7998  0.6756
26880SOL    HW284429   1.295   7.067   6.341 -0.4126 -1.1613  0.2115
26881SOL     OW84430   8.784   9.097   8.338 -0.4799 -0.0525 -0.0513
26881SOL    HW184431   8.866   9.048   8.335 -0.3701  0.1925 -2.2595
26881SOL    HW284432   8.717   9.031   8.356  0.2440 -0.0767  3.2180
26882SOL     OW84433   2.429   2.744   3.671  0.0288 -0.0470  0.3607
26882SOL    HW184434   2.365   2.714   3.607  1.3585  0.6739 -1.3788
26882SOL    HW284435   2.473   2.664   3.700 -0.0756 -0.3129 -0.2001
26883SOL     OW84436   8.926   9.995   0.904  0.3513 -0.3224  0.8151
26883SOL    HW184437   9.005   9.970   0.952 -0.4348 -1.0642  1.7624
26883SOL    HW284438   8.950  10.076   0.858  2.1157 -1.3731 -0.1799
26884SOL     OW84439   6.879   9.902   9.432  0.0608  0.1847 -0.0239
26884SOL    HW184440   6.919   9.982   9.400 -0.3662  0.1677 -0.6135
26884SOL    HW284441   6.798   9.894   9.382  0.5898 -1.1566 -0.7102
26885SOL     OW84442   4.381   4.225   8.172  0.0986 -0.1343 -0.4142
26885SOL    HW184443   4.330   4.148   8.146 -2.0019  1.1652 -0.3874
26885SOL    HW284444   4.341   4.254   8.254  3.5539 -1.3637  1.9475
26886SOL     OW84445   0.919   2.194   5.681 -0.5480 -0.2401 -0.2968
26886SOL    HW184446   0.978   2.269   5.682 -0.0289 -0.6401  0.1974
26886SOL    HW284447   0.857   2.212   5.611 -0.4254  0.6440 -0.1827
26887SOL     OW84448  10.065   5.830   6.905 -0.7211 -0.5289 -0.1463
26887SOL    HW184449  10.099   5.741   6.913 -0.9449 -0.5054  1.2993
26887SOL    HW284450   9.994   5.822   6.841 -1.4479 -1.6289  0.7357
26888SOL     OW84451   7.841   8.456   5.869 -0.2559  0.1559 -0.2061
26888SOL    HW184452   7.767   8.462   5.929 -0.2184  1.0078 -0.2379
26888SOL    HW284453   7.802   8.465   5.782  0.0083  1.8471 -0.1700
26889SOL     OW84454   1.923   2.727   1.078  0.1046  0.5113  0.3648
26889SOL    HW184455   1.855   2.665   1.105 -0.1972 -0.0390 -1.5088
26889SOL    HW284456   1.995   2.712   1.139 -0.6674 -0.3863  1.0850
26890SOL     OW84457   0.043   6.114   7.892  0.0902 -0.1059 -0.3115
26890SOL    HW184458   0.109   6.147   7.831 -0.6997 -2.6056 -2.7136
26890SOL    HW284459  -0.037   6.162   7.870  0.2752  0.4726  0.2413
26891SOL     OW84460   1.507   5.039   4.735 -0.6021 -0.2940 -0.4469
26891SOL    HW184461   1.474   5.070   4.650  0.5274 -1.0590 -1.1937
26891SOL    HW284462   1.507   5.116   4.790 -0.2579  0.4832 -1.4990
26892SOL     OW84463   1.752   5.297   0.487 -0.2451 -0.3724  0.1957
26892SOL    HW184464   1.831   5.328   0.531  0.0827 -1.3230  0.3036
26892SOL    HW284465   1.766   5.202   0.476 -1.0406 -0.4271 -0.4578
26893SOL     OW84466   0.919  10.208   5.681 -0.2724 -0.4188 -0.5678
26893SOL    HW184467   0.904  10.303   5.679 -1.9677 -0.6250  0.1707
26893SOL    HW284468   0.834  10.171   5.657 -0.2607 -1.7534  1.2701
26894SOL     OW84469   1.098   1.193   6.160  0.2565  0.0331 -0.5310
26894SOL    HW184470   1.157   1.251   6.208  0.4009 -0.7036  0.1919
26894SOL    HW284471   1.057   1.139   6.228 -0.2847 -0.3439 -1.1474
26895SOL     OW84472   2.248   2.067   8.297  0.1965 -0.0755 -0.3820
26895SOL    HW184473   2.236   1.980   8.260  2.4417 -1.3667  1.6406
26895SOL    HW284474   2.190   2.068   8.374  0.0273  0.3118 -0.5119
26896SOL     OW84475   2.641   3.018  10.227  0.1570 -0.2754 -0.2266
26896SOL    HW184476   2.598   2.949  10.175  1.0333 -0.1598 -1.1236
26896SOL    HW284477   2.609   3.100  10.190  0.2198 -0.1936 -0.1005
26897SOL     OW84478   5.941   7.992   7.357  0.2627 -0.0898 -0.1057
26897SOL    HW184479   5.875   8.057   7.334  0.8554  0.0741 -1.4225
26897SOL    HW284480   5.989   8.031   7.429  0.2574  0.6954 -0.5212
26898SOL     OW84481   0.057   5.764   4.032 -0.0736  0.1066 -0.3494
26898SOL    HW184482   0.116   5.816   4.086  1.4525  0.0984 -1.8952
26898SOL    HW284483   0.080   5.788   3.942 -2.2413 -0.1622 -1.0297
26899SOL     OW84484   7.699   4.002   5.722 -0.0431 -0.7867  0.2259
26899SOL    HW184485   7.687   3.909   5.741  3.4108 -0.8854  2.7997
26899SOL    HW284486   7.769   4.005   5.657 -0.7550  0.0779 -0.5481
26900SOL     OW84487   0.636   6.085   3.328 -0.0142 -0.1609  0.2525
26900SOL    HW184488   0.611   6.172   3.295 -1.2427 -1.1138 -1.4655
26900SOL    HW284489   0.643   6.031   3.249  2.2910 -1.2903  1.1425
26901SOL     OW84490   6.626   0.200   5.702  0.4114  0.8114  0.3538
26901SOL    HW184491   6.599   0.133   5.766 -0.3431 -0.1000 -0.8643
26901SOL    HW284492   6.716   0.221   5.726  0.1966  0.3912  1.6232
26902SOL     OW84493   2.966   1.079   1.131 -0.4536 -0.2813 -0.3226
26902SOL    HW184494   2.874   1.103   1.144 -1.0022 -1.6074 -1.4556
26902SOL    HW284495   2.963   1.011   1.064  1.4003 -0.1214 -0.6031
26903SOL     OW84496   7.300   5.238   4.325 -0.0679  0.3575  0.1743
26903SOL    HW184497   7.370   5.181   4.293  1.3337  3.2605 -2.3864
26903SOL    HW284498   7.224   5.214   4.272  0.8368  1.5769 -1.7505
26904SOL     OW84499   8.648   2.200   2.714  0.2079 -0.5860 -0.3522
26904SOL    HW184500   8.711   2.137   2.749  2.4964  1.5862 -0.2377
26904SOL    HW284501   8.635   2.262   2.786 -3.1807 -1.6346  0.0831
26905SOL     OW84502   9.675   3.439   8.328 -0.8950  0.3975  0.3953
26905SOL    HW184503   9.760   3.401   8.347 -1.2283 -0.2970  0.5111
26905SOL    HW284504   9.668   3.513   8.388  0.2197  1.3453 -0.5876
26906SOL     OW84505   6.376   6.320   7.484 -0.0711  0.5237  0.6017
26906SOL    HW184506   6.381   6.327   7.389  0.7710  0.2313  0.6109
26906SOL    HW284507   6.381   6.411   7.515  1.2328  0.5319  0.4114
26907SOL     OW84508   6.640   9.882   9.321 -0.4794 -0.0644 -0.6388
26907SOL    HW184509   6.627   9.938   9.244  0.9773 -0.1721 -0.9918
26907SOL    HW284510   6.637   9.793   9.287 -1.0875 -0.1515 -0.3608
26908SOL     OW84511   1.480   9.548   4.039 -0.0548 -0.0993  0.3430
26908SOL    HW184512   1.567   9.569   4.006 -0.2750 -0.6273 -0.6344
26908SOL    HW284513   1.486   9.560   4.134  0.6691  1.2793  0.1546
26909SOL     OW84514   1.602   5.278   4.560 -0.6237 -0.2898  0.0646
26909SOL    HW184515   1.546   5.356   4.554 -0.4059 -0.0785  0.7363
26909SOL    HW284516   1.613   5.263   4.653 -0.4950 -1.0155 -0.0576
26910SOL     OW84517   1.988   0.540   2.778 -0.0529  0.3762  0.0499
26910SOL    HW184518   1.903   0.584   2.776 -0.9930 -1.3671  0.0326
26910SOL    HW284519   2.036   0.578   2.705 -1.3737  0.3364 -0.8807
26911SOL     OW84520   7.567   3.494   5.398  0.0431 -0.0664 -0.4491
26911SOL    HW184521   7.551   3.487   5.304  1.5186 -0.0323 -0.7240
26911SOL    HW284522   7.662   3.504   5.406  0.1785 -1.9516  1.1270
26912SOL     OW84523   5.700   9.254   4.308  0.4281  1.1879  0.3554
26912SOL    HW184524   5.704   9.163   4.338  1.1985  0.1795 -2.5666
26912SOL    HW284525   5.607   9.269   4.291  0.3992  0.6486  0.0210
26913SOL     OW84526   6.114   2.717   5.306 -0.6429 -0.5895 -0.3090
26913SOL    HW184527   6.188   2.714   5.245 -0.5863 -0.7159 -0.2332
26913SOL    HW284528   6.065   2.795   5.280  0.7816  0.8604  1.1160
26914SOL     OW84529   1.974   3.340  10.076 -0.4243  0.1538 -0.3877
26914SOL    HW184530   1.970   3.244  10.079  3.4060 -0.3020 -2.8122
26914SOL    HW284531   2.055   3.362  10.123 -1.6254  2.3422  0.8096
26915SOL     OW84532   4.539   6.010   4.178 -0.3389  0.5150  0.3033
26915SOL    HW184533   4.502   5.993   4.092 -0.9282  0.7493  0.5037
26915SOL    HW284534   4.600   6.083   4.165 -2.0905  2.0705  0.4720
26916SOL     OW84535   0.459   0.880   0.092  0.0192  0.0324  0.4766
26916SOL    HW184536   0.417   0.865   0.007 -0.5340  2.2320  0.2949
26916SOL    HW284537   0.395   0.850   0.156 -0.5513  0.4895  0.1360
26917SOL     OW84538   7.834   7.834   4.578  0.3295  0.3455 -0.3278
26917SOL    HW184539   7.775   7.777   4.627 -1.0209  1.5252 -0.5347
26917SOL    HW284540   7.807   7.825   4.487  0.4673  0.8845 -0.4262
26918SOL     OW84541   6.267   4.279   5.928  0.1698  0.1723  0.2397
26918SOL    HW184542   6.316   4.197   5.938  0.5856  0.4829  0.8191
26918SOL    HW284543   6.327   4.338   5.883  0.1587  0.4087  0.5321
26919SOL     OW84544   6.297   3.921   6.585 -0.0949  0.6281  0.2478
26919SOL    HW184545   6.369   3.872   6.623 -0.6284  0.2047  0.7332
26919SOL    HW284546   6.276   3.988   6.651 -0.6854  0.2218  0.4803
26920SOL     OW84547   8.496   2.985   7.294  1.0647 -0.1049 -0.4997
26920SOL    HW184548   8.495   3.077   7.269 -0.1455  0.3137  0.9135
26920SOL    HW284549   8.404   2.957   7.287  1.0879 -0.6349  0.9587
26921SOL     OW84550   1.903   1.077   8.266 -0.2622  0.1837 -0.1267
26921SOL    HW184551   1.861   1.146   8.214 -1.8239  1.0838  2.1352
26921SOL    HW284552   1.833   1.014   8.283  0.4629 -0.5885  0.0442
26922SOL     OW84553   5.784   5.613   0.760  0.2076  0.0026 -0.0749
26922SOL    HW184554   5.737   5.534   0.732 -0.1774  0.6745 -1.3858
26922SOL    HW284555   5.836   5.638   0.684 -0.2134  1.4174  0.0773
26923SOL     OW84556   0.642   7.694   5.996 -0.1023 -0.0150 -0.3396
26923SOL    HW184557   0.567   7.751   6.012  0.5756  0.3983  1.7105
26923SOL    HW284558   0.706   7.750   5.952 -0.0188  0.4028  0.2965
26924SOL     OW84559   0.834   6.072   7.335 -0.1077 -0.0203  0.4954
26924SOL    HW184560   0.926   6.049   7.349  0.0627  0.3217 -0.0093
26924SOL    HW284561   0.813   6.133   7.405  0.5325  1.1600 -0.3082
26925SOL     OW84562   0.579   9.970   5.108 -0.6407  0.2995  0.3018
26925SOL    HW184563   0.599   9.905   5.176  0.9214  0.3763 -0.0544
26925SOL    HW284564   0.607   9.929   5.026 -0.1024  1.2212  0.0088
26926SOL     OW84565   4.877   7.775   1.710  0.6249 -0.3139 -0.6948
26926SOL    HW184566   4.877   7.844   1.643  0.7435  0.0209 -0.3550
26926SOL    HW284567   4.790   7.735   1.702 -0.2651  1.2300  0.4621
26927SOL     OW84568   5.161   4.393   8.716 -0.0326 -0.6696 -0.0886
26927SOL    HW184569   5.163   4.407   8.621  0.1598 -1.6745 -0.2359
26927SOL    HW284570   5.091   4.330   8.730 -1.1018  0.6233  0.6058
26928SOL     OW84571   8.856   0.396  10.142  0.2323  0.1370 -0.0799
26928SOL    HW184572   8.819   0.410  10.229 -0.8623  1.3580 -0.6995
26928SOL    HW284573   8.937   0.446  10.143 -0.0356  0.5779  0.0853
26929SOL     OW84574   7.129   8.294   4.905 -0.4825 -0.5052 -0.2941
26929SOL    HW184575   7.189   8.332   4.841 -1.8558 -1.9731 -2.6154
26929SOL    HW284576   7.043   8.303   4.865 -1.7567  0.5683  2.4399
26930SOL     OW84577   1.302  10.233   6.164  1.0157 -0.0418  0.6903
26930SOL    HW184578   1.391  10.205   6.190  0.6478 -2.6402 -0.5652
26930SOL    HW284579   1.244  10.175   6.214  0.0474  0.6776  0.4163
26931SOL     OW84580   8.302   6.851   5.419 -0.0179 -0.1203  0.2846
26931SOL    HW184581   8.355   6.772   5.408 -0.2350 -0.0321 -1.7881
26931SOL    HW284582   8.213   6.818   5.431 -0.1661 -0.1992 -0.9762
26932SOL     OW84583   1.426   6.063   6.505 -0.0222 -0.0023 -0.0154
26932SOL    HW184584   1.508   6.111   6.493  0.2987 -0.7637 -0.9945
26932SOL    HW284585   1.412   6.018   6.422 -1.0272 -0.5179  0.4147
26933SOL     OW84586   7.545   1.961   0.566  0.0712 -0.0987  0.3266
26933SOL    HW184587   7.499   1.884   0.599  0.9874 -0.8271 -0.0275
26933SOL    HW284588   7.577   2.006   0.644 -0.1646 -0.2720  0.5252
26934SOL     OW84589   5.981   4.421   8.979  0.1452  0.0533  0.0925
26934SOL    HW184590   6.060   4.432   8.926  1.5695 -2.3019  1.5297
26934SOL    HW284591   5.939   4.342   8.943  0.2113 -0.5704  1.3338
26935SOL     OW84592   5.229   9.316   5.887 -0.2279 -0.7275  0.2312
26935SOL    HW184593   5.227   9.338   5.980 -0.4704 -1.0870  0.3139
26935SOL    HW284594   5.141   9.284   5.868  0.0350 -1.3529  0.0496
26936SOL     OW84595   0.576   3.881   4.888  0.1421  0.0226  1.0366
26936SOL    HW184596   0.618   3.966   4.897 -1.0408  0.9891 -1.5390
26936SOL    HW284597   0.647   3.818   4.898  1.0688  1.2588  2.8468
26937SOL     OW84598   7.112   6.965   2.843  0.2237 -0.2738  0.3791
26937SOL    HW184599   7.072   6.991   2.926 -1.0126 -2.9980  0.7413
26937SOL    HW284600   7.182   6.904   2.867  2.3946  1.7322 -0.4642
26938SOL     OW84601   3.757   1.483   8.986  0.3034 -0.1577  0.0800
26938SOL    HW184602   3.758   1.397   9.028  0.5357  0.5704  1.6581
26938SOL    HW284603   3.779   1.544   9.057  1.5408  1.0775 -1.3053
26939SOL     OW84604   0.070   4.747   4.796  0.1941 -0.6104  0.4304
26939SOL    HW184605   0.138   4.812   4.814  1.4046 -1.9140  0.7318
26939SOL    HW284606   0.006   4.793   4.742  1.1454  0.7462  0.4181
26940SOL     OW84607   2.682   0.358   8.854  0.0910  0.2549  0.2460
26940SOL    HW184608   2.588   0.350   8.872 -0.3439 -0.8747 -2.1530
26940SOL    HW284609   2.714   0.268   8.853  0.7341  0.4765 -1.0328
26941SOL     OW84610   1.021   9.453   8.644  0.5633 -0.2452  0.5907
26941SOL    HW184611   1.090   9.484   8.703 -1.2081 -0.1719  2.7472
26941SOL    HW284612   1.000   9.365   8.676 -1.1939  0.2300  0.8475
26942SOL     OW84613   2.823   6.958   9.440 -0.3950 -0.7164 -0.0492
26942SOL    HW184614   2.903   6.968   9.388 -0.6576 -0.0696 -0.3495
26942SOL    HW284615   2.811   6.864   9.449 -0.4542 -0.8571 -1.3647
26943SOL     OW84616   5.237   3.246   2.778 -0.2140  0.1663 -0.2944
26943SOL    HW184617   5.268   3.293   2.856 -0.3460 -0.3633  0.0765
26943SOL    HW284618   5.149   3.218   2.801  0.0162 -0.6243 -0.3547
26944SOL     OW84619   0.213   6.599   4.949 -0.1156 -0.2172 -0.7586
26944SOL    HW184620   0.284   6.557   4.997 -1.3877 -1.8127 -0.1606
26944SOL    HW284621   0.250   6.618   4.863  1.4664  0.4155  0.0160
26945SOL     OW84622   7.516   5.723   3.066 -0.8971  0.1756  0.2937
26945SOL    HW184623   7.541   5.658   3.132  1.3110 -1.3405 -1.8418
26945SOL    HW284624   7.421   5.712   3.057 -0.9745 -0.8549  1.8639
26946SOL     OW84625   7.486   3.467   0.155  0.1303 -0.1456  0.5453
26946SOL    HW184626   7.536   3.517   0.091 -0.0549 -1.4787 -0.7103
26946SOL    HW284627   7.413   3.430   0.105  0.5954 -2.1321  1.2498
26947SOL     OW84628   3.055   3.284   9.963 -0.1398 -0.2768  0.3850
26947SOL    HW184629   2.992   3.351   9.991  0.2663  0.3092 -0.0914
26947SOL    HW284630   3.081   3.241  10.045  0.5457  0.9887  0.8519
26948SOL     OW84631   2.964   9.735  10.145 -0.3320 -0.8543  0.4561
26948SOL    HW184632   2.952   9.822  10.184  0.7690 -0.4050 -0.1696
26948SOL    HW284633   2.902   9.680  10.191 -0.4199  0.0786  1.5011
26949SOL     OW84634   0.990   4.736   5.693 -0.6098 -0.0294 -0.4093
26949SOL    HW184635   1.006   4.734   5.788 -0.4922  0.4018 -0.4154
26949SOL    HW284636   1.076   4.723   5.653 -0.7585 -0.9020 -0.4668
26950SOL     OW84637   4.897   9.486   4.105 -0.3347  0.2183 -0.2181
26950SOL    HW184638   4.850   9.412   4.068  0.8566 -0.4610 -0.4151
26950SOL    HW284639   4.869   9.488   4.197 -0.8253 -0.0913 -0.3524
26951SOL     OW84640   2.043   6.416   6.595  0.1349  0.5319 -0.3980
26951SOL    HW184641   1.996   6.379   6.520  3.1872 -1.3855 -1.5591
26951SOL    HW284642   2.086   6.341   6.636  0.7638  1.9108  1.6604
26952SOL     OW84643   7.389   3.013   1.312  0.5229 -0.1009  0.0394
26952SOL    HW184644   7.325   3.069   1.269 -1.4255 -3.7411 -2.3991
26952SOL    HW284645   7.354   2.998   1.400  0.0719  0.9278  0.0431
26953SOL     OW84646   3.684   5.876   2.282  0.1194  0.7074 -0.0697
26953SOL    HW184647   3.600   5.846   2.317  0.0859  0.4748 -0.3482
26953SOL    HW284648   3.661   5.943   2.218  0.1376  0.5505 -0.2415
26954SOL     OW84649   3.963   8.729   2.057  0.2243  0.3151  0.0078
26954SOL    HW184650   3.991   8.820   2.056 -0.6201  0.7016  2.8051
26954SOL    HW284651   3.898   8.724   2.127  1.3527 -2.7310  1.0433
26955SOL     OW84652  10.131   1.966   6.892  0.2724  0.0065  0.0597
26955SOL    HW184653  10.116   2.048   6.939 -0.4102  0.7239 -1.3526
26955SOL    HW284654  10.154   1.903   6.961 -1.8835  0.6955  1.4981
26956SOL     OW84655   6.150   5.362   2.267  0.4665 -0.4823 -0.5220
26956SOL    HW184656   6.237   5.347   2.230  0.2164 -2.8845 -0.3162
26956SOL    HW284657   6.092   5.308   2.214 -0.6400 -0.2068  0.3669
26957SOL     OW84658   5.412   1.799   0.104  0.7280 -0.0435  0.2129
26957SOL    HW184659   5.371   1.868   0.157 -1.7023 -0.6610 -0.7068
26957SOL    HW284660   5.444   1.735   0.168 -3.0902 -1.3248  1.1309
26958SOL     OW84661   0.104   2.132   5.556  0.5925  0.1789 -0.7616
26958SOL    HW184662   0.062   2.214   5.578  2.4036  0.8798  0.3650
26958SOL    HW284663   0.127   2.140   5.464 -1.7658 -0.2927 -1.4433
26959SOL     OW84664   5.078  10.067   2.185  0.1341  0.5803 -0.0140
26959SOL    HW184665   5.121  10.003   2.242  1.0788  1.7609  0.6595
26959SOL    HW284666   5.071  10.023   2.100  1.9697  0.0236  0.0708
26960SOL     OW84667   0.313   7.372   7.186  0.2323 -0.5513 -0.0212
26960SOL    HW184668   0.367   7.368   7.265 -0.5919  0.4194  0.6212
26960SOL    HW284669   0.292   7.465   7.177 -2.7935 -1.0224  0.8072
26961SOL     OW84670   6.586   6.544   2.307  0.1025  0.2672 -0.3479
26961SOL    HW184671   6.610   6.636   2.301 -2.8754  1.1219 -1.1457
26961SOL    HW284672   6.641   6.500   2.242  2.3271  1.2174  0.7943
26962SOL     OW84673  10.132   9.530   8.249 -0.3430 -0.3523  0.1337
26962SOL    HW184674  10.164   9.614   8.216  0.3526 -0.9408 -0.6913
26962SOL    HW284675  10.037   9.543   8.256 -0.5831 -0.2997 -2.4124
26963SOL     OW84676   7.851   3.852   5.190  0.4205 -0.6667  0.0620
26963SOL    HW184677   7.817   3.929   5.145  0.2744 -0.9745 -0.3587
26963SOL    HW284678   7.843   3.873   5.283 -0.5623 -0.5686 -0.0317
26964SOL     OW84679   1.906  10.106   3.230  0.3072  0.1119  0.4889
26964SOL    HW184680   1.977  10.149   3.182 -0.1930  0.5328  0.1112
26964SOL    HW284681   1.911  10.014   3.202  0.0456  0.3400 -0.3603
26965SOL     OW84682   8.849   7.964   3.612  0.1160  0.0894  0.0707
26965SOL    HW184683   8.778   8.008   3.564 -0.8689 -1.0963  0.3863
26965SOL    HW284684   8.808   7.886   3.648  1.7330 -0.9281 -0.1987
26966SOL     OW84685   0.558   2.382   0.589 -0.3475  0.2891  0.2695
26966SOL    HW184686   0.608   2.306   0.561 -2.3505 -1.6724  1.6371
26966SOL    HW284687   0.498   2.400   0.516 -1.7485 -1.2688  0.9743
26967SOL     OW84688   5.781   0.529   1.580  0.2605  0.5690 -0.1854
26967SOL    HW184689   5.694   0.493   1.561  0.5488 -0.7263  0.7760
26967SOL    HW284690   5.830   0.519   1.498 -0.8040  2.4065 -1.1035
26968SOL     OW84691   4.389   7.536   2.957  0.5550  0.0610 -0.4729
26968SOL    HW184692   4.301   7.503   2.938  0.8861 -0.6946 -0.7377
26968SOL    HW284693   4.406   7.509   3.047  0.9310 -0.7789 -0.7756
26969SOL     OW84694   1.291   4.543   9.791  0.1076  0.2652 -0.0468
26969SOL    HW184695   1.332   4.559   9.705 -0.1816  1.6182  0.0379
26969SOL    HW284696   1.365   4.526   9.850  0.2762 -1.2407 -0.6575
26970SOL     OW84697   1.155   7.220   6.759  0.4976  0.3487  0.3607
26970SOL    HW184698   1.071   7.175   6.749  1.1160 -0.7348 -0.1250
26970SOL    HW284699   1.220   7.156   6.729  1.4991  1.1597  0.7559
26971SOL     OW84700   3.543   9.743   0.818 -0.2467 -0.2319  0.1706
26971SOL    HW184701   3.540   9.703   0.731  1.5079 -0.9175  0.3911
26971SOL    HW284702   3.615   9.806   0.813 -1.4384  1.2160  0.5499
26972SOL     OW84703  10.247   6.031   6.854  0.0013  0.4451  0.4145
26972SOL    HW184704  10.191   5.954   6.839  0.2717  0.3711 -0.2411
26972SOL    HW284705  10.207   6.075   6.929 -1.8487  1.2340 -0.9548
26973SOL     OW84706   9.104   6.647   5.250  0.1903 -0.1601 -0.0346
26973SOL    HW184707   9.138   6.642   5.161  1.9231 -3.2919  0.6419
26973SOL    HW284708   9.167   6.702   5.297  1.0160 -0.9928 -0.1300
26974SOL     OW84709   9.712   3.739   2.597  0.3743  0.3158  0.6651
26974SOL    HW184710   9.641   3.731   2.533  0.0443  0.4445  1.0116
26974SOL    HW284711   9.790   3.708   2.550 -0.3649 -2.5888  1.1307
26975SOL     OW84712   2.527   3.804   7.385 -0.2303 -0.6858 -0.5209
26975SOL    HW184713   2.464   3.779   7.452  1.7162 -1.3357  1.1688
26975SOL    HW284714   2.591   3.732   7.384  1.2879  0.6130 -1.0835
26976SOL     OW84715   1.513   6.589   1.144 -0.0611 -0.5508  0.3708
26976SOL    HW184716   1.579   6.659   1.145 -0.0201 -0.5794  1.4113
26976SOL    HW284717   1.432   6.633   1.117  0.5558 -0.7077 -1.8621
26977SOL     OW84718   0.244   5.791   1.929 -0.1067 -0.1358 -0.4521
26977SOL    HW184719   0.220   5.796   1.836  0.5882 -1.6711 -0.7337
26977SOL    HW284720   0.287   5.875   1.946 -0.3076  0.2001 -1.4921
26978SOL     OW84721   6.424   6.774   0.756 -0.5189 -0.2254 -0.2947
26978SOL    HW184722   6.429   6.679   0.755 -0.7409 -0.2314 -0.8766
26978SOL    HW284723   6.355   6.794   0.819 -0.0992 -0.4256  0.2431
26979SOL     OW84724   6.952   2.622   8.638 -0.1394 -0.1199 -0.5612
26979SOL    HW184725   6.883   2.556   8.640 -2.3713  2.0682 -0.0858
26979SOL    HW284726   6.913   2.699   8.680  2.3975  1.4554 -0.8516
26980SOL     OW84727   6.860   1.038   8.706 -1.0271 -0.6911 -0.2605
26980SOL    HW184728   6.869   1.116   8.651 -2.6249  0.0830  0.5196
26980SOL    HW284729   6.766   1.027   8.718 -0.7633 -1.4158  1.4975
26981SOL     OW84730   1.071   0.075   3.271 -0.0674  0.2310  0.4682
26981SOL    HW184731   1.075   0.159   3.226 -2.2927  0.2944  0.2694
26981SOL    HW284732   1.133   0.083   3.343  1.2992  1.2453 -0.7542
26982SOL     OW84733  10.182   3.917   3.592 -0.2798 -0.1381  0.0290
26982SOL    HW184734  10.101   3.942   3.548 -0.0053 -0.1053 -0.4672
26982SOL    HW284735  10.248   3.920   3.523  0.6732  2.4205  0.9465
26983SOL     OW84736   5.207   9.270   2.862 -0.3884  0.6571  0.4506
26983SOL    HW184737   5.157   9.189   2.867  0.6880 -0.1578 -1.0547
26983SOL    HW284738   5.144   9.336   2.833 -0.8593 -0.0632 -0.1784
26984SOL     OW84739   0.980   3.089  10.354  0.5862 -0.3859 -0.2598
26984SOL    HW184740   1.018   3.167  10.314 -0.5096  0.9379  1.1328
26984SOL    HW284741   0.927   3.123  10.427  1.3986 -2.5545  1.4561
26985SOL     OW84742   7.886   5.859   1.414 -0.7278  0.6547  0.2246
26985SOL    HW184743   7.844   5.939   1.382 -0.9434  0.4076 -0.1140
26985SOL    HW284744   7.875   5.796   1.343 -0.6733  0.2836  0.5416
26986SOL     OW84745   9.803   2.019   1.884  0.1632  0.2800 -0.0391
26986SOL    HW184746   9.718   2.008   1.840  0.4781 -1.4183 -0.2953
26986SOL    HW284747   9.784   2.005   1.977  0.2648 -0.9028 -0.1789
26987SOL     OW84748   8.308   0.676   0.437  0.0529 -0.1052  0.7417
26987SOL    HW184749   8.374   0.635   0.493 -0.0749  1.0483  1.7613
26987SOL    HW284750   8.239   0.704   0.497 -0.7427 -0.0802 -0.1565
26988SOL     OW84751   5.765   3.373   1.890  0.1127  0.1674  0.2859
26988SOL    HW184752   5.763   3.467   1.905  0.3716  0.5217 -1.5833
26988SOL    HW284753   5.682   3.354   1.845 -0.2892 -0.6529  1.3213
26989SOL     OW84754   1.431   5.435   7.368  0.1306  0.5614  0.2193
26989SOL    HW184755   1.469   5.508   7.318 -0.6717  1.4031  0.7982
26989SOL    HW284756   1.349   5.415   7.321  0.8122 -0.6459 -0.5075
26990SOL     OW84757   4.965   2.806   8.553 -0.0257  0.2650  0.5399
26990SOL    HW184758   5.045   2.757   8.535 -0.6575 -1.1538  1.4408
26990SOL    HW284759   4.897   2.760   8.504 -0.6627  0.0806  1.5553
26991SOL     OW84760   9.624   1.987   6.877 -0.2105  0.0079  0.1222
26991SOL    HW184761   9.539   1.968   6.916 -0.6482  0.9242 -0.3452
26991SOL    HW284762   9.685   1.983   6.951 -0.8998  0.9173  0.7718
26992SOL     OW84763   1.829   0.998   9.756  0.0333 -0.6618 -0.2777
26992SOL    HW184764   1.842   1.092   9.767  0.2091 -0.7720  0.4784
26992SOL    HW284765   1.792   0.990   9.668 -0.5138  0.1555 -0.1320
26993SOL     OW84766   5.794   9.939   0.966 -0.1213 -0.0248 -0.4918
26993SOL    HW184767   5.793   9.991   1.047  2.0728  0.0640 -0.4841
26993SOL    HW284768   5.748   9.994   0.902 -0.1342  0.7707  0.1742
26994SOL     OW84769   0.135   7.481   4.142 -0.4509 -0.5157 -0.0948
26994SOL    HW184770   0.056   7.535   4.137  1.4847  2.4605 -1.2967
26994SOL    HW284771   0.149   7.465   4.235 -1.7677 -0.0042  0.2002
26995SOL     OW84772   3.915   9.435   9.240  0.1497 -0.1479  0.0595
26995SOL    HW184773   3.989   9.463   9.186  0.0273  0.1328  0.0350
26995SOL    HW284774   3.906   9.342   9.223  0.3858 -0.1455 -0.0745
26996SOL     OW84775   6.452   8.734   2.694 -0.5319 -0.0152  0.2081
26996SOL    HW184776   6.534   8.715   2.649 -0.2028  0.4283  0.6156
26996SOL    HW284777   6.416   8.809   2.647  0.3138  1.1091  1.2830
26997SOL     OW84778   0.671   5.550   3.050 -0.8280 -0.1029 -0.1575
26997SOL    HW184779   0.661   5.582   3.140  1.7160  0.6699 -0.0686
26997SOL    HW284780   0.694   5.628   3.000 -1.3118 -0.6888 -1.3313
26998SOL     OW84781   3.873   6.758   7.793 -0.3474  0.3350 -0.2439
26998SOL    HW184782   3.823   6.840   7.790 -0.8534  0.0705  0.4865
26998SOL    HW284783   3.851   6.721   7.879  0.0297 -0.4657 -0.4901
26999SOL     OW84784   7.882   4.537   2.102  0.1857 -0.3508 -0.6759
26999SOL    HW184785   7.883   4.477   2.027  2.0230 -1.2609  0.0315
26999SOL    HW284786   7.974   4.551   2.123 -0.2259  2.0333 -0.2360
27000SOL     OW84787   9.844   6.688   7.778 -0.1867  0.0327 -0.0521
27000SOL    HW184788   9.872   6.747   7.848 -0.0006 -0.1722  0.0472
27000SOL    HW284789   9.912   6.621   7.775 -0.6797 -0.4890  0.2130
27001SOL     OW84790   4.721   5.598   3.045 -0.3967  0.3103 -0.9078
27001SOL    HW184791   4.734   5.618   2.952  0.4442  2.7504 -0.3503
27001SOL    HW284792   4.648   5.655   3.071  0.9556  1.5574  0.4136
27002SOL     OW84793   1.334   6.373   9.240 -0.2677  0.3095  0.3200
27002SOL    HW184794   1.296   6.314   9.174  0.2744  0.9624 -0.6033
27002SOL    HW284795   1.341   6.457   9.195  1.3112  0.4591  0.7996
27003SOL     OW84796   7.998   7.477   3.110  0.1162 -0.6360 -0.4782
27003SOL    HW184797   8.063   7.521   3.055 -1.2828 -1.3991 -2.8686
27003SOL    HW284798   7.950   7.549   3.152  1.6937 -0.0500  0.3954
27004SOL     OW84799   7.608   8.755   7.301  0.4585  0.1529  0.1261
27004SOL    HW184800   7.561   8.686   7.255  0.2725 -0.2621  0.9274
27004SOL    HW284801   7.541   8.817   7.328  0.3747 -0.3416  1.0980
27005SOL     OW84802   6.999   8.033   2.152 -0.0475 -0.0050 -0.2346
27005SOL    HW184803   7.026   7.978   2.078  1.0789  0.7439 -0.4018
27005SOL    HW284804   7.082   8.064   2.190 -0.6144  2.9097 -1.1434
27006SOL     OW84805   2.258   5.869   4.125 -0.2044  0.1896  0.1462
27006SOL    HW184806   2.218   5.871   4.038 -1.9826  0.9570  0.9219
27006SOL    HW284807   2.238   5.781   4.158 -0.1504  0.1416  0.0516
27007SOL     OW84808   6.586   6.032   7.375  0.6947 -0.0235  0.3966
27007SOL    HW184809   6.615   6.045   7.465 -0.7494  1.5969  0.6900
27007SOL    HW284810   6.578   5.937   7.365  2.4842 -0.3127  1.4061
27008SOL     OW84811   6.388   2.503   8.924 -0.1801 -0.5275  0.1300
27008SOL    HW184812   6.381   2.474   9.014 -0.4685  0.4278  0.4283
27008SOL    HW284813   6.483   2.505   8.907 -0.0244  0.9059  0.9823
27009SOL     OW84814   2.430   2.945   7.724 -0.0771 -0.0841  0.4986
27009SOL    HW184815   2.387   3.028   7.705  0.4050 -0.3173 -1.8834
27009SOL    HW284816   2.362   2.892   7.766 -0.8871  0.9340  0.5129
27010SOL     OW84817   6.442   7.051   7.745 -0.0715 -0.4448 -0.1319
27010SOL    HW184818   6.404   7.034   7.831  0.1995 -0.7955 -0.0784
27010SOL    HW284819   6.514   7.112   7.762 -0.2971 -0.1642 -0.1706
27011SOL     OW84820   4.209   3.051   6.273 -0.1541  0.1800  0.0369
27011SOL    HW184821   4.219   3.086   6.361  1.3047 -0.0475 -0.0202
27011SOL    HW284822   4.127   3.002   6.276  0.7900 -1.4061  1.8209
27012SOL     OW84823   5.244   1.847   1.661  0.4418 -0.2621 -0.2825
27012SOL    HW184824   5.152   1.870   1.673  0.1064 -1.7257  0.1629
27012SOL    HW284825   5.284   1.864   1.746  0.0090 -1.9631  0.3252
27013SOL     OW84826   0.193  10.088   7.793 -0.3932  0.3591 -0.3384
27013SOL    HW184827   0.190  10.183   7.778 -0.4079  0.6170  1.1512
27013SOL    HW284828   0.252  10.055   7.725 -0.9820  1.3250 -1.3550
27014SOL     OW84829   6.311   8.099   3.173 -0.3514  0.1460 -0.0495
27014SOL    HW184830   6.292   8.025   3.229  0.4957 -0.2135 -0.2322
27014SOL    HW284831   6.388   8.073   3.123 -0.3326  0.9572 -0.4626
27015SOL     OW84832   5.272   7.184   1.868  0.0221  0.5400 -0.5584
27015SOL    HW184833   5.260   7.131   1.946 -0.0211 -1.0012 -1.5677
27015SOL    HW284834   5.328   7.257   1.896  0.6123 -0.3796  0.7277
27016SOL     OW84835   7.938   1.113  10.167  0.0064  0.2440  0.2291
27016SOL    HW184836   7.888   1.195  10.165 -2.1143 -0.9695 -1.7224
27016SOL    HW284837   7.987   1.117  10.249 -2.1155  2.2760  1.5260
27017SOL     OW84838   3.909   8.611   8.747  0.1749 -0.3528 -0.1540
27017SOL    HW184839   3.967   8.687   8.758  0.4938 -0.2153 -2.3300
27017SOL    HW284840   3.955   8.540   8.791  0.5966  0.3771  0.6304
27018SOL     OW84841   4.405   6.518   0.445 -0.5104  0.2347 -0.4037
27018SOL    HW184842   4.347   6.594   0.435  0.2329  0.8110 -0.4596
27018SOL    HW284843   4.348   6.442   0.434 -1.7289  0.7149  1.9409
27019SOL     OW84844   5.815  10.290   6.028 -0.3627 -0.3029  0.1321
27019SOL    HW184845   5.726  10.263   6.047 -0.7871  1.1800  0.3608
27019SOL    HW284846   5.810  10.385   6.020  1.0499 -0.2722 -0.6558
27020SOL     OW84847   8.300   6.269   6.037  0.0695  0.4826  0.3567
27020SOL    HW184848   8.370   6.207   6.059  1.0212  0.8433 -1.3898
27020SOL    HW284849   8.233   6.215   5.994  0.5790  0.5261 -0.5222
27021SOL     OW84850   9.650   9.227   7.918 -0.7444  0.0251 -0.1209
27021SOL    HW184851   9.612   9.231   7.830 -0.4568 -0.9685 -0.3022
27021SOL    HW284852   9.732   9.276   7.911 -0.7989  0.0831 -0.3660
27022SOL     OW84853   6.988   6.139   8.420 -0.0835 -0.4094  0.3915
27022SOL    HW184854   6.943   6.114   8.340 -0.6033 -0.3021  0.6454
27022SOL    HW284855   7.020   6.057   8.457  0.7760 -0.3879 -0.2845
27023SOL     OW84856   9.463   7.747   7.521  0.4426  0.4419  0.3908
27023SOL    HW184857   9.404   7.783   7.455 -0.8099 -1.6245  0.2634
27023SOL    HW284858   9.405   7.699   7.581  1.9347 -1.2947  0.5245
27024SOL     OW84859   0.314   8.120   3.310 -0.3583  0.4306  0.3596
27024SOL    HW184860   0.346   8.030   3.309 -1.8866 -0.2489  2.7758
27024SOL    HW284861   0.392   8.173   3.324  0.7015 -0.3683 -2.1004
27025SOL     OW84862   3.563   7.196   3.822 -0.1771 -0.2149  0.3170
27025SOL    HW184863   3.476   7.209   3.861 -0.5705 -0.8139 -0.3232
27025SOL    HW284864   3.554   7.230   3.733  0.7129  1.1585  0.7344
27026SOL     OW84865   5.633   4.484   7.258  0.3500  0.5199  0.4841
27026SOL    HW184866   5.667   4.425   7.191  3.5556  0.7440  1.7404
27026SOL    HW284867   5.621   4.428   7.335 -2.7079  0.3820  0.0073
27027SOL     OW84868   0.680   1.425   7.809 -0.4032  0.2794  0.7388
27027SOL    HW184869   0.640   1.411   7.895  0.8699 -0.2133  1.2741
27027SOL    HW284870   0.652   1.350   7.757 -2.3277  1.2667  0.2340
27028SOL     OW84871   1.382   8.955   7.543  0.1367 -0.3971  0.5018
27028SOL    HW184872   1.408   8.924   7.457 -2.1187 -1.9133  0.2895
27028SOL    HW284873   1.463   8.960   7.593  1.3307 -0.6436 -1.3417
27029SOL     OW84874   6.090   2.188   5.827  0.3375  0.0802  0.3691
27029SOL    HW184875   6.034   2.261   5.853  0.8359  1.1529 -1.4000
27029SOL    HW284876   6.029   2.124   5.789  0.0940  0.4572  0.1088
27030SOL     OW84877   0.318   9.668   7.660 -0.2188 -0.1440  0.1503
27030SOL    HW184878   0.230   9.697   7.683 -1.3113 -2.5357 -0.7403
27030SOL    HW284879   0.304   9.592   7.603  2.4349 -1.4762  1.1381
27031SOL     OW84880   6.778   0.525   9.123  0.6623  0.4374 -0.0491
27031SOL    HW184881   6.822   0.478   9.052  2.1693  1.6140  0.0595
27031SOL    HW284882   6.824   0.497   9.202 -0.8486 -0.6827  0.4873
27032SOL     OW84883   6.098   7.361   4.187 -0.1262 -0.0144 -0.1239
27032SOL    HW184884   6.137   7.440   4.225 -2.2126  0.9020  0.2770
27032SOL    HW284885   6.170   7.299   4.182  1.0266  1.0034  2.1185
27033SOL     OW84886   7.096   6.899   6.455 -0.1725 -0.8718 -0.4380
27033SOL    HW184887   7.135   6.929   6.373  1.4497 -0.2444  0.5145
27033SOL    HW284888   7.145   6.819   6.477 -0.4950 -0.9581 -0.0155
27034SOL     OW84889   2.331   5.559   8.152  0.1793  0.2442 -0.0653
27034SOL    HW184890   2.320   5.541   8.059  1.1324  0.8996 -0.3260
27034SOL    HW284891   2.309   5.477   8.195  2.2754 -0.9134 -1.0542
27035SOL     OW84892   8.887   0.126   4.570  0.0523 -0.3951  0.3893
27035SOL    HW184893   8.953   0.195   4.579  0.4463 -0.8967  1.4855
27035SOL    HW284894   8.870   0.097   4.660 -1.7106 -0.2417  0.1378
27036SOL     OW84895  10.066   0.485   2.907 -0.2220  0.0947 -0.2110
27036SOL    HW184896  10.012   0.424   2.958 -0.8114  0.5914 -0.2204
27036SOL    HW284897  10.039   0.572   2.937  0.4232  0.3608 -0.3773
27037SOL     OW84898   8.752   8.407   7.513 -0.4319  0.1292 -0.3681
27037SOL    HW184899   8.802   8.394   7.594 -1.8864  0.0442  0.5501
27037SOL    HW284900   8.791   8.346   7.451 -0.2448 -0.8817  0.7085
27038SOL     OW84901   6.704   3.463   1.295  0.8963  0.1738  0.2824
27038SOL    HW184902   6.769   3.509   1.243  0.6098  2.6272  1.9351
27038SOL    HW284903   6.625   3.516   1.287  0.4664 -0.1301  2.0895
27039SOL     OW84904   8.825   8.166   2.675  0.3028 -0.5480 -0.5015
27039SOL    HW184905   8.915   8.133   2.682  0.4482 -0.7741 -2.6210
27039SOL    HW284906   8.779   8.130   2.750  2.1779  0.2548  1.1088
27040SOL     OW84907   6.585   0.196   2.851  0.0353  0.2681  0.2244
27040SOL    HW184908   6.595   0.101   2.846  0.4198  0.3451 -0.7654
27040SOL    HW284909   6.501   0.214   2.808  0.6590  0.4810 -0.9546
27041SOL     OW84910   2.460   3.339   9.901  0.6081 -0.0589  0.4341
27041SOL    HW184911   2.431   3.318   9.989  0.7329 -0.2305  0.4329
27041SOL    HW284912   2.450   3.257   9.852 -0.8100  0.3722 -0.0697
27042SOL     OW84913   0.835   2.631   9.030  0.1122 -0.0652 -0.1412
27042SOL    HW184914   0.883   2.604   9.108 -0.8363  0.8993  0.8186
27042SOL    HW284915   0.899   2.677   8.977  0.4120  0.6992  0.8430
27043SOL     OW84916   3.966   6.070   8.950  0.2635 -0.3565 -0.2427
27043SOL    HW184917   3.941   5.993   8.899  2.4683 -0.4269 -1.3625
27043SOL    HW284918   4.018   6.036   9.022 -0.8169 -0.0609  0.7041
27044SOL     OW84919   3.725   2.097   5.183  0.0068  0.2225 -0.5718
27044SOL    HW184920   3.745   2.071   5.093  0.3068 -0.3219 -0.3495
27044SOL    HW284921   3.692   2.017   5.224  3.1016 -0.4745  0.7831
27045SOL     OW84922   9.352   1.886   6.939 -0.2351  0.2726 -0.0857
27045SOL    HW184923   9.300   1.962   6.912 -1.2632 -0.3982 -0.0748
27045SOL    HW284924   9.316   1.862   7.025 -0.4360 -0.6657 -0.4171
27046SOL     OW84925   5.574   5.854   9.024  0.0647  0.1946  0.6760
27046SOL    HW184926   5.598   5.785   9.085  0.1739 -1.2015 -0.8794
27046SOL    HW284927   5.521   5.915   9.076  0.4693 -0.7360  2.2347
27047SOL     OW84928   8.243   4.849   6.651 -0.0137  0.0703  0.4919
27047SOL    HW184929   8.211   4.849   6.741  0.1620 -1.5231  0.5791
27047SOL    HW284930   8.213   4.766   6.615  2.8696 -0.9280  0.1710
27048SOL     OW84931   6.246   8.182   6.589  0.0510  0.4224  0.4330
27048SOL    HW184932   6.244   8.087   6.599  0.7862  0.4983  1.5475
27048SOL    HW284933   6.337   8.206   6.609  0.0533  1.2958 -0.5193
27049SOL     OW84934   1.517  10.206   5.708  0.0203  0.4711 -0.4424
27049SOL    HW184935   1.458  10.182   5.636  1.5682 -0.8906 -1.3325
27049SOL    HW284936   1.536  10.122   5.751  2.3368  0.6517 -1.0198
27050SOL     OW84937   3.571   9.195   3.469  0.0293 -0.1415 -0.1208
27050SOL    HW184938   3.627   9.121   3.492 -0.0178 -0.7899 -1.9282
27050SOL    HW284939   3.621   9.273   3.496  0.6233 -0.7782  0.6673
27051SOL     OW84940   8.579   7.201   0.181  0.0170  0.4441 -0.4792
27051SOL    HW184941   8.547   7.196   0.091  1.5769 -1.1593 -0.9920
27051SOL    HW284942   8.606   7.293   0.192  1.9934  0.1916 -2.4844
27052SOL     OW84943   5.201   4.355   5.796  0.7558  0.1958 -0.2241
27052SOL    HW184944   5.280   4.329   5.749  0.8859  0.8421 -0.3744
27052SOL    HW284945   5.138   4.286   5.778  1.2893 -0.3346 -0.0917
27053SOL     OW84946   5.654   0.594   4.442  0.3198 -0.0637 -0.2459
27053SOL    HW184947   5.606   0.663   4.489  1.2857 -0.5016  1.4820
27053SOL    HW284948   5.614   0.513   4.473  0.9140 -0.3629 -0.2621
27054SOL     OW84949   3.585   6.157   4.608  0.3398 -0.8022  0.4046
27054SOL    HW184950   3.535   6.225   4.653 -0.4415 -1.4751  0.5771
27054SOL    HW284951   3.533   6.138   4.529  1.1670 -0.3537 -0.2542
27055SOL     OW84952   8.252   7.578   1.737 -0.4287  0.0229 -0.0767
27055SOL    HW184953   8.193   7.618   1.672  0.1442  0.7334 -0.1732
27055SOL    HW284954   8.203   7.503   1.770 -0.7667 -0.3081 -1.2716
27056SOL     OW84955   0.599   3.304   4.372  0.3383 -0.0848  0.0457
27056SOL    HW184956   0.540   3.289   4.298  1.0158 -2.9789 -0.0044
27056SOL    HW284957   0.544   3.344   4.439 -1.0852 -0.5415 -0.8150
27057SOL     OW84958   5.272   5.909   1.479 -0.2791  0.4639 -0.7341
27057SOL    HW184959   5.206   5.945   1.421 -1.7465 -2.3031 -0.9308
27057SOL    HW284960   5.353   5.954   1.455 -1.3455  1.2247 -3.1249
27058SOL     OW84961   2.323  10.039   3.584  0.1728  0.5137  0.3924
27058SOL    HW184962   2.329   9.953   3.543  0.7403  1.3065 -1.2621
27058SOL    HW284963   2.236  10.070   3.561 -0.5797 -0.1378  2.1581
27059SOL     OW84964   2.385   7.496   3.254 -0.0211  0.5564 -0.5920
27059SOL    HW184965   2.380   7.513   3.348 -1.2255  1.0804 -0.7326
27059SOL    HW284966   2.393   7.583   3.214 -2.0745  0.5623 -1.0906
27060SOL     OW84967   7.422   3.309   5.572  0.8728 -0.0512  0.3086
27060SOL    HW184968   7.462   3.387   5.536  1.4422 -0.4571  0.0495
27060SOL    HW284969   7.398   3.257   5.496  0.5154 -0.1391  0.4793
27061SOL     OW84970   1.418   1.908   2.266 -0.3185  0.6559  0.5263
27061SOL    HW184971   1.484   1.881   2.330 -1.6090 -0.1394  1.5806
27061SOL    HW284972   1.375   1.983   2.307 -0.5600  0.7102  0.1770
27062SOL     OW84973   0.004   7.334   2.847 -0.0674 -0.2598  0.0330
27062SOL    HW184974  -0.058   7.260   2.843 -0.0019 -0.2605 -1.7579
27062SOL    HW284975   0.031   7.348   2.756 -0.6283  2.4654  0.2067
27063SOL     OW84976   3.711   3.731   1.194 -0.4813  0.0101  0.2235
27063SOL    HW184977   3.782   3.757   1.135  0.4135  0.9800  1.6686
27063SOL    HW284978   3.753   3.674   1.259 -1.0244  0.5453  1.0589
27064SOL     OW84979   3.158   0.850   9.392 -0.5203  0.0790 -0.0781
27064SOL    HW184980   3.135   0.931   9.347  0.3070  0.1787 -0.3428
27064SOL    HW284981   3.129   0.780   9.334 -0.2116  0.2011 -0.3831
27065SOL     OW84982   0.486   6.245   2.234  0.5421 -0.1838  0.0564
27065SOL    HW184983   0.427   6.172   2.214  0.1411  0.4952 -1.4186
27065SOL    HW284984   0.501   6.239   2.328 -3.5618  0.8104  0.9674
27066SOL     OW84985   7.292   3.994   7.323  0.0558 -0.1204 -0.1001
27066SOL    HW184986   7.259   3.957   7.405 -1.6993  0.8264 -0.3211
27066SOL    HW284987   7.318   4.083   7.346 -0.4233  0.1415 -0.5334
27067SOL     OW84988   5.514   6.320   2.712 -0.6417  0.2046 -0.0072
27067SOL    HW184989   5.477   6.309   2.799 -2.8735 -1.7126 -1.0710
27067SOL    HW284990   5.583   6.253   2.706 -0.6824  0.1434  0.1964
27068SOL     OW84991   5.491   9.831   2.135  0.2014 -0.1227 -0.0910
27068SOL    HW184992   5.412   9.834   2.081  0.0669  0.3201  0.1250
27068SOL    HW284993   5.543   9.906   2.106 -0.0007  0.2910  0.5729
27069SOL     OW84994   2.159   2.908   7.788  0.3037  0.0412 -0.0918
27069SOL    HW184995   2.107   2.934   7.864 -0.7887 -0.3711 -0.6790
27069SOL    HW284996   2.123   2.959   7.716  1.2235  0.3087 -0.3784
27070SOL     OW84997   7.423   7.811   5.814  0.5683 -0.5069 -0.8802
27070SOL    HW184998   7.445   7.765   5.733 -0.1631 -0.6357 -1.0135
27070SOL    HW284999   7.412   7.741   5.878 -1.7544 -0.6572 -1.3612
27071SOL     OW85000   3.116   9.112   9.549 -0.0035  0.0821 -0.4145
27071SOL    HW185001   3.186   9.136   9.490 -0.4005  1.4578 -0.3660
27071SOL    HW285002   3.140   9.152   9.633 -0.0669 -0.7885  0.0383
27072SOL     OW85003   6.433   3.721   7.667  0.1946  0.4708 -0.2489
27072SOL    HW185004   6.338   3.717   7.659 -0.1642  1.0640  2.6323
27072SOL    HW285005   6.466   3.664   7.598 -2.2415  0.1979 -1.2633
27073SOL     OW85006   8.910   7.476   8.632  0.2703  0.6392 -0.3778
27073SOL    HW185007   8.907   7.471   8.537 -1.7117 -0.8609 -0.3024
27073SOL    HW285008   8.992   7.434   8.657 -0.6434 -1.9009 -1.3521
27074SOL     OW85009   7.353   8.194   9.023  0.1685  0.0731 -0.6865
27074SOL    HW185010   7.413   8.124   9.000  0.9199  0.8210 -1.0675
27074SOL    HW285011   7.303   8.160   9.097  1.6314 -0.2816  0.1860
27075SOL     OW85012   7.577   8.718   5.214  0.2875  0.0306 -0.5467
27075SOL    HW185013   7.544   8.765   5.290  1.0190 -0.4140  0.0723
27075SOL    HW285014   7.620   8.785   5.161 -1.8275  0.6780 -1.5432
27076SOL     OW85015   2.596   9.940   8.851 -0.1273 -0.2815 -0.4325
27076SOL    HW185016   2.585   9.861   8.798  1.6398 -1.0512  0.2734
27076SOL    HW285017   2.575   9.912   8.940 -1.8642  0.6948 -0.4887
27077SOL     OW85018   6.692   6.388   3.788  0.1555 -0.2456 -0.3997
27077SOL    HW185019   6.607   6.428   3.806  1.3028  1.5903  1.3934
27077SOL    HW285020   6.740   6.454   3.738  2.1092  0.8390  2.6432
27078SOL     OW85021   5.587   0.091   2.355  0.5421  0.1272 -0.3789
27078SOL    HW185022   5.569   0.006   2.314 -1.4920  1.1635 -1.8229
27078SOL    HW285023   5.661   0.127   2.306  0.0602  0.0602 -1.1738
27079SOL     OW85024   6.913   4.347   1.086 -0.0968  0.2361 -0.0509
27079SOL    HW185025   6.987   4.318   1.033 -1.4451 -2.3601 -0.6863
27079SOL    HW285026   6.922   4.297   1.168 -2.1312 -1.7068 -0.9079
27080SOL     OW85027   0.238   7.721   4.011 -0.0108  0.2154 -0.2474
27080SOL    HW185028   0.152   7.707   4.050  0.4737 -0.1289  0.7553
27080SOL    HW285029   0.258   7.639   3.967  0.3807 -0.2243  0.7146
27081SOL     OW85030   3.750   9.106   0.830  0.0127 -0.1504 -0.3653
27081SOL    HW185031   3.766   9.126   0.922  0.2601  0.6715 -0.5789
27081SOL    HW285032   3.658   9.079   0.827 -0.2142  0.5531  0.0146
27082SOL     OW85033   2.868   5.423   5.108  0.2533  0.1354 -0.3360
27082SOL    HW185034   2.907   5.353   5.160  0.8009 -0.2720 -1.2622
27082SOL    HW285035   2.793   5.382   5.066  1.6951 -0.5344 -2.4530
27083SOL     OW85036   0.688   1.205   0.316  0.6785  0.1727  0.1042
27083SOL    HW185037   0.657   1.114   0.312 -1.3215  0.8245 -0.4960
27083SOL    HW285038   0.612   1.257   0.292  1.8632  2.0183  0.1506
27084SOL     OW85039   4.113   0.635   7.862  0.1740 -0.9651 -0.4135
27084SOL    HW185040   4.174   0.574   7.820  0.0584 -0.3902 -1.4753
27084SOL    HW285041   4.041   0.644   7.800 -0.1796 -0.3469  0.0699
27085SOL     OW85042   7.136   3.541   5.413  0.1126  0.4919  0.2259
27085SOL    HW185043   7.120   3.621   5.363  0.2969 -0.2292 -1.0401
27085SOL    HW285044   7.182   3.570   5.492  2.3453  1.4029 -1.3288
27086SOL     OW85045   7.394   8.422   4.054  0.4709 -0.3654 -0.0220
27086SOL    HW185046   7.439   8.342   4.081 -0.2074 -0.6181  0.4020
27086SOL    HW285047   7.464   8.483   4.030  1.0044 -1.8130 -2.5809
27087SOL     OW85048   4.192   4.523   1.380  0.3206 -0.3849  0.1413
27087SOL    HW185049   4.270   4.469   1.392 -0.0386 -0.5985  1.7205
27087SOL    HW285050   4.121   4.460   1.365  0.4621 -0.1828 -1.5872
27088SOL     OW85051   5.369   4.405   7.074  0.6607 -0.2365  0.8145
27088SOL    HW185052   5.360   4.500   7.084  1.3077 -0.1713  0.8400
27088SOL    HW285053   5.390   4.393   6.981  1.3696 -0.2827  0.9732
27089SOL     OW85054   2.814   2.804   7.980  0.0730  0.3590 -0.0650
27089SOL    HW185055   2.896   2.759   7.959 -0.9387 -0.9904 -1.2771
27089SOL    HW285056   2.745   2.743   7.953 -1.3554  1.1617  1.5715
27090SOL     OW85057   2.877   8.680   3.056 -0.2745 -0.4042  0.0912
27090SOL    HW185058   2.944   8.730   3.010 -1.2523 -0.0267 -0.9653
27090SOL    HW285059   2.878   8.715   3.145 -0.4013  0.9703 -0.4270
27091SOL     OW85060   6.539   0.471   4.258  0.3085 -0.2886 -0.9680
27091SOL    HW185061   6.559   0.378   4.251 -2.9999 -1.2936  0.8844
27091SOL    HW285062   6.467   0.485   4.195 -0.0236  0.7134 -0.3887
27092SOL     OW85063   6.901   1.029   6.916  0.3361  0.1270  0.2829
27092SOL    HW185064   6.871   1.083   6.990  1.3017 -1.0572  1.5828
27092SOL    HW285065   6.847   0.950   6.921  0.7526 -0.1747  0.0305
27093SOL     OW85066   7.769   1.158   7.741 -0.3435 -0.2400  0.0710
27093SOL    HW185067   7.772   1.079   7.687  0.2519  0.3702 -0.7992
27093SOL    HW285068   7.847   1.152   7.796  0.1777  0.1814 -0.6212
27094SOL     OW85069   0.415   2.778   7.727  0.5007  0.0763 -0.4803
27094SOL    HW185070   0.467   2.856   7.706 -2.0006  1.8945 -0.4088
27094SOL    HW285071   0.390   2.791   7.819 -0.2193 -0.6378 -0.5726
27095SOL     OW85072   3.084   1.479   4.238  0.2242  0.2815  0.0767
27095SOL    HW185073   3.165   1.435   4.263  0.6089  1.0837  0.2853
27095SOL    HW285074   3.100   1.510   4.149 -0.1310 -0.1902 -0.1584
27096SOL     OW85075   0.583   6.844   4.875  0.2548  0.1616 -0.2282
27096SOL    HW185076   0.621   6.872   4.792  0.8378  0.7271  0.2160
27096SOL    HW285077   0.503   6.896   4.883  1.0758  1.3902  0.3576
27097SOL     OW85078   0.015   0.158   8.227  0.1894  0.2866  0.1540
27097SOL    HW185079   0.034   0.211   8.150 -1.7020 -0.7671 -1.1362
27097SOL    HW285080   0.024   0.067   8.197 -1.6167 -0.1641  0.8209
27098SOL     OW85081   3.708   4.872   3.345  0.2265  0.1975  0.2061
27098SOL    HW185082   3.720   4.780   3.323  0.8064  0.2146  0.4158
27098SOL    HW285083   3.614   4.886   3.343 -0.0878 -1.0680  2.8677
27099SOL     OW85084   2.542   5.342   9.205  0.0973  0.2627  0.6162
27099SOL    HW185085   2.523   5.406   9.137  1.1974  2.2569  2.0754
27099SOL    HW285086   2.637   5.349   9.219  0.0806 -0.9636  1.5101
27100SOL     OW85087   8.590   5.665   3.753  0.4359 -0.3377 -0.3170
27100SOL    HW185088   8.640   5.598   3.707 -0.5298 -1.3290  0.0248
27100SOL    HW285089   8.535   5.616   3.814  1.3504  0.9048  1.5919
27101SOL     OW85090   8.885   4.933   7.776  0.0917  0.2949  0.6184
27101SOL    HW185091   8.874   4.925   7.681  0.1463 -1.4336  0.7159
27101SOL    HW285092   8.804   4.973   7.807 -0.2084  0.2496 -0.0946
27102SOL     OW85093   4.628   7.538   3.815  0.5011 -0.3165 -0.1321
27102SOL    HW185094   4.572   7.565   3.888  2.0363  0.3245  0.8578
27102SOL    HW285095   4.574   7.552   3.737 -1.0888 -0.7730  0.8358
27103SOL     OW85096   2.339   0.977   0.891  0.1535  0.4165 -0.0471
27103SOL    HW185097   2.271   0.958   0.827 -1.6364 -0.6193  2.0099
27103SOL    HW285098   2.403   0.907   0.879 -0.4516 -0.1002 -0.3307
27104SOL     OW85099   9.173   4.330   2.537 -0.0171 -0.6462  0.0751
27104SOL    HW185100   9.171   4.287   2.622 -0.0595 -1.9060 -0.5341
27104SOL    HW285101   9.080   4.347   2.517 -0.1428 -1.9367 -0.4803
27105SOL     OW85102  10.124   0.986   2.306 -0.0080  0.1808  0.0259
27105SOL    HW185103  10.058   1.012   2.370  0.8631  0.3018  0.8921
27105SOL    HW285104  10.119   1.052   2.237 -0.1290  0.7360  0.5634
27106SOL     OW85105   1.162   7.172   8.173 -0.0528 -0.1665 -0.2706
27106SOL    HW185106   1.203   7.248   8.131 -1.1104  0.2103 -0.6597
27106SOL    HW285107   1.213   7.159   8.253 -0.5014  1.6672  0.3836
27107SOL     OW85108   8.484   0.657   8.021  0.2228  0.7111 -0.1392
27107SOL    HW185109   8.443   0.707   8.091  1.5094  2.8989 -0.8406
27107SOL    HW285110   8.575   0.688   8.019 -0.1008  1.9298 -3.7025
27108SOL     OW85111   7.654   6.165   9.414  0.0565  0.1180  0.0932
27108SOL    HW185112   7.587   6.148   9.348  0.2845  0.0993 -0.1372
27108SOL    HW285113   7.662   6.082   9.462 -1.2233  0.5969  1.1855
27109SOL     OW85114   1.862   4.107   6.243  0.2281 -0.4628 -0.0112
27109SOL    HW185115   1.951   4.097   6.274 -0.1079 -1.5161  0.6589
27109SOL    HW285116   1.828   4.183   6.290  0.9965  0.4261 -0.8507
27110SOL     OW85117   4.859   7.862   6.345 -0.7022 -0.1170 -0.1841
27110SOL    HW185118   4.876   7.812   6.264 -0.9078 -1.1887  0.4140
27110SOL    HW285119   4.777   7.908   6.327  0.3736  1.4776 -1.3981
27111SOL     OW85120   9.293   0.849   5.951 -0.2253 -0.1720 -0.2119
27111SOL    HW185121   9.234   0.870   6.023 -0.7681 -2.2205 -0.0271
27111SOL    HW285122   9.260   0.902   5.878 -0.9132  0.3764  0.4694
27112SOL     OW85123   9.225   0.161   5.608 -0.2274  0.0500 -0.4695
27112SOL    HW185124   9.305   0.165   5.555 -0.6288 -1.5034 -1.2337
27112SOL    HW285125   9.224   0.245   5.655  0.6944  1.0260 -2.0873
27113SOL     OW85126   0.608   8.701   1.100 -0.4905 -0.3035 -0.3555
27113SOL    HW185127   0.517   8.705   1.127 -0.2692 -0.3285  0.4133
27113SOL    HW285128   0.657   8.693   1.182  0.4612  3.0462 -0.4536
27114SOL     OW85129   1.970   5.279   8.530 -0.2553 -0.4995  0.2189
27114SOL    HW185130   1.992   5.309   8.618  1.2415 -0.2259 -0.2063
27114SOL    HW285131   1.884   5.239   8.538  0.1442 -1.0782  1.9440
27115SOL     OW85132   5.986   8.252   8.049 -0.7136  0.5870  0.3952
27115SOL    HW185133   6.055   8.240   8.114  1.3906 -0.8633 -1.9361
27115SOL    HW285134   6.006   8.338   8.010  0.0133  0.0397 -0.4778
27116SOL     OW85135   6.647   2.538   8.557  0.3196  0.0197  0.1969
27116SOL    HW185136   6.651   2.489   8.639 -0.3932 -0.2164  0.1037
27116SOL    HW285137   6.611   2.623   8.581  0.6895  0.1668  0.2227
27117SOL     OW85138   1.454   0.193   9.910  0.1057  0.0141 -0.3125
27117SOL    HW185139   1.391   0.203   9.839  0.3674 -0.2020 -0.5792
27117SOL    HW285140   1.401   0.175   9.987 -0.1191 -4.0294 -1.1690
27118SOL     OW85141   3.108   1.604   6.363  0.3196 -0.2590  0.0340
27118SOL    HW185142   3.077   1.695   6.368  0.6835 -0.1043 -0.4732
27118SOL    HW285143   3.200   1.611   6.340 -0.1591 -0.7836 -2.2364
27119SOL     OW85144   5.718   0.359   0.971  0.2121  0.5032  0.1615
27119SOL    HW185145   5.650   0.374   1.036  0.8774  1.7913  0.5915
27119SOL    HW285146   5.744   0.268   0.984 -0.0323  0.5911  1.3537
27120SOL     OW85147   7.645   3.547   7.706  0.0914 -0.1325 -0.0042
27120SOL    HW185148   7.630   3.591   7.623 -0.1069  1.2245  0.7171
27120SOL    HW285149   7.738   3.524   7.705  0.3374  0.8284 -0.1796
27121SOL     OW85150   8.669   6.193   4.711  0.5870  0.0919  0.0008
27121SOL    HW185151   8.618   6.122   4.672  1.5991 -2.4508  2.9070
27121SOL    HW285152   8.723   6.226   4.639  1.0239 -3.0296 -1.2872
27122SOL     OW85153   0.314   5.128   1.360  0.1445 -0.1642  0.5377
27122SOL    HW185154   0.315   5.126   1.456  1.9027  2.7678  0.7080
27122SOL    HW285155   0.406   5.136   1.335 -0.3762  0.4799 -1.3266
27123SOL     OW85156   9.244   3.625   9.385  0.0998  0.0019 -0.2229
27123SOL    HW185157   9.337   3.644   9.373  0.2658  1.4836  2.6313
27123SOL    HW285158   9.243   3.551   9.446 -0.5944  0.2721  0.0972
27124SOL     OW85159   9.498   0.541   1.290 -0.0020  0.2304 -0.2064
27124SOL    HW185160   9.493   0.632   1.320 -0.8998 -0.3853  1.6899
27124SOL    HW285161   9.585   0.533   1.252  0.6925  1.4904  1.0171
27125SOL     OW85162   3.209   2.146   5.949  0.4132  0.4667 -0.1628
27125SOL    HW185163   3.241   2.146   5.859 -1.6267 -0.5363 -0.9634
27125SOL    HW285164   3.145   2.217   5.952 -0.0628  0.0346  0.2708
27126SOL     OW85165   4.787   2.851   1.758  0.3638 -0.0221 -0.4243
27126SOL    HW185166   4.738   2.771   1.779 -0.4220  0.3970 -0.5990
27126SOL    HW285167   4.833   2.873   1.838 -2.2119  1.2982  0.8262
27127SOL     OW85168   0.250   1.223   1.342  0.3925  0.3430 -0.4549
27127SOL    HW185169   0.156   1.233   1.359  0.5256  0.3761  0.2974
27127SOL    HW285170   0.259   1.242   1.249 -0.5373 -0.9807 -0.8590
27128SOL     OW85171   9.967   7.175   8.502 -0.7427  0.6845  0.3124
27128SOL    HW185172  10.004   7.108   8.559  0.1781  1.1686  0.3079
27128SOL    HW285173  10.022   7.252   8.517  0.8813  0.2985 -2.7024
27129SOL     OW85174   3.114   7.492   5.195  0.5518  0.5890  0.4189
27129SOL    HW185175   3.135   7.424   5.131 -1.0375  0.0839  0.3977
27129SOL    HW285176   3.051   7.549   5.151  1.1015  1.5095  0.7901
27130SOL     OW85177   9.088   6.501   2.485  0.1283 -0.3339  0.5318
27130SOL    HW185178   9.143   6.577   2.469  0.3523 -0.3251  1.2949
27130SOL    HW285179   9.011   6.514   2.429 -0.1421  0.7793  1.1397
27131SOL     OW85180   9.331   4.714   9.682  0.0502  0.0949 -0.1012
27131SOL    HW185181   9.280   4.754   9.612 -0.4584  2.6048  1.5758
27131SOL    HW285182   9.421   4.741   9.664 -0.2683  2.0258  0.9313
27132SOL     OW85183   5.168   4.885   7.201 -0.0428  0.1088  0.2817
27132SOL    HW185184   5.086   4.848   7.234  0.1996 -0.1704  0.5690
27132SOL    HW285185   5.193   4.827   7.129  0.0501  0.0364  0.3737
27133SOL     OW85186   1.443   1.570   1.656 -0.4869  0.1431  0.3076
27133SOL    HW185187   1.394   1.585   1.575  0.1779  2.3349  0.2310
27133SOL    HW285188   1.412   1.639   1.716 -1.1640 -1.5928  2.0544
27134SOL     OW85189   9.556   0.374   0.281 -0.4149 -0.3855 -0.2255
27134SOL    HW185190   9.619   0.392   0.351 -1.2522 -1.4358  0.8509
27134SOL    HW285191   9.594   0.301   0.233 -0.3808 -0.4206 -0.1447
27135SOL     OW85192   0.204   4.394   3.602 -0.5366  0.1179  0.2910
27135SOL    HW185193   0.255   4.317   3.624 -2.9541 -1.3098  1.2761
27135SOL    HW285194   0.201   4.445   3.683 -0.6509  0.1960  0.2378
27136SOL     OW85195   9.692   8.490   2.231  0.9411 -0.2654  0.2490
27136SOL    HW185196   9.767   8.464   2.284 -0.3757 -0.9958  1.8442
27136SOL    HW285197   9.629   8.419   2.242 -0.7326  1.1834  0.5007
27137SOL     OW85198   6.622   8.428   3.952  0.4624 -0.2467 -0.3806
27137SOL    HW185199   6.715   8.434   3.976  1.1383 -3.4378 -1.7191
27137SOL    HW285200   6.617   8.472   3.867  1.0262 -1.0740 -0.8536
27138SOL     OW85201   1.206   2.609  10.259 -0.2815  0.1343  0.5234
27138SOL    HW185202   1.169   2.522  10.248 -0.6590  0.4292 -0.6644
27138SOL    HW285203   1.175   2.638  10.344 -0.2026 -0.8591  0.9033
27139SOL     OW85204   5.616   1.049   0.780  0.3049  0.1153 -0.0475
27139SOL    HW185205   5.552   1.024   0.846  1.5719 -1.5435  0.6327
27139SOL    HW285206   5.697   1.005   0.807  0.6601 -1.4066 -3.1555
27140SOL     OW85207   5.954   8.245   3.274  0.5056  0.0800 -0.1804
27140SOL    HW185208   6.029   8.287   3.315  0.2288  2.1271 -1.6228
27140SOL    HW285209   5.912   8.195   3.345  0.5445  2.6912  1.8079
27141SOL     OW85210   1.702   4.836   6.890  0.3203 -0.0273  0.1625
27141SOL    HW185211   1.767   4.766   6.884  0.2909  0.0347 -2.0145
27141SOL    HW285212   1.740   4.909   6.841 -1.5369 -0.2002 -1.7362
27142SOL     OW85213   6.900   3.676   9.286 -0.0082  0.5958  0.6121
27142SOL    HW185214   6.884   3.598   9.232 -0.0172  0.0364  1.4019
27142SOL    HW285215   6.970   3.723   9.240  0.8731 -0.5224  0.7551
27143SOL     OW85216   9.896   7.702   8.909 -0.2485  0.5711  0.1176
27143SOL    HW185217   9.959   7.763   8.949  1.8961 -1.0274 -0.6144
27143SOL    HW285218   9.937   7.616   8.920 -2.2714 -0.5313 -0.5743
27144SOL     OW85219   0.276   8.321   9.219 -0.0809  0.5787 -0.1981
27144SOL    HW185220   0.352   8.289   9.268 -0.1929 -0.8195 -0.8881
27144SOL    HW285221   0.210   8.340   9.286  0.2699  0.1098  0.2845
27145SOL     OW85222   7.949   9.151   9.407  0.1340  0.0696 -0.0727
27145SOL    HW185223   7.970   9.237   9.443  0.1518 -0.2062  0.5804
27145SOL    HW285224   8.029   9.126   9.360  0.8635 -0.4581  1.4205
27146SOL     OW85225   2.979   0.931   8.809  0.3421 -0.0624  0.3338
27146SOL    HW185226   2.968   1.024   8.788  0.0411 -0.3437 -0.7891
27146SOL    HW285227   2.962   0.885   8.727 -0.7454 -1.1924  1.1389
27147SOL     OW85228   7.447   5.956   8.790 -0.9457 -0.2026 -0.0419
27147SOL    HW185229   7.451   5.888   8.724 -0.7895 -1.9263  1.6399
27147SOL    HW285230   7.533   5.997   8.789 -1.1656  0.2642 -1.3298
27148SOL     OW85231   3.928   1.629   8.156 -1.0162  0.3291 -0.5482
27148SOL    HW185232   4.002   1.593   8.107  0.1580  1.0646  0.6226
27148SOL    HW285233   3.965   1.656   8.239 -2.5153  1.2023 -0.1207
27149SOL     OW85234   6.848   4.255   1.581  0.0297 -0.0655  0.5465
27149SOL    HW185235   6.758   4.268   1.609  0.0150 -0.8572  0.8900
27149SOL    HW285236   6.893   4.219   1.658 -0.2061 -3.0777 -0.5977
27150SOL     OW85237   4.348   6.318   0.074  0.6572 -0.3399  0.0498
27150SOL    HW185238   4.297   6.320   0.155  2.2637 -0.8692  1.1261
27150SOL    HW285239   4.336   6.406   0.036  0.0455 -0.0142  0.9568
27151SOL     OW85240   7.843   5.223   3.854 -1.2629  0.0394  0.2592
27151SOL    HW185241   7.873   5.310   3.830 -1.0378  0.0957  0.7299
27151SOL    HW285242   7.799   5.235   3.939 -0.6015 -0.4114  0.6777
27152SOL     OW85243   6.675   2.127   0.822 -0.3296  0.1907  0.0132
27152SOL    HW185244   6.603   2.112   0.761  0.6756 -1.5583 -0.8105
27152SOL    HW285245   6.655   2.212   0.862 -1.1806  1.3148 -2.5431
27153SOL     OW85246   9.183  10.311   3.923 -0.4460  0.2855 -0.2762
27153SOL    HW185247   9.119  10.367   3.881 -2.1659 -1.9609 -0.8055
27153SOL    HW285248   9.164  10.318   4.016 -1.4154 -0.2684 -0.4221
27154SOL     OW85249   8.579   8.321   2.054  0.0527  0.6088 -0.2417
27154SOL    HW185250   8.510   8.374   2.092  0.3357  0.6592  0.2094
27154SOL    HW285251   8.533   8.245   2.016 -0.2994  0.9249 -0.4546
27155SOL     OW85252   1.804   8.584   3.611  0.2596  0.6200 -0.2009
27155SOL    HW185253   1.859   8.513   3.643 -1.3291  0.4549  2.4330
27155SOL    HW285254   1.746   8.543   3.547  0.9478  0.1093 -0.5147
27156SOL     OW85255   9.189   5.011   5.619 -0.1828 -0.1497 -0.0021
27156SOL    HW185256   9.146   4.926   5.624 -0.1636 -0.1140  0.9542
27156SOL    HW285257   9.172   5.052   5.703 -0.6234  1.0114 -0.6295
27157SOL     OW85258   8.516   4.873   1.823 -0.3818  0.1063 -0.1031
27157SOL    HW185259   8.485   4.899   1.909 -0.6152  1.7243 -0.6360
27157SOL    HW285260   8.437   4.852   1.773 -0.3271  0.2687 -0.2601
27158SOL     OW85261   2.217   9.175   3.156  0.6126  0.2656  0.0806
27158SOL    HW185262   2.125   9.152   3.173 -0.0476  0.7295 -2.4240
27158SOL    HW285263   2.267   9.103   3.192 -0.7643 -0.2180  1.1128
27159SOL     OW85264  10.237   9.496   3.172  0.1113 -0.0763 -0.2115
27159SOL    HW185265  10.180   9.434   3.217 -0.3922  1.0295  0.7034
27159SOL    HW285266  10.311   9.509   3.232  0.4073 -0.0758 -0.5701
27160SOL     OW85267   1.468   8.573   5.940 -0.9804  0.3043 -0.2885
27160SOL    HW185268   1.402   8.615   5.996  1.2212  0.9627  2.0191
27160SOL    HW285269   1.491   8.493   5.987  1.5074  1.2696  0.3134
27161SOL     OW85270   8.205   8.658   6.370 -0.4393  0.5736 -0.6560
27161SOL    HW185271   8.228   8.632   6.459  0.8044  1.7163 -0.6053
27161SOL    HW285272   8.135   8.599   6.345 -1.3023  0.6846  1.3335
27162SOL     OW85273   1.528   0.174   3.791  0.2345  0.8098 -0.1370
27162SOL    HW185274   1.599   0.225   3.829 -0.0899  1.2551 -0.1246
27162SOL    HW285275   1.505   0.221   3.711 -0.9527  1.4333  0.5451
27163SOL     OW85276   5.944   3.936   8.538  0.1910 -0.1417 -0.0401
27163SOL    HW185277   5.890   3.902   8.610 -0.8169 -0.4036 -0.8938
27163SOL    HW285278   5.953   3.862   8.478 -1.1682  0.7620 -1.4251
27164SOL     OW85279   0.607   0.218   5.373  0.5935  0.9735 -0.0459
27164SOL    HW185280   0.595   0.227   5.467 -0.4998  0.3006 -0.1052
27164SOL    HW285281   0.552   0.287   5.335 -2.7316 -1.5392 -0.2853
27165SOL     OW85282   6.051   3.133   0.345  0.5424  0.3935  0.0636
27165SOL    HW185283   6.108   3.187   0.290  0.0494  1.7163  0.8008
27165SOL    HW285284   5.974   3.188   0.361 -0.1844 -0.7080  0.4776
27166SOL     OW85285   4.707   3.876   6.707  0.3314 -0.1369  0.3706
27166SOL    HW185286   4.702   3.796   6.758  1.6777  2.1189  4.5453
27166SOL    HW285287   4.792   3.914   6.730  1.0559  1.2184 -3.6909
27167SOL     OW85288   8.500   1.476   6.861 -0.2925  0.6206  0.1113
27167SOL    HW185289   8.437   1.517   6.920 -1.2299 -0.1665 -0.3138
27167SOL    HW285290   8.458   1.395   6.833  1.3223 -0.4140  0.5690
27168SOL     OW85291   8.767   2.069   1.815 -0.0298  0.0237  0.0140
27168SOL    HW185292   8.696   2.133   1.816  0.4653  0.5762 -0.1427
27168SOL    HW285293   8.738   2.003   1.752 -0.5876  0.0318  0.2557
27169SOL     OW85294   4.233   2.735   7.016 -0.2837 -0.3149 -0.1420
27169SOL    HW185295   4.299   2.800   7.039 -1.5572  0.9575  0.0443
27169SOL    HW285296   4.234   2.673   7.089 -0.5314  0.6999  0.7610
27170SOL     OW85297   9.691  10.263   8.756 -0.0595  0.1943  0.0631
27170SOL    HW185298   9.690  10.265   8.852 -1.5858 -0.4873  0.0839
27170SOL    HW285299   9.599  10.275   8.731  0.3682  0.7342 -1.3355
27171SOL     OW85300   4.867   3.898   8.343  0.5409  0.2597 -0.1234
27171SOL    HW185301   4.898   3.989   8.347 -1.0848  0.8399  0.3555
27171SOL    HW285302   4.862   3.871   8.435 -1.6044  0.6937 -0.0517
27172SOL     OW85303   6.317   8.579   3.335  0.3429 -0.0128 -0.3617
27172SOL    HW185304   6.332   8.500   3.388 -0.0774 -0.6133 -1.1183
27172SOL    HW285305   6.223   8.596   3.343  0.5730  0.9436  0.5072
27173SOL     OW85306  10.199   2.465   8.674 -0.2797 -0.4952 -0.4655
27173SOL    HW185307  10.212   2.475   8.580 -0.2952 -2.4029 -0.7096
27173SOL    HW285308  10.284   2.438   8.708 -0.5347 -0.8934 -0.1198
27174SOL     OW85309   8.834   7.272   2.904 -0.6641 -0.0198 -0.0561
27174SOL    HW185310   8.765   7.315   2.853 -0.2369  2.1580  1.0747
27174SOL    HW285311   8.788   7.232   2.978 -0.6870  2.4049  1.3230
27175SOL     OW85312   9.955   2.285   8.086  0.4666  0.2106 -1.0119
27175SOL    HW185313  10.008   2.206   8.075  0.1382 -0.0410 -0.7973
27175SOL    HW285314   9.870   2.263   8.049 -0.8535 -0.8359  2.2811
27176SOL     OW85315   4.523   2.533   6.749  0.2640 -0.8166 -0.2237
27176SOL    HW185316   4.491   2.502   6.834  2.8431  1.7641  1.8790
27176SOL    HW285317   4.600   2.480   6.732 -0.3842 -1.4926 -1.1511
27177SOL     OW85318   2.861   0.990   1.816 -0.3521  0.5827  0.2086
27177SOL    HW185319   2.868   0.926   1.745  1.9827 -1.3255  1.9927
27177SOL    HW285320   2.933   1.051   1.800 -0.2604  0.5607  0.5286
27178SOL     OW85321   7.239   0.864   9.881  0.1126 -0.4602 -0.3629
27178SOL    HW185322   7.271   0.868   9.790 -2.4340 -1.7295 -1.4106
27178SOL    HW285323   7.146   0.883   9.874 -0.4450 -2.0625  1.7843
27179SOL     OW85324   6.963   4.159   1.820 -0.0960 -0.0874 -0.1976
27179SOL    HW185325   7.050   4.120   1.810  0.3259  0.8650 -0.2752
27179SOL    HW285326   6.956   4.178   1.913 -0.8141 -1.4944  0.0648
27180SOL     OW85327   2.845   5.990   0.386 -0.2374 -0.0791  0.8349
27180SOL    HW185328   2.836   6.016   0.294 -0.1373  0.1025  0.8742
27180SOL    HW285329   2.756   5.978   0.417 -0.2601 -0.5026  0.6133
27181SOL     OW85330   0.463   9.743   5.531  0.0403 -0.2351  0.3628
27181SOL    HW185331   0.459   9.799   5.609 -0.9930 -2.9661  2.4559
27181SOL    HW285332   0.374   9.745   5.496  0.1226 -0.1516  0.1628
27182SOL     OW85333  10.254   8.344   9.610  0.0372  0.0745  0.1378
27182SOL    HW185334  10.312   8.400   9.662  1.4818  0.2124 -1.5244
27182SOL    HW285335  10.270   8.256   9.643 -0.0939  0.3074  0.8380
27183SOL     OW85336   2.006   4.538   9.975 -0.6671  0.3545 -0.1593
27183SOL    HW185337   1.990   4.629  10.001 -0.7013  0.4863 -0.6389
27183SOL    HW285338   2.068   4.544   9.902 -0.9128  0.0143 -0.4002
27184SOL     OW85339   5.459   1.496   3.610  0.1815  0.1412 -0.3592
27184SOL    HW185340   5.453   1.434   3.682 -2.6948 -1.5987 -1.8790
27184SOL    HW285341   5.433   1.580   3.648  2.6943  0.2077  1.4118
27185SOL     OW85342   0.421   3.165   7.327 -0.4501  0.3554  0.1148
27185SOL    HW185343   0.363   3.187   7.399  1.2487  0.7818  1.4108
27185SOL    HW285344   0.465   3.247   7.306 -0.5310  0.1190 -1.0888
27186SOL     OW85345   9.512   5.214   1.936 -0.0243  0.4766  0.0221
27186SOL    HW185346   9.528   5.298   1.893 -0.7556  0.9023  0.5518
27186SOL    HW285347   9.433   5.229   1.988 -0.2687 -0.6010 -0.0265
27187SOL     OW85348   6.397   6.363   4.096  0.2261  0.2365 -0.1956
27187SOL    HW185349   6.461   6.306   4.054 -0.9113  0.0002 -1.6966
27187SOL    HW285350   6.440   6.448   4.103  0.6261  0.1426 -1.4144
27188SOL     OW85351   6.239   6.406   3.315  0.2415  0.7273 -0.0356
27188SOL    HW185352   6.313   6.428   3.371 -0.6212  2.2535  0.5520
27188SOL    HW285353   6.267   6.431   3.227  1.0618 -0.3471 -0.1025
27189SOL     OW85354   7.345   9.745   3.058 -0.2466  0.4209  0.0236
27189SOL    HW185355   7.330   9.839   3.067 -1.7216  0.1425  0.9248
27189SOL    HW285356   7.394   9.736   2.976  1.5827  2.0891  0.8651
27190SOL     OW85357   2.067   0.095   9.745 -0.3663 -0.3388  0.4748
27190SOL    HW185358   2.079   0.153   9.820 -0.2388  0.0904  0.1287
27190SOL    HW285359   2.076   0.153   9.669  0.9530 -1.0242  0.0864
27191SOL     OW85360   1.167   7.563  10.118  0.6382  0.5585  0.1711
27191SOL    HW185361   1.128   7.583  10.033  0.5733 -2.1840 -0.5368
27191SOL    HW285362   1.096   7.576  10.181 -0.7372 -1.7054 -0.7841
27192SOL     OW85363   6.527  10.210   2.889 -0.3419  0.2657  0.5562
27192SOL    HW185364   6.572  10.262   2.955  0.5238  0.7019 -0.3529
27192SOL    HW285365   6.510  10.126   2.931 -0.2822  0.7137  1.4944
27193SOL     OW85366   9.685   1.285   1.238 -0.8511  0.5737  0.2630
27193SOL    HW185367   9.678   1.332   1.320  1.9473  1.4368  0.1141
27193SOL    HW285368   9.737   1.343   1.181  0.6898 -1.6361 -0.7287
27194SOL     OW85369   9.209   7.267   1.061 -0.1141 -0.0622 -0.0433
27194SOL    HW185370   9.144   7.215   1.110 -0.4184  0.3876  0.0332
27194SOL    HW285371   9.194   7.357   1.089 -0.2199  0.1896 -0.8920
27195SOL     OW85372   5.379   3.497   9.396  0.0673 -0.1890 -0.3506
27195SOL    HW185373   5.319   3.561   9.357  1.0079  1.2576  0.5064
27195SOL    HW285374   5.461   3.544   9.409  1.0475 -1.7923 -0.3766
27196SOL     OW85375   7.217   7.006   6.727  0.9289 -0.3150 -0.5701
27196SOL    HW185376   7.164   6.964   6.659  0.5726  1.0321 -1.1579
27196SOL    HW285377   7.234   7.094   6.694 -1.4384  1.3488  2.1338
27197SOL     OW85378  10.330   2.709   8.577 -0.5584 -0.1407  0.5714
27197SOL    HW185379  10.248   2.724   8.530 -0.3945 -0.9372  0.0085
27197SOL    HW285380  10.305   2.706   8.669 -0.9571  0.9523  0.5211
27198SOL     OW85381   3.352   8.585   8.288  0.1851  0.3298  0.0997
27198SOL    HW185382   3.372   8.513   8.348  0.7632  1.0561  0.8128
27198SOL    HW285383   3.369   8.550   8.201  0.2121 -0.4735  0.4244
27199SOL     OW85384   4.278   0.373   2.405  0.0711 -0.0660 -0.2671
27199SOL    HW185385   4.361   0.343   2.443 -0.2603  0.8653  1.2604
27199SOL    HW285386   4.284   0.469   2.409 -1.5484  0.0078  0.9195
27200SOL     OW85387   3.252   0.831   0.444 -0.2945  0.2338  0.2115
27200SOL    HW185388   3.245   0.789   0.530 -0.1612  1.5920  0.9092
27200SOL    HW285389   3.288   0.917   0.463 -1.8809  1.2091 -1.0154
27201SOL     OW85390   9.589   1.832   2.271 -0.2274  0.0023  0.7503
27201SOL    HW185391   9.534   1.866   2.341 -1.4557 -1.6378  0.6227
27201SOL    HW285392   9.534   1.769   2.225  0.9398  0.1603 -0.9612
27202SOL     OW85393   8.486   7.938   2.531 -0.4191 -0.0752 -0.3466
27202SOL    HW185394   8.451   7.970   2.448  0.4031  0.4071 -0.5177
27202SOL    HW285395   8.438   7.986   2.597 -1.3194 -0.7050 -0.5197
27203SOL     OW85396   8.783   3.549   3.172 -0.1220  0.1947 -0.0801
27203SOL    HW185397   8.728   3.471   3.185  0.6476 -0.5100 -0.8853
27203SOL    HW285398   8.721   3.622   3.166 -0.7903 -0.1153  2.2230
27204SOL     OW85399   8.618   4.400   1.126 -0.1537  0.1853  0.2230
27204SOL    HW185400   8.641   4.411   1.034 -1.7135  1.3736 -0.0800
27204SOL    HW285401   8.542   4.342   1.125  0.0834 -0.1435  0.7955
27205SOL     OW85402   0.038   6.486   0.183 -0.6958  0.9549  0.0528
27205SOL    HW185403   0.000   6.468   0.269 -0.5316 -0.2720 -0.1141
27205SOL    HW285404   0.127   6.515   0.202 -0.1543 -0.7509  0.2603
27206SOL     OW85405  10.225   7.613   8.272  0.3559  0.3295 -0.1366
27206SOL    HW185406  10.146   7.658   8.304  0.5065  0.9224 -0.5773
27206SOL    HW285407  10.251   7.556   8.344 -0.3021  0.3581  0.1294
27207SOL     OW85408   6.040   9.497   2.798  0.0398  0.7728 -0.0784
27207SOL    HW185409   6.055   9.405   2.776 -0.3876  0.7790 -0.4196
27207SOL    HW285410   6.017   9.538   2.715  0.0810  1.1607  0.0970
27208SOL     OW85411  10.334   0.824   3.910 -0.3093  0.2843 -0.2204
27208SOL    HW185412  10.337   0.908   3.864 -0.5351  2.1166  2.8811
27208SOL    HW285413  10.240   0.807   3.922 -0.2390  0.3245  0.3987
27209SOL     OW85414   3.484   3.615   9.467  0.7436  0.1860 -0.4281
27209SOL    HW185415   3.438   3.693   9.437 -0.0516 -0.3375 -0.6322
27209SOL    HW285416   3.472   3.616   9.562  3.2997  1.8658 -0.0365
27210SOL     OW85417   8.171   6.067   4.369 -0.2713 -0.2921  0.3073
27210SOL    HW185418   8.187   6.044   4.277 -2.7502 -1.6399  0.1324
27210SOL    HW285419   8.249   6.117   4.395  0.9705 -0.7610 -2.1974
27211SOL     OW85420   8.815   0.956   8.820  0.0770 -0.5352  0.1767
27211SOL    HW185421   8.833   0.900   8.897  0.2364 -0.0525  0.4945
27211SOL    HW285422   8.734   0.921   8.784  0.7139 -1.6341 -0.2409
27212SOL     OW85423   0.280   5.486   3.543  0.1036  0.3012  0.3078
27212SOL    HW185424   0.374   5.472   3.528  0.3830  0.6336  1.6189
27212SOL    HW285425   0.272   5.496   3.637 -1.3052  0.0034  0.2462
27213SOL     OW85426   0.629   7.909   3.682  0.2706 -0.5834 -0.1191
27213SOL    HW185427   0.703   7.964   3.656 -0.4944  0.4465 -0.1635
27213SOL    HW285428   0.608   7.939   3.770  0.7674 -1.8232  0.4403
27214SOL     OW85429   6.033   0.544   2.577  0.2401 -0.1171  0.2723
27214SOL    HW185430   5.977   0.617   2.550  0.3767 -0.4099 -0.8209
27214SOL    HW285431   6.100   0.585   2.633 -0.2631  0.4359  0.4798
27215SOL     OW85432   6.009   6.372   0.274  0.1695 -0.0225  0.1246
27215SOL    HW185433   5.973   6.441   0.217  1.1605 -0.5785 -1.2156
27215SOL    HW285434   5.963   6.293   0.247  1.7136 -0.5748 -1.0083
27216SOL     OW85435   2.624   2.844   9.815 -0.5467  0.3991  0.4247
27216SOL    HW185436   2.656   2.807   9.733 -0.3138  1.8750 -0.1860
27216SOL    HW285437   2.703   2.862   9.866 -0.7329 -2.1924  1.8169
27217SOL     OW85438   2.306   9.597   5.148  0.1214  0.0681  0.0719
27217SOL    HW185439   2.223   9.645   5.139  0.0241 -0.1853 -0.4168
27217SOL    HW285440   2.291   9.538   5.222  0.6126  1.5297  1.3999
27218SOL     OW85441   3.017   5.860   0.025 -0.3021  0.4251  0.2074
27218SOL    HW185442   2.993   5.777   0.066  2.2945 -0.5663 -0.0935
27218SOL    HW285443   3.078   5.835  -0.045 -0.8170  2.4700 -1.0327
27219SOL     OW85444   6.998   9.298   0.962 -0.7651 -0.3861  0.3040
27219SOL    HW185445   6.920   9.297   0.907 -1.5341 -1.9982  1.3569
27219SOL    HW285446   7.063   9.248   0.912 -0.4118  0.8134 -0.4950
27220SOL     OW85447   5.019   2.006   3.088  0.4985  0.4635  0.0205
27220SOL    HW185448   5.019   1.911   3.083 -0.1527  0.4744 -0.2697
27220SOL    HW285449   5.104   2.028   3.126 -0.0252 -0.3243  1.7378
27221SOL     OW85450   0.350   0.268   4.386 -0.6823  0.1195  0.5562
27221SOL    HW185451   0.270   0.222   4.361 -0.6719  0.9627 -1.1239
27221SOL    HW285452   0.374   0.319   4.309  1.3139  0.1241  1.1278
27222SOL     OW85453   0.788   4.454   3.118  0.2460 -0.1558  0.3853
27222SOL    HW185454   0.759   4.504   3.194 -1.1352 -0.2514 -0.0395
27222SOL    HW285455   0.816   4.370   3.153 -0.4140 -0.2110  0.8046
27223SOL     OW85456   6.177   0.316   1.205 -0.7029 -0.0132  0.4782
27223SOL    HW185457   6.118   0.378   1.162 -0.2250  0.5518  0.6295
27223SOL    HW285458   6.197   0.251   1.138  0.3150  1.0493 -0.2720
27224SOL     OW85459   2.063   4.346   1.324 -0.0236  0.3268 -0.2833
27224SOL    HW185460   2.043   4.439   1.341  0.8736  0.4712  0.0396
27224SOL    HW285461   2.054   4.304   1.410 -1.3166 -0.0665 -0.5936
27225SOL     OW85462   1.237   3.335   7.068 -0.1018  0.7576 -0.1948
27225SOL    HW185463   1.250   3.312   6.975 -1.7462 -1.3727  0.0251
27225SOL    HW285464   1.267   3.257   7.116  1.4033  2.1018  1.1556
27226SOL     OW85465   8.576   8.204   8.014  0.1894  0.2247 -0.0326
27226SOL    HW185466   8.506   8.156   8.058 -0.7027  0.0182 -1.6181
27226SOL    HW285467   8.599   8.150   7.939  0.6047  1.2799 -0.6894
27227SOL     OW85468   8.401   9.819   0.227 -0.4824  0.5537  0.3583
27227SOL    HW185469   8.450   9.788   0.303 -1.4931 -1.7472  0.1566
27227SOL    HW285470   8.310   9.822   0.257 -0.9170 -0.5274 -0.7700
27228SOL     OW85471  10.178   6.814   8.233  0.6983 -0.3007  0.7221
27228SOL    HW185472  10.174   6.733   8.283 -1.4256 -0.3215  0.6156
27228SOL    HW285473  10.155   6.883   8.295 -0.3494 -0.1363  0.1730
27229SOL     OW85474   2.525  10.049   2.127  1.1416 -0.1525  0.4506
27229SOL    HW185475   2.470  10.109   2.177 -0.0409 -1.6606  1.0206
27229SOL    HW285476   2.488  10.049   2.039  0.7386 -0.5149  0.6155
27230SOL     OW85477   2.473   5.705   3.815 -0.2982  0.1866  0.1658
27230SOL    HW185478   2.462   5.662   3.900  2.8106 -1.1630  0.0241
27230SOL    HW285479   2.407   5.665   3.759  0.9989 -2.8711  0.6538
27231SOL     OW85480   5.617   8.790   4.087  0.3635  0.0495 -0.3253
27231SOL    HW185481   5.586   8.837   4.165 -0.4625  0.1646 -0.7120
27231SOL    HW285482   5.686   8.845   4.052  0.3085  0.3112 -0.0293
27232SOL     OW85483   7.142   4.771   8.175 -0.5342  0.3286 -0.0408
27232SOL    HW185484   7.059   4.743   8.215  0.5760  0.0132  2.2179
27232SOL    HW285485   7.209   4.729   8.229  1.1267  1.9889 -0.7153
27233SOL     OW85486   0.787   5.578   2.643 -0.0282  0.1309 -0.1885
27233SOL    HW185487   0.752   5.651   2.695 -0.2638  0.9340 -1.4173
27233SOL    HW285488   0.824   5.620   2.565 -0.4701 -1.0820 -1.0837
27234SOL     OW85489   8.250   1.740   7.160  0.3059  0.0259  0.2324
27234SOL    HW185490   8.297   1.738   7.244  0.5935 -1.7080  0.0731
27234SOL    HW285491   8.159   1.724   7.183 -0.1677  2.7632  0.4815
27235SOL     OW85492   8.525   6.515   0.231  0.0009  0.8448 -0.0663
27235SOL    HW185493   8.619   6.525   0.251  0.3738 -1.2719 -0.4552
27235SOL    HW285494   8.497   6.444   0.289 -1.1777  0.9395 -0.5142
27236SOL     OW85495   3.692   8.014   5.122 -0.4160  0.1123 -0.2836
27236SOL    HW185496   3.674   7.969   5.039 -0.6668 -0.2371 -0.0411
27236SOL    HW285497   3.631   8.087   5.124 -0.1691  0.3283 -0.5695
27237SOL     OW85498   4.176   6.728   3.377 -0.2299 -0.1269  0.4956
27237SOL    HW185499   4.154   6.731   3.283  0.2382 -1.2305  0.3388
27237SOL    HW285500   4.268   6.703   3.379  0.2348  1.5198  1.2342
27238SOL     OW85501   7.078   1.496   4.326 -0.0387  0.1686 -0.0222
27238SOL    HW185502   7.166   1.464   4.348 -0.3764 -1.5148 -1.0080
27238SOL    HW285503   7.085   1.524   4.235 -0.9932 -1.9387 -0.7941
27239SOL     OW85504   3.458   0.400   4.574  0.1196 -0.6562  0.3737
27239SOL    HW185505   3.437   0.326   4.517  1.3382 -0.9257  0.2546
27239SOL    HW285506   3.379   0.454   4.574 -0.6931 -1.8160  0.2459
27240SOL     OW85507   1.789   2.771   7.204 -0.1514 -0.4447  0.2283
27240SOL    HW185508   1.734   2.695   7.184 -0.0950 -0.0206 -1.7229
27240SOL    HW285509   1.866   2.760   7.149  0.1342  0.7382  0.3722
27241SOL     OW85510   5.060   7.185   0.916 -0.1119  0.2240 -0.5153
27241SOL    HW185511   5.088   7.180   0.825 -1.9918 -1.5361 -1.0774
27241SOL    HW285512   4.964   7.189   0.912 -0.2041  1.0252  1.3709
27242SOL     OW85513   8.509   6.520   7.187  0.4953  0.1871  0.0668
27242SOL    HW185514   8.604   6.513   7.198  0.3046 -2.0432  0.7542
27242SOL    HW285515   8.473   6.449   7.239 -1.5695  0.8664 -0.3275
27243SOL     OW85516   0.989   5.555   0.994 -0.7912  0.1823 -0.5472
27243SOL    HW185517   0.956   5.615   0.927  1.5442  0.2569 -1.7368
27243SOL    HW285518   1.073   5.593   1.021 -1.1199 -0.4716  1.6131
27244SOL     OW85519  10.308   0.479   8.243  0.1592 -0.9537  0.4883
27244SOL    HW185520  10.368   0.457   8.171  2.4866  0.5377  1.8398
27244SOL    HW285521  10.366   0.499   8.316 -2.0458  0.3557  1.9716
27245SOL     OW85522   9.559   7.025   4.993  0.2093 -0.3282 -0.0181
27245SOL    HW185523   9.512   7.075   4.926  1.6131 -0.7496 -1.3813
27245SOL    HW285524   9.514   6.940   4.995  0.0645 -0.2621 -0.3331
27246SOL     OW85525   9.312   7.519   0.470  0.0721  0.1801  0.4707
27246SOL    HW185526   9.320   7.593   0.530 -2.0592  1.7012 -0.9981
27246SOL    HW285527   9.386   7.529   0.410 -0.7932  1.8300 -0.3884
27247SOL     OW85528   6.137   3.200   3.482  0.5422  0.6246 -0.0347
27247SOL    HW185529   6.210   3.261   3.487  0.6597  0.3876  1.9391
27247SOL    HW285530   6.169   3.128   3.427  1.0182  1.4852 -0.9178
27248SOL     OW85531   9.449   6.918   1.725 -0.0832 -0.5893  0.2759
27248SOL    HW185532   9.456   6.857   1.799  0.0638 -1.8102 -0.7140
27248SOL    HW285533   9.537   6.954   1.715  0.0651 -0.9589  0.2493
27249SOL     OW85534   6.259   3.939   4.774 -0.2460 -0.1381 -0.0728
27249SOL    HW185535   6.221   4.018   4.812  1.8355  1.0588 -0.3193
27249SOL    HW285536   6.214   3.867   4.818 -0.3052  1.1752  2.1594
27250SOL     OW85537   5.251   6.456   1.991  0.2905 -0.3228  0.0195
27250SOL    HW185538   5.332   6.503   2.007 -0.4541  0.3294  2.1926
27250SOL    HW285539   5.221   6.428   2.078 -1.9495 -0.2702 -0.6636
27251SOL     OW85540   2.636   0.612   3.888  0.4404  0.4430  0.4151
27251SOL    HW185541   2.609   0.522   3.903  0.5780  0.3735  0.2509
27251SOL    HW285542   2.717   0.622   3.940  1.9468 -0.3496 -1.6587
27252SOL     OW85543   8.772   3.921   8.135 -0.1873  0.3138 -0.0836
27252SOL    HW185544   8.824   3.875   8.069 -0.8688  0.7380 -0.9376
27252SOL    HW285545   8.719   3.852   8.177  0.1802  0.0576 -0.0363
27253SOL     OW85546   0.108   1.039   8.852 -0.2721 -0.2988  0.1705
27253SOL    HW185547   0.158   0.962   8.823 -1.3299 -1.0867  0.3735
27253SOL    HW285548   0.046   1.056   8.781 -0.3750  0.0576  0.3425
27254SOL     OW85549  10.031   3.610   6.389  0.4067 -0.0181 -0.2387
27254SOL    HW185550  10.114   3.569   6.412  0.2351  0.0472  0.5436
27254SOL    HW285551  10.046   3.704   6.403 -0.2627 -0.1292  1.5366
27255SOL     OW85552   6.786   4.623   9.934  0.1182 -0.3692 -0.3595
27255SOL    HW185553   6.824   4.592  10.017 -0.8065 -2.2679 -0.5843
27255SOL    HW285554   6.822   4.711   9.923  1.4276 -0.6292  1.3105
27256SOL     OW85555   1.497   0.480   7.496 -0.4402  0.1751 -0.2550
27256SOL    HW185556   1.435   0.491   7.568 -2.0463  1.9777 -1.7675
27256SOL    HW285557   1.491   0.563   7.447  1.8139 -0.3322 -1.5306
27257SOL     OW85558   7.487   6.734   1.571 -0.3572 -0.2837  0.2370
27257SOL    HW185559   7.419   6.791   1.535  0.0989 -0.6690 -1.2995
27257SOL    HW285560   7.542   6.792   1.622 -1.2296  0.2203  0.6332
27258SOL     OW85561   7.927   4.085   3.798  0.2569  0.5122  0.0383
27258SOL    HW185562   7.911   4.178   3.816  1.3156  0.6891  0.1189
27258SOL    HW285563   8.020   4.081   3.776  0.0695 -0.4314 -0.6291
27259SOL     OW85564   6.022   9.629   2.555 -0.0190  0.4185 -0.7074
27259SOL    HW185565   6.048   9.587   2.473  0.2408  0.0820 -0.4549
27259SOL    HW285566   5.981   9.711   2.528  1.0941  0.8509 -1.1195
27260SOL     OW85567   8.980   2.190   8.943  0.3736 -0.3278 -0.1402
27260SOL    HW185568   9.058   2.235   8.975  0.4000 -0.9468  0.6802
27260SOL    HW285569   8.953   2.133   9.015 -1.4904  0.6862  0.0367
27261SOL     OW85570   0.252   1.513   9.260 -0.0232 -0.3080  0.5570
27261SOL    HW185571   0.310   1.530   9.334  0.5778 -0.0350  0.0363
27261SOL    HW285572   0.291   1.438   9.215 -0.3387 -0.4233  0.4731
27262SOL     OW85573   4.830   9.957   7.233 -0.0563  0.1573  0.0773
27262SOL    HW185574   4.763  10.004   7.283 -0.3846  0.0486 -0.2566
27262SOL    HW285575   4.782   9.918   7.160 -0.0576 -1.8949  1.1232
27263SOL     OW85576   5.913   6.455   6.907  0.0664  0.0465  0.2402
27263SOL    HW185577   5.844   6.407   6.953 -0.8990 -0.3059 -1.5082
27263SOL    HW285578   5.960   6.389   6.857  1.8052  0.2630  1.4835
27264SOL     OW85579   5.166   5.915   9.934 -0.0800 -0.0517  0.0645
27264SOL    HW185580   5.121   5.999   9.942  0.2246 -0.0102  1.6392
27264SOL    HW285581   5.105   5.852   9.972  0.2315 -0.3506  0.0654
27265SOL     OW85582   8.484   5.258   0.025  0.4841 -0.1350 -0.1523
27265SOL    HW185583   8.416   5.192   0.026  0.6525 -0.3261  1.9949
27265SOL    HW285584   8.548   5.226  -0.039 -1.9724  0.7405 -3.2856
27266SOL     OW85585   9.508   3.395   9.721 -1.4066  0.1966  0.3658
27266SOL    HW185586   9.495   3.462   9.789 -1.5349  0.3626  0.1798
27266SOL    HW285587   9.600   3.404   9.697 -1.4269  0.3167  0.3308
27267SOL     OW85588   4.737   2.087   7.171 -0.1197  0.3672  0.5342
27267SOL    HW185589   4.667   2.048   7.118  0.8364 -0.5753 -0.0649
27267SOL    HW285590   4.691   2.128   7.245 -1.2685 -0.7080  0.4492
27268SOL     OW85591   2.590   7.381   9.344  0.1104 -0.1475 -0.6233
27268SOL    HW185592   2.599   7.370   9.438 -1.8523 -0.1169 -0.3829
27268SOL    HW285593   2.680   7.387   9.311  0.8706 -1.4505  1.0689
27269SOL     OW85594  10.089   4.211   4.017  0.1468 -0.0521 -0.3274
27269SOL    HW185595  10.086   4.299   3.978 -1.3830 -0.4943 -1.3089
27269SOL    HW285596  10.099   4.152   3.943 -1.9844 -0.8639 -0.0339
27270SOL     OW85597   8.108   4.283   8.789 -0.2613  0.3871  0.0921
27270SOL    HW185598   8.068   4.196   8.795  1.2929 -0.4504 -0.7604
27270SOL    HW285599   8.054   4.331   8.727 -0.4091 -0.4282 -0.4223
27271SOL     OW85600   7.877   8.791   9.837  0.3722 -0.0392 -0.0018
27271SOL    HW185601   7.854   8.873   9.792  1.3220  0.0587 -0.3258
27271SOL    HW285602   7.818   8.789   9.913 -0.3009  0.4816 -0.4913
27272SOL     OW85603   7.689   7.196   2.544  0.3764 -0.1221 -0.6711
27272SOL    HW185604   7.680   7.236   2.457  2.0108  0.4880 -0.6006
27272SOL    HW285605   7.774   7.152   2.541  0.2351 -0.4889  0.4705
27273SOL     OW85606   0.848   5.761   6.610 -0.0529 -0.6537 -0.1239
27273SOL    HW185607   0.778   5.710   6.650 -0.5268  0.6672  0.7985
27273SOL    HW285608   0.929   5.720   6.643 -0.4248 -0.5868  0.9307
27274SOL     OW85609   4.190   1.198   6.303 -0.2601 -0.8993 -0.4434
27274SOL    HW185610   4.281   1.190   6.331 -0.0337 -0.7084 -1.1079
27274SOL    HW285611   4.157   1.275   6.350 -0.7195 -2.1913  1.4332
27275SOL     OW85612   8.470   8.201   7.273  0.3208 -0.1884  0.7528
27275SOL    HW185613   8.380   8.223   7.252  1.1881  1.6701 -1.4778
27275SOL    HW285614   8.470   8.106   7.285 -1.6464 -0.4559 -0.9048
27276SOL     OW85615   2.546   8.099   9.878 -0.3452  0.2156  0.5841
27276SOL    HW185616   2.527   8.142   9.962 -2.3606 -0.2945  0.4579
27276SOL    HW285617   2.526   8.165   9.812 -1.3452 -0.1992  0.4537
27277SOL     OW85618   1.563   5.230   5.185  0.5361 -0.0272 -0.0161
27277SOL    HW185619   1.501   5.188   5.127 -0.5044 -0.0302  1.0637
27277SOL    HW285620   1.528   5.318   5.200  1.2476  0.2789 -0.0735
27278SOL     OW85621   7.504   9.535   7.989 -0.1903 -0.4230  0.1292
27278SOL    HW185622   7.478   9.444   7.985  1.7428 -1.0646  0.8470
27278SOL    HW285623   7.459   9.570   8.066 -1.5452 -0.5179 -0.5875
27279SOL     OW85624   0.977   9.356   5.508 -0.5954  0.2731  0.2008
27279SOL    HW185625   0.994   9.314   5.592 -1.0304  0.0701  0.1908
27279SOL    HW285626   0.996   9.448   5.523  1.8428 -0.0918 -0.1753
27280SOL     OW85627   9.082   7.924   7.639  0.6282 -0.0943 -0.0915
27280SOL    HW185628   9.063   7.992   7.703  0.5348 -0.6782  0.5096
27280SOL    HW285629   9.177   7.916   7.639  0.5469 -1.6118  1.6086
27281SOL     OW85630   4.805   7.623   9.240  0.4074  0.7238  0.6909
27281SOL    HW185631   4.886   7.582   9.210  0.5181  1.6347 -0.3188
27281SOL    HW285632   4.805   7.610   9.335  0.1703 -2.0649  0.4029
27282SOL     OW85633   6.529   1.267   5.799 -0.3028  0.6090  0.2318
27282SOL    HW185634   6.546   1.286   5.891 -2.8690  0.0536  0.9061
27282SOL    HW285635   6.573   1.338   5.751 -0.4419  1.9577  2.0007
27283SOL     OW85636   7.734   8.354   0.766 -0.5601  0.0988  0.7434
27283SOL    HW185637   7.641   8.362   0.743 -0.4948 -0.8198  0.0943
27283SOL    HW285638   7.767   8.288   0.705 -0.0243 -1.3953  2.5735
27284SOL     OW85639   5.097   7.578   1.805 -0.1187 -0.0218 -0.1211
27284SOL    HW185640   5.034   7.634   1.761  0.3513 -0.3603 -1.2449
27284SOL    HW285641   5.064   7.490   1.794 -1.7160  0.0255  3.0117
27285SOL     OW85642   0.333   2.801   7.479 -0.4029 -0.1221  0.5081
27285SOL    HW185643   0.409   2.857   7.460 -0.7726 -0.3285 -2.0160
27285SOL    HW285644   0.343   2.776   7.570  0.7084  2.6555  1.2563
27286SOL     OW85645   7.862   8.407   1.909 -1.2107  0.5099 -0.4271
27286SOL    HW185646   7.795   8.432   1.972 -1.6525 -1.0908 -0.2214
27286SOL    HW285647   7.818   8.408   1.824 -0.9967  1.2564 -0.5340
27287SOL     OW85648   5.979   6.689  10.063  0.3662 -0.1121  0.0138
27287SOL    HW185649   5.981   6.759   9.998  0.2053  0.3989  0.5508
27287SOL    HW285650   6.022   6.726  10.140 -0.9995 -0.0916  0.8051
27288SOL     OW85651   7.749   9.406   7.040 -0.3483  0.3053 -0.0797
27288SOL    HW185652   7.672   9.462   7.043 -0.9825 -0.5120 -0.7758
27288SOL    HW285653   7.734   9.340   7.108  0.6844  1.3086  1.1727
27289SOL     OW85654   3.559   2.947   7.089 -0.2882 -0.1857 -0.2128
27289SOL    HW185655   3.471   2.925   7.057  0.5249 -0.4662 -2.4617
27289SOL    HW285656   3.610   2.867   7.074  0.0739 -0.5373  2.4556
27290SOL     OW85657   7.425   5.092   3.588 -0.6362  0.2953 -0.4525
27290SOL    HW185658   7.390   5.060   3.671 -0.2599  0.7675 -0.1052
27290SOL    HW285659   7.436   5.013   3.535 -1.7572  0.0840 -0.3991
27291SOL     OW85660   9.224   4.421   7.064  0.5098 -0.0234 -0.0009
27291SOL    HW185661   9.165   4.401   7.136 -0.4462  0.1470 -0.7151
27291SOL    HW285662   9.188   4.374   6.989  2.2230 -1.2493 -0.1015
27292SOL     OW85663   9.117   4.756   4.522  0.2529  0.2968 -0.0991
27292SOL    HW185664   9.099   4.687   4.458 -2.4997  1.6860 -0.9937
27292SOL    HW285665   9.071   4.728   4.601  0.2124  0.4903 -0.0541
27293SOL     OW85666   9.436   8.069   1.057 -0.1096  0.4576 -0.0841
27293SOL    HW185667   9.368   8.135   1.045  1.9251  3.0191  1.4869
27293SOL    HW285668   9.406   7.994   1.005 -3.3952  1.9312 -0.5612
27294SOL     OW85669   3.093   4.239   1.304 -0.1041 -0.0336  0.6026
27294SOL    HW185670   3.158   4.268   1.368  0.2642 -1.1250  0.7325
27294SOL    HW285671   3.015   4.219   1.357 -0.2689  0.4427  0.5433
27295SOL     OW85672   7.126   2.462   7.340  0.4635  0.2871  0.1366
27295SOL    HW185673   7.113   2.409   7.261  1.1612  0.6953 -0.2625
27295SOL    HW285674   7.107   2.551   7.312 -0.4373  0.2940  0.7342
27296SOL     OW85675   6.808   6.509   1.764  0.1981 -0.1537  0.3986
27296SOL    HW185676   6.875   6.541   1.704  0.8078 -0.3430  0.9681
27296SOL    HW285677   6.765   6.438   1.716  1.1486 -0.7737  0.4413
27297SOL     OW85678   0.840   3.288   8.949  0.2197 -0.6707  0.1111
27297SOL    HW185679   0.888   3.211   8.918  2.8808 -0.3183  2.9335
27297SOL    HW285680   0.758   3.252   8.985  2.0322 -2.5334  2.7473
27298SOL     OW85681   2.896   1.387   7.830  0.4078 -0.4097 -0.0120
27298SOL    HW185682   2.912   1.391   7.736  0.2905 -2.4953 -0.1727
27298SOL    HW285683   2.969   1.336   7.865 -0.9618 -2.0734  0.5741
27299SOL     OW85684   4.021   8.118   5.048  0.8413  0.7223 -0.1746
27299SOL    HW185685   4.108   8.109   5.009  0.1573 -2.3328 -1.2146
27299SOL    HW285686   4.026   8.071   5.131 -0.1607 -0.7547 -0.9169
27300SOL     OW85687   7.213   4.062   1.796  0.5001  0.7477  0.0911
27300SOL    HW185688   7.258   3.978   1.801  1.3302  1.1654 -0.2513
27300SOL    HW285689   7.280   4.124   1.766  0.1400  1.7000  1.1705
27301SOL     OW85690   1.206   2.536   0.519  0.1995 -0.1694 -0.3560
27301SOL    HW185691   1.135   2.568   0.464  0.1238  0.4532  0.0885
27301SOL    HW285692   1.200   2.440   0.514 -0.3296 -0.1186 -0.7436
27302SOL     OW85693  10.260   6.051   9.173 -0.3674  0.3979  0.2958
27302SOL    HW185694  10.225   6.132   9.209 -0.6889  1.1672 -1.6278
27302SOL    HW285695  10.348   6.073   9.143 -0.5252  0.0958 -0.4100
27303SOL     OW85696   8.451   5.858   8.772  0.0247 -0.1735  0.8603
27303SOL    HW185697   8.505   5.881   8.848 -0.4891  1.0054  0.8876
27303SOL    HW285698   8.410   5.775   8.797 -1.2899  0.9064  2.5329
27304SOL     OW85699   3.440   2.631   5.518  0.2480 -0.5188 -0.1940
27304SOL    HW185700   3.479   2.550   5.551  1.4465  0.3019  0.4648
27304SOL    HW285701   3.468   2.698   5.579  0.0847  0.5633 -1.2772
27305SOL     OW85702   3.691   0.653   3.695  0.0961  0.1585 -0.3131
27305SOL    HW185703   3.746   0.731   3.700 -0.6863  0.8809 -2.0084
27305SOL    HW285704   3.729   0.601   3.624 -0.5721 -0.0111 -0.5590
27306SOL     OW85705   4.581   0.355   0.809 -0.3458 -0.1677  0.2206
27306SOL    HW185706   4.617   0.418   0.747 -0.1749 -0.3775  0.1029
27306SOL    HW285707   4.585   0.399   0.893  0.2748 -0.2203  0.2233
27307SOL     OW85708   3.278   6.000   2.550 -0.4690  0.4043  0.2264
27307SOL    HW185709   3.238   6.015   2.636 -1.6169  1.4372 -0.4548
27307SOL    HW285710   3.274   6.085   2.506  0.1664 -0.0867 -0.8307
27308SOL     OW85711   7.307   7.620   9.103  0.0865  0.2916 -0.4316
27308SOL    HW185712   7.239   7.649   9.164  0.1928  0.1029 -0.2256
27308SOL    HW285713   7.306   7.525   9.108 -1.5648  0.1259 -2.4986
27309SOL     OW85714   7.707   4.381   3.439 -0.3820  0.2081  0.0907
27309SOL    HW185715   7.792   4.377   3.483  0.1895 -0.2074 -1.0128
27309SOL    HW285716   7.697   4.473   3.413 -0.1680  0.2131  0.0263
27310SOL     OW85717  10.283   2.313   9.411  0.1923 -0.9927  0.0913
27310SOL    HW185718  10.203   2.260   9.398 -0.6635 -0.1071  1.4872
27310SOL    HW285719  10.329   2.269   9.482  0.6782 -1.1806 -0.3351
27311SOL     OW85720   9.696   5.585   4.174 -0.3904 -0.0305 -0.0437
27311SOL    HW185721   9.682   5.618   4.085 -0.6997  0.2733  0.1172
27311SOL    HW285722   9.648   5.645   4.230  0.3028  0.1311  0.3870
27312SOL     OW85723   0.791   8.276  10.024 -0.2079  0.0963  0.5086
27312SOL    HW185724   0.870   8.325  10.004 -0.4607  0.4068  0.2601
27312SOL    HW285725   0.723   8.343  10.037 -0.8289 -0.1986 -0.9876
27313SOL     OW85726   9.565   0.692   4.820  0.3866  0.3513 -0.7893
27313SOL    HW185727   9.585   0.613   4.770 -1.1627 -0.1733 -0.6554
27313SOL    HW285728   9.565   0.762   4.756  1.5453  0.2097 -0.9549
27314SOL     OW85729   0.117   5.429   7.527 -0.4662  0.1410  0.3231
27314SOL    HW185730   0.102   5.441   7.621  1.9873  1.6389  0.6227
27314SOL    HW285731   0.099   5.515   7.489 -2.2757 -0.6639 -0.7809
27315SOL     OW85732   5.435   5.177   9.709 -0.2540  0.2178  0.0498
27315SOL    HW185733   5.505   5.113   9.709 -0.4836 -0.0423  1.0056
27315SOL    HW285734   5.357   5.129   9.681 -0.0801  0.5018 -0.9929
27316SOL     OW85735   8.536   3.219  10.022  0.2691 -0.1339  0.2418
27316SOL    HW185736   8.521   3.127  10.041 -0.1636  0.0039  0.6036
27316SOL    HW285737   8.485   3.266  10.089  3.3300  0.3941  2.4304
27317SOL     OW85738   0.731   7.871   9.415 -0.2204  0.0196 -0.2417
27317SOL    HW185739   0.761   7.850   9.503 -0.6130 -1.3598 -0.4153
27317SOL    HW285740   0.728   7.967   9.413  0.3031  0.0813  1.0617
27318SOL     OW85741  10.309   9.008   6.801  0.3284 -0.2741  0.4543
27318SOL    HW185742  10.345   9.089   6.837  0.5355  0.2524 -0.8876
27318SOL    HW285743  10.215   9.024   6.795  0.0994 -0.8721  1.9897
27319SOL     OW85744   4.055   5.313   0.692 -0.3056  0.1952  0.3431
27319SOL    HW185745   4.003   5.361   0.627 -2.0327  0.4921  1.8489
27319SOL    HW285746   4.120   5.376   0.722  2.0293 -0.5990 -2.5795
27320SOL     OW85747   9.170   5.403   4.769  0.0822  0.2341  0.3555
27320SOL    HW185748   9.247   5.399   4.712  0.9671 -1.6635  1.5866
27320SOL    HW285749   9.122   5.322   4.751 -0.2504  0.1750  1.4091
27321SOL     OW85750   6.440   2.997   3.653  0.1254  0.0724  0.0937
27321SOL    HW185751   6.350   3.005   3.684  0.3490  3.0756  0.2958
27321SOL    HW285752   6.434   3.005   3.558  0.2179  1.0680  0.1649
27322SOL     OW85753   9.253   5.599  10.051 -0.0084  0.1235 -0.3598
27322SOL    HW185754   9.198   5.521  10.046 -0.1274  0.0351  1.5207
27322SOL    HW285755   9.196   5.671  10.025 -0.6201 -0.1250  0.2821
27323SOL     OW85756   6.538   4.970   9.255  0.1618  0.6305 -0.7711
27323SOL    HW185757   6.579   4.910   9.318 -0.4089 -0.1549 -1.1351
27323SOL    HW285758   6.580   5.054   9.272  0.9466  0.1408 -0.2216
27324SOL     OW85759   2.170  10.274   6.913  0.4384 -0.3770  0.2799
27324SOL    HW185760   2.250  10.242   6.956  0.8271 -0.0532 -0.1829
27324SOL    HW285761   2.139  10.344   6.970 -0.4705 -1.5983  1.3486
27325SOL     OW85762   4.471   9.715   2.321  0.9982 -0.2593 -0.2372
27325SOL    HW185763   4.405   9.666   2.272  0.5974 -0.0839  0.1274
27325SOL    HW285764   4.554   9.685   2.284  0.7469 -1.0031 -0.2114
27326SOL     OW85765   8.047   6.998   3.780 -0.5841  1.0335 -0.1264
27326SOL    HW185766   7.993   6.967   3.707  0.3170 -1.2469  0.0870
27326SOL    HW285767   8.076   7.086   3.753 -1.7436  0.9729 -1.6711
27327SOL     OW85768   7.570   3.250  10.178 -0.2406 -0.0086  0.7334
27327SOL    HW185769   7.601   3.320  10.120 -1.7225  0.6732  0.7251
27327SOL    HW285770   7.593   3.280  10.266  4.0116 -2.0219  0.5906
27328SOL     OW85771   9.733   1.460   6.138  0.2364  0.0746  0.0708
27328SOL    HW185772   9.667   1.498   6.196 -0.4041 -0.0754 -0.5553
27328SOL    HW285773   9.705   1.369   6.126  1.4840 -0.4849  1.1481
27329SOL     OW85774   4.977   4.984   4.848  0.1078 -0.5695  0.0707
27329SOL    HW185775   4.939   4.922   4.910 -1.6760  0.6206  0.2646
27329SOL    HW285776   4.952   4.950   4.762  0.6533 -1.0454  0.1005
27330SOL     OW85777   8.998   6.971   7.116 -0.4679 -0.2821  0.3752
27330SOL    HW185778   9.080   7.013   7.143 -1.1631  0.9279  0.7073
27330SOL    HW285779   8.970   6.922   7.193 -1.1492  1.0961  1.0439
27331SOL     OW85780   3.849   6.905   1.462 -0.2444 -0.2898 -0.3831
27331SOL    HW185781   3.825   6.862   1.380  0.4421  0.7795 -1.1873
27331SOL    HW285782   3.893   6.986   1.434  1.0464 -0.4614  1.0277
27332SOL     OW85783   0.535   9.210   6.795 -0.1562  0.0003  0.0813
27332SOL    HW185784   0.482   9.131   6.785  1.7830 -1.2865 -0.5188
27332SOL    HW285785   0.624   9.178   6.808  0.6068  2.0898  0.3689
27333SOL     OW85786   2.798   3.346   1.452 -0.1688 -0.4955  0.0737
27333SOL    HW185787   2.745   3.421   1.479  2.3982  1.1098  1.0856
27333SOL    HW285788   2.778   3.279   1.518 -0.2284  0.4221  1.0297
27334SOL     OW85789   9.884   2.274   0.704 -0.1464  0.2514 -0.1237
27334SOL    HW185790   9.832   2.353   0.688  1.5414  1.5053  0.3275
27334SOL    HW285791   9.922   2.252   0.619  1.8966  1.8261  0.3206
27335SOL     OW85792   6.408   8.727   0.672 -0.1248  0.5778  0.1781
27335SOL    HW185793   6.374   8.639   0.657  0.0801  0.0926  2.2290
27335SOL    HW285794   6.406   8.769   0.586  0.7559 -1.7579 -1.0705
27336SOL     OW85795   8.947   1.842   5.603  0.1772  0.6577 -0.0119
27336SOL    HW185796   8.907   1.865   5.520 -1.9777 -3.4412 -0.3965
27336SOL    HW285797   8.986   1.756   5.587 -1.0288 -0.6649  3.2955
27337SOL     OW85798   5.738   1.631   7.532 -0.0148 -0.2009  0.3894
27337SOL    HW185799   5.787   1.643   7.613 -0.2503  0.8237  0.3954
27337SOL    HW285800   5.760   1.542   7.504  2.8967  0.5976 -0.2848
27338SOL     OW85801   5.023   0.520   4.159 -0.1073 -0.2113 -0.2703
27338SOL    HW185802   5.016   0.591   4.222 -0.1866 -1.1745  0.8515
27338SOL    HW285803   5.022   0.563   4.073  0.0376  1.1338  0.3763
27339SOL     OW85804   9.587   3.797   9.403 -0.0548 -0.5618 -0.3947
27339SOL    HW185805   9.637   3.853   9.343 -0.2462 -0.1759 -0.1987
27339SOL    HW285806   9.536   3.740   9.346 -0.9071  0.3997 -0.6190
27340SOL     OW85807   2.312   1.324   5.131  0.2364 -0.2414  0.0471
27340SOL    HW185808   2.232   1.377   5.137  0.8728  0.5896  1.9782
27340SOL    HW285809   2.340   1.313   5.222  2.2469 -0.6317 -0.5698
27341SOL     OW85810   0.913   9.107   0.853  0.2892  0.0133  0.6416
27341SOL    HW185811   0.832   9.093   0.804  0.1557 -0.3086  0.9418
27341SOL    HW285812   0.890   9.173   0.919  0.5646  0.7075  0.0530
27342SOL     OW85813   1.194   1.062   6.380  0.1065  1.1955 -0.4429
27342SOL    HW185814   1.187   0.983   6.326 -1.1906  0.5685  0.5965
27342SOL    HW285815   1.283   1.058   6.415  0.4983  0.8926 -1.4328
27343SOL     OW85816   1.000   5.836   3.079  0.0902 -0.6736 -0.6417
27343SOL    HW185817   1.058   5.868   3.010 -0.0997 -1.2940 -1.0944
27343SOL    HW285818   1.045   5.860   3.161  1.1685 -1.4654 -0.9816
27344SOL     OW85819   5.153   3.595   7.609 -0.7560  0.7014 -0.0158
27344SOL    HW185820   5.117   3.622   7.693  1.8320  2.5259  0.6348
27344SOL    HW285821   5.137   3.501   7.605 -1.1329  0.5967  2.4127
27345SOL     OW85822   4.924   8.482   2.051 -0.2549 -0.3230 -0.0798
27345SOL    HW185823   4.939   8.577   2.043 -0.8830 -0.2511 -0.4937
27345SOL    HW285824   4.839   8.475   2.094  1.2793 -0.7156  3.2059
27346SOL     OW85825   1.390   8.557   4.977 -0.0158 -0.1169  0.0974
27346SOL    HW185826   1.354   8.640   5.005  0.0602  0.0703 -0.3427
27346SOL    HW285827   1.344   8.538   4.894  1.0232  0.2260 -0.5743
27347SOL     OW85828   6.106   1.158   9.452 -0.1428  0.0981 -0.6395
27347SOL    HW185829   6.044   1.089   9.475  0.1561 -0.7673 -2.2631
27347SOL    HW285830   6.149   1.181   9.534  0.2055 -2.1276 -0.1421
27348SOL     OW85831   1.554   6.494   2.654  0.0224  0.1266 -0.2192
27348SOL    HW185832   1.582   6.579   2.689 -0.7949  0.4352 -0.3044
27348SOL    HW285833   1.458   6.499   2.651  0.0083 -0.4715 -1.0639
27349SOL     OW85834   6.448   1.622   2.653 -0.1681  0.2905  0.2221
27349SOL    HW185835   6.511   1.681   2.612 -0.3895 -0.2569 -0.9227
27349SOL    HW285836   6.365   1.639   2.608 -0.7270  0.5706  1.2998
27350SOL     OW85837   7.561   5.968   1.557  0.4369 -0.3422  0.0548
27350SOL    HW185838   7.569   6.061   1.540  0.1229 -0.4921 -0.9990
27350SOL    HW285839   7.569   5.959   1.652 -2.1572  1.0585  0.5067
27351SOL     OW85840   7.167   5.093   5.017 -0.4895 -0.1260 -0.5339
27351SOL    HW185841   7.073   5.110   5.021 -0.6161 -0.6541 -1.2228
27351SOL    HW285842   7.199   5.116   5.105 -1.1092  0.9023 -0.5642
27352SOL     OW85843   2.857   2.466   5.755  0.0691 -0.8720 -0.3476
27352SOL    HW185844   2.797   2.539   5.742 -0.5467 -1.3396 -0.1959
27352SOL    HW285845   2.943   2.501   5.733 -0.0540  0.2215  0.8085
27353SOL     OW85846   0.686   7.966   8.557  0.1048  0.9604  0.1891
27353SOL    HW185847   0.692   8.053   8.595 -2.1476  0.9474  0.7534
27353SOL    HW285848   0.597   7.937   8.578  0.8010 -1.5074  0.0905
27354SOL     OW85849   1.961   6.256   8.336  0.1485  0.1442  0.1108
27354SOL    HW185850   1.887   6.279   8.280 -0.9123  0.1361  1.4479
27354SOL    HW285851   1.957   6.161   8.343  0.8133  0.0634 -0.4858
27355SOL     OW85852   5.836   0.885   0.062 -0.2704  0.1172 -0.1466
27355SOL    HW185853   5.921   0.892   0.019  0.2673 -0.5716  0.7501
27355SOL    HW285854   5.800   0.973   0.059  1.0315  0.7006  0.5419
27356SOL     OW85855   0.403   3.443   0.735  0.3827  0.6063  0.0432
27356SOL    HW185856   0.482   3.495   0.751  0.2003  0.3812  1.8933
27356SOL    HW285857   0.396   3.438   0.640  2.1033  1.3763 -0.1526
27357SOL     OW85858   8.099   0.882   2.372 -0.0704 -0.4984  0.1147
27357SOL    HW185859   8.007   0.891   2.396 -0.0667  3.3640 -0.7649
27357SOL    HW285860   8.097   0.866   2.278  0.2171 -3.3507  0.4980
27358SOL     OW85861   9.805   9.513   0.701  0.1170 -0.0586 -0.2855
27358SOL    HW185862   9.898   9.505   0.721  0.2168 -1.4871 -1.1504
27358SOL    HW285863   9.760   9.504   0.785  0.7681  1.2758  0.2243
27359SOL     OW85864   3.697   5.018   5.153 -0.3454  0.2981 -0.2995
27359SOL    HW185865   3.635   4.953   5.188 -1.0506  0.7799 -0.6294
27359SOL    HW285866   3.687   5.011   5.058  0.5918 -0.0752 -0.3775
27360SOL     OW85867   6.576   2.565   1.739  0.4127 -0.2096  0.2204
27360SOL    HW185868   6.583   2.638   1.801  1.3838  0.1101 -0.2448
27360SOL    HW285869   6.662   2.561   1.697  0.5727 -1.9974  0.6437
27361SOL     OW85870   7.648   0.710   7.318  0.1021  0.4898  0.1359
27361SOL    HW185871   7.626   0.663   7.398  0.8005 -0.7022 -0.3354
27361SOL    HW285872   7.727   0.666   7.285 -1.4432 -0.6244 -2.4367
27362SOL     OW85873   1.436   3.791   6.021 -0.1720 -0.2442 -0.0558
27362SOL    HW185874   1.523   3.757   6.042 -0.5355 -1.3347 -0.2610
27362SOL    HW285875   1.448   3.886   6.015  1.4659 -0.5031 -2.1459
27363SOL     OW85876   5.945   0.433   7.996 -0.1050 -0.1734 -0.8199
27363SOL    HW185877   6.014   0.476   7.946  0.6016  0.0315  0.2883
27363SOL    HW285878   5.973   0.442   8.088 -1.5648 -0.1702 -0.3581
27364SOL     OW85879   0.704   0.883   3.409 -0.1133  0.0173 -0.0840
27364SOL    HW185880   0.628   0.868   3.467 -0.4008 -1.1232 -0.7215
27364SOL    HW285881   0.778   0.848   3.458 -0.5712 -2.3322 -0.9531
27365SOL     OW85882   2.678   7.456   1.151  0.3491 -0.3145 -0.2864
27365SOL    HW185883   2.609   7.519   1.175  1.0539 -0.2347  1.7857
27365SOL    HW285884   2.634   7.371   1.151  0.2578 -0.3148  1.4302
27366SOL     OW85885   1.468   6.661   5.924  0.4610 -0.4400 -0.1335
27366SOL    HW185886   1.468   6.756   5.930  0.0475 -0.2761 -2.1917
27366SOL    HW285887   1.558   6.638   5.901  0.2407 -0.4114 -1.0640
27367SOL     OW85888  10.079   5.214   5.020  0.2061  0.3229 -0.0784
27367SOL    HW185889  10.141   5.232   5.092 -0.6397 -0.3769  0.8529
27367SOL    HW285890  10.094   5.122   4.998 -0.0720  0.3255 -0.2751
27368SOL     OW85891   0.078   3.509   4.534  0.4733 -0.4537  0.4124
27368SOL    HW185892   0.087   3.582   4.595 -0.8656  0.4652 -0.4566
27368SOL    HW285893   0.144   3.526   4.467  1.2903 -0.9566  1.0584
27369SOL     OW85894   9.566   7.037   1.264  0.0547  0.3417 -0.6899
27369SOL    HW185895   9.519   7.081   1.336 -0.8821  0.6839 -1.4783
27369SOL    HW285896   9.577   7.106   1.198 -0.3193 -0.2902 -1.4269
27370SOL     OW85897   0.055   9.798   2.072 -0.5633 -0.5028 -0.4566
27370SOL    HW185898   0.097   9.713   2.065  0.3956 -0.2035  1.2297
27370SOL    HW285899   0.125   9.861   2.059 -0.7901  0.0138  0.7011
27371SOL     OW85900   7.986   1.147   4.869 -0.0724 -0.1136 -0.6857
27371SOL    HW185901   8.049   1.193   4.813  1.1521 -1.0709 -0.1346
27371SOL    HW285902   8.035   1.129   4.950 -1.0489 -0.9043 -0.2607
27372SOL     OW85903   0.498  10.230   6.101 -0.4187 -0.4672  0.5043
27372SOL    HW185904   0.502  10.142   6.138 -0.1354 -0.4242  0.5833
27372SOL    HW285905   0.426  10.227   6.039  0.2714 -1.0698 -0.2986
27373SOL     OW85906   5.205   5.838   0.253  0.0061 -0.3217  0.6404
27373SOL    HW185907   5.250   5.840   0.337  0.3334 -0.9432  0.4850
27373SOL    HW285908   5.266   5.795   0.194 -0.6520 -0.8536  0.3381
27374SOL     OW85909   8.341   5.213   3.674 -0.4479  0.1169 -0.2226
27374SOL    HW185910   8.291   5.205   3.755  1.1425  2.0955  1.0371
27374SOL    HW285911   8.342   5.307   3.655  2.6080  0.1867 -0.2358
27375SOL     OW85912   3.445   3.120   7.513  0.4873 -0.1969  0.0640
27375SOL    HW185913   3.498   3.198   7.531 -0.0776  0.1060  0.4489
27375SOL    HW285914   3.497   3.070   7.450  0.9868  0.3517  0.0275
27376SOL     OW85915   3.121   6.293   1.067 -0.2140 -0.0683  0.2086
27376SOL    HW185916   3.067   6.371   1.048  1.3717  1.1254  0.4106
27376SOL    HW285917   3.141   6.257   0.980  1.3339  1.4113 -0.1207
27377SOL     OW85918   0.971   1.855   0.876 -0.0731  0.1848  0.5640
27377SOL    HW185919   0.925   1.772   0.882  0.4727 -0.4081 -2.0467
27377SOL    HW285920   0.969   1.891   0.965 -5.6645  0.2914  0.7855
27378SOL     OW85921   7.756   5.536   7.129 -0.3814 -0.2317 -0.2331
27378SOL    HW185922   7.745   5.595   7.204  1.0742 -2.1120  1.5917
27378SOL    HW285923   7.667   5.512   7.105 -0.9891  2.1767 -0.6678
27379SOL     OW85924   5.662   4.407   3.325 -0.2765  0.2029  0.4642
27379SOL    HW185925   5.624   4.467   3.260 -1.5431  0.5975  1.5273
27379SOL    HW285926   5.628   4.321   3.299  3.0013 -0.4958 -2.1716
27380SOL     OW85927   6.886   5.942   1.840  0.3424 -0.1148 -0.5356
27380SOL    HW185928   6.964   5.988   1.808 -0.1315 -0.1367 -1.7645
27380SOL    HW285929   6.861   5.990   1.919  1.4934  0.0014 -0.2254
27381SOL     OW85930   9.193   4.761   9.082  0.1312  0.5303  0.2557
27381SOL    HW185931   9.241   4.765   9.000  0.6772  1.1320  0.5879
27381SOL    HW285932   9.109   4.722   9.060  1.3872 -2.1918 -0.0355
27382SOL     OW85933   8.041   1.126   6.273  0.2838 -0.0272 -0.0077
27382SOL    HW185934   8.075   1.077   6.198  0.2809  0.0151 -0.0367
27382SOL    HW285935   8.102   1.199   6.282 -1.7038  2.0636 -2.2405
27383SOL     OW85936   7.128   4.456   9.280 -0.0190  0.2514 -0.6769
27383SOL    HW185937   7.058   4.402   9.315  0.7769  0.0861  0.7163
27383SOL    HW285938   7.209   4.412   9.307  0.6873  2.6012  1.4560
27384SOL     OW85939  10.202   2.208   8.284 -0.2506  0.3569 -0.1394
27384SOL    HW185940  10.123   2.155   8.271 -0.2718  0.3024  0.1944
27384SOL    HW285941  10.236   2.223   8.196 -0.7495  0.5554 -0.3051
27385SOL     OW85942   6.968   8.008   0.074  0.0208  0.1520 -0.1358
27385SOL    HW185943   6.873   8.018   0.066 -0.2982 -1.7700  0.6776
27385SOL    HW285944   6.979   7.948   0.147  1.8223 -0.5865 -0.9749
27386SOL     OW85945   8.181   2.629   4.369  0.5107  0.4683 -0.0310
27386SOL    HW185946   8.230   2.709   4.389 -0.1489  0.3044  2.4870
27386SOL    HW285947   8.197   2.615   4.275  1.3132  3.0679 -0.3729
27387SOL     OW85948   5.607   0.746   1.751 -0.0463 -0.0841  0.2255
27387SOL    HW185949   5.596   0.823   1.807 -1.5561  0.7448 -1.1304
27387SOL    HW285950   5.702   0.739   1.738  0.0995  1.9569 -0.1368
27388SOL     OW85951   1.921   4.902   7.767  0.5194  0.0789 -0.4468
27388SOL    HW185952   2.015   4.901   7.785  0.4297 -0.7334  0.0189
27388SOL    HW285953   1.889   4.820   7.803 -0.1938 -0.1791 -1.6141
27389SOL     OW85954   3.233   7.390   8.434  0.0104  0.0561  0.1431
27389SOL    HW185955   3.209   7.427   8.519  0.1196  0.3416  0.0507
27389SOL    HW285956   3.297   7.452   8.398 -1.7684  1.2141 -1.1986
27390SOL     OW85957   3.444   8.853   9.522  0.1338  0.4041  0.1263
27390SOL    HW185958   3.391   8.813   9.590  0.6278 -1.1439 -0.3375
27390SOL    HW285959   3.406   8.821   9.440 -1.1416  3.1205 -0.4213
27391SOL     OW85960   3.937   6.553   3.962  0.5724  0.3866 -0.3022
27391SOL    HW185961   3.992   6.481   3.992 -0.9845 -0.4731  0.6125
27391SOL    HW285962   3.905   6.525   3.877 -0.8883 -0.5464  0.5110
27392SOL     OW85963   7.966   1.707   9.082 -0.3207 -0.2664 -0.1489
27392SOL    HW185964   7.956   1.635   9.143 -0.9200 -0.8384 -0.9093
27392SOL    HW285965   8.008   1.668   9.005 -1.1141  0.0712 -0.7682
27393SOL     OW85966   8.668   9.998   8.962  0.2433  0.2669 -0.1301
27393SOL    HW185967   8.620   9.980   8.881 -0.8040  3.1866 -0.2759
27393SOL    HW285968   8.701   9.912   8.989  1.1504 -0.8155 -3.9221
27394SOL     OW85969   2.049   5.316   1.262  0.3418 -0.0470 -0.2636
27394SOL    HW185970   2.138   5.281   1.268  0.0610 -1.5553 -2.9945
27394SOL    HW285971   2.054   5.382   1.192 -0.7807 -0.6839 -0.9802
27395SOL     OW85972   4.618   8.834   1.002 -0.2660  0.1379  1.0062
27395SOL    HW185973   4.542   8.860   1.054 -2.0788 -3.3684  0.4692
27395SOL    HW285974   4.585   8.762   0.948  2.8983  0.0593 -1.0532
27396SOL     OW85975   3.349   6.110   5.978 -0.0107 -0.0064 -0.4814
27396SOL    HW185976   3.364   6.134   5.886  2.2837  0.7468  0.0360
27396SOL    HW285977   3.323   6.018   5.974  0.2186 -0.0404 -1.8880
27397SOL     OW85978   6.852   4.177   0.337  0.6762  0.2596  0.5805
27397SOL    HW185979   6.923   4.124   0.301  0.6062  0.1895  0.5451
27397SOL    HW285980   6.872   4.266   0.307 -0.7811 -0.1471 -1.9198
27398SOL     OW85981   7.362   8.630   4.250 -0.0519 -0.2362 -0.4740
27398SOL    HW185982   7.413   8.705   4.222 -1.6953  0.7424 -0.9662
27398SOL    HW285983   7.356   8.574   4.173 -0.7938  0.2752 -0.7923
27399SOL     OW85984   5.443   1.902   5.958  0.3723 -0.2749 -0.1276
27399SOL    HW185985   5.411   1.856   6.036  0.7417  2.9880  2.1990
27399SOL    HW285986   5.364   1.921   5.907  0.0412 -1.8889 -0.2735
27400SOL     OW85987   7.809   1.001   4.315 -0.1372  0.0924  0.0326
27400SOL    HW185988   7.805   1.042   4.229  0.6370 -1.0245 -0.5678
27400SOL    HW285989   7.900   1.011   4.342  0.2374 -1.6878 -0.4083
27401SOL     OW85990   6.680   6.282   1.636  0.1220  0.4384  0.0893
27401SOL    HW185991   6.729   6.282   1.554  1.0942 -0.8832  0.6308
27401SOL    HW285992   6.589   6.270   1.609  0.1616  1.9769 -0.8791
27402SOL     OW85993   0.133   4.380   4.046 -0.4892  0.1503 -0.0339
27402SOL    HW185994   0.099   4.397   3.958 -1.0524 -0.5034  0.0413
27402SOL    HW285995   0.188   4.302   4.036 -1.4068 -0.5823  0.3545
27403SOL     OW85996   8.574   3.470   6.153 -0.0159 -0.2748 -0.5937
27403SOL    HW185997   8.637   3.421   6.101  0.5382 -1.2920  0.9562
27403SOL    HW285998   8.534   3.404   6.210  0.4505  0.9861  1.2592
27404SOL     OW85999  10.083   0.984   0.893  0.8037  0.4155  0.6541
27404SOL    HW186000   9.996   1.020   0.913  0.1236  0.1448 -1.5644
27404SOL    HW286001  10.113   0.949   0.976 -0.9870  0.9866  1.6088
27405SOL     OW86002   0.467   5.500   7.983  0.3553 -0.8660  0.1020
27405SOL    HW186003   0.382   5.456   7.981 -0.5194  0.7776 -1.0351
27405SOL    HW286004   0.475   5.531   8.073 -1.8588  1.8181 -0.4881
27406SOL     OW86005   7.216   1.371   9.223 -0.3360 -0.2476 -0.9089
27406SOL    HW186006   7.241   1.310   9.293 -1.1243  0.0866 -0.3316
27406SOL    HW286007   7.122   1.385   9.235  0.1764  2.8684  0.4167
27407SOL     OW86008   9.225   8.098  10.353 -0.3758  0.3022  0.3490
27407SOL    HW186009   9.159   8.082  10.286 -0.3896  0.4164  0.3353
27407SOL    HW286010   9.266   8.180  10.327  0.7210 -0.4568 -0.4080
27408SOL     OW86011   0.167   7.445   2.622 -0.2678 -0.1190  0.0614
27408SOL    HW186012   0.220   7.514   2.582 -2.7405  1.4019 -0.7946
27408SOL    HW286013   0.199   7.365   2.581  0.8896  0.8046 -0.9422
27409SOL     OW86014   7.625   6.825   2.392 -0.0087  0.0740 -0.2368
27409SOL    HW186015   7.548   6.838   2.336 -0.4334 -0.7116  0.1514
27409SOL    HW286016   7.698   6.819   2.331 -0.3186  0.3257 -0.6415
27410SOL     OW86017   7.159   2.788   8.690  0.3834 -0.1386 -0.1489
27410SOL    HW186018   7.197   2.858   8.637  0.9383 -0.0447  0.3618
27410SOL    HW286019   7.091   2.749   8.634 -0.2507  1.1058 -0.2611
27411SOL     OW86020   2.391   8.966   7.091 -0.1993  0.3566  0.2063
27411SOL    HW186021   2.364   8.916   7.168  1.0363 -0.0741  0.3825
27411SOL    HW286022   2.428   9.047   7.125 -0.4530  0.5535  0.0176
27412SOL     OW86023   9.425   3.492   9.122 -0.6039  0.1274  0.0686
27412SOL    HW186024   9.460   3.410   9.156 -1.2805 -0.8294 -1.4251
27412SOL    HW286025   9.338   3.470   9.090  0.6312  0.3363 -4.0845
27413SOL     OW86026   4.012   2.659   4.342 -0.1047  0.4056 -0.1019
27413SOL    HW186027   3.963   2.624   4.267  1.8570 -0.9581 -0.8295
27413SOL    HW286028   4.087   2.703   4.303  0.8085 -0.0991  1.0305
27414SOL     OW86029   4.464   4.619   0.269  0.6858  0.0105  0.3681
27414SOL    HW186030   4.495   4.613   0.178  0.5174 -1.9422  0.3943
27414SOL    HW286031   4.536   4.583   0.321  0.2023 -0.2582  0.8642
27415SOL     OW86032   8.319   1.474   4.717  0.1596 -0.6383 -0.0017
27415SOL    HW186033   8.333   1.539   4.647 -1.4655  1.0976  1.1708
27415SOL    HW286034   8.373   1.506   4.789 -0.7270 -0.5037  0.6168
27416SOL     OW86035   9.939   6.899   9.263  0.0590  0.2214 -0.0988
27416SOL    HW186036   9.857   6.858   9.234  0.7183 -1.3645  0.1568
27416SOL    HW286037   9.912   6.984   9.297 -1.5554 -0.4499  0.4259
27417SOL     OW86038   9.147   5.439   0.201  0.1134  0.2258 -0.3948
27417SOL    HW186039   9.168   5.497   0.274  2.1363 -0.0580 -0.6761
27417SOL    HW286040   9.062   5.401   0.224  0.6820  0.1323  1.8365
27418SOL     OW86041   7.707  10.282   2.549 -0.1839 -0.0857  0.2938
27418SOL    HW186042   7.745  10.253   2.632  1.2636 -0.1839 -0.3810
27418SOL    HW286043   7.613  10.271   2.561 -0.1141  1.1829  2.4033
27419SOL     OW86044  10.324   7.967   0.550 -0.4727  0.5588 -0.4211
27419SOL    HW186045  10.312   7.982   0.457  2.8501 -0.6018 -1.1595
27419SOL    HW286046  10.308   7.874   0.562 -1.0769  0.7363  0.2351
27420SOL     OW86047   0.449   0.131  10.336  0.0653  0.5545 -0.2679
27420SOL    HW186048   0.460   0.132  10.241 -1.3492 -2.8840 -0.6460
27420SOL    HW286049   0.356   0.110  10.349 -0.0436  2.0494  1.9301
27421SOL     OW86050   4.872   8.985   3.076  0.1735  0.3005  0.0350
27421SOL    HW186051   4.910   8.986   3.164  1.3985  0.4898 -0.4775
27421SOL    HW286052   4.778   8.999   3.090  0.1603 -0.9576  1.3979
27422SOL     OW86053   0.153   6.683   5.950  0.3018 -0.2847  0.7162
27422SOL    HW186054   0.195   6.631   5.882 -0.0057 -0.2565  0.5045
27422SOL    HW286055   0.157   6.628   6.029 -1.5238 -1.3682  0.1195
27423SOL     OW86056   8.800   5.034   5.651 -0.7402  0.0108 -0.2876
27423SOL    HW186057   8.853   4.976   5.597  1.8954  0.7217  1.3770
27423SOL    HW286058   8.746   4.975   5.703  0.2706 -0.8793 -0.2093
27424SOL     OW86059   7.567   3.691   7.033  0.4697 -0.1316 -0.4137
27424SOL    HW186060   7.552   3.782   7.058  1.3008  0.0198 -0.4349
27424SOL    HW286061   7.501   3.673   6.966  1.4062  1.0100 -1.6898
27425SOL     OW86062  10.266   9.523  10.299 -0.1374 -0.2047 -0.8597
27425SOL    HW186063  10.257   9.554  10.209  1.7304  1.9195 -0.4175
27425SOL    HW286064  10.189   9.560  10.344  1.4859  3.2808 -0.5868
27426SOL     OW86065   3.857   3.820   5.761 -0.2107  0.4072  0.0982
27426SOL    HW186066   3.841   3.725   5.754 -0.7505  0.3713  1.4468
27426SOL    HW286067   3.772   3.856   5.788  0.4142  1.0357  1.3053
27427SOL     OW86068   0.275   9.508   3.737  0.0500 -0.3326 -0.2361
27427SOL    HW186069   0.239   9.425   3.706  0.8665 -1.5585  1.9215
27427SOL    HW286070   0.200   9.568   3.740 -1.3694 -2.0823  1.7426
27428SOL     OW86071   7.902   6.684   4.086  0.3440  0.0610 -0.0176
27428SOL    HW186072   7.848   6.742   4.140 -0.1698  0.2974 -0.7779
27428SOL    HW286073   7.955   6.635   4.150 -0.5323  0.0546  0.7297
27429SOL     OW86074   7.609   0.143   8.075  0.4364 -0.2905 -0.2076
27429SOL    HW186075   7.530   0.096   8.099  0.0483 -0.6781 -2.0502
27429SOL    HW286076   7.649   0.169   8.158 -1.0455 -1.0332  0.7682
27430SOL     OW86077   4.160   6.876  10.181 -0.4039 -0.2050  0.0588
27430SOL    HW186078   4.173   6.945  10.246  0.0011 -0.0515 -0.1816
27430SOL    HW286079   4.136   6.799  10.232 -2.9093  0.5936  0.2268
27431SOL     OW86080   6.327   5.129   2.246 -0.1660  0.2821  0.0414
27431SOL    HW186081   6.409   5.080   2.237  0.2055  0.5279  1.6780
27431SOL    HW286082   6.273   5.099   2.173  1.7289  0.8718 -1.6774
27432SOL     OW86083   3.219   3.355   0.674 -0.0988 -0.3929 -0.1117
27432SOL    HW186084   3.269   3.284   0.634 -0.7992 -1.2343  0.4853
27432SOL    HW286085   3.274   3.433   0.661  0.8933 -1.1143 -0.3511
27433SOL     OW86086   5.528   6.983  10.050  0.1000 -0.0975 -0.4709
27433SOL    HW186087   5.493   6.978  10.140  1.9610  1.6171  0.4395
27433SOL    HW286088   5.588   6.908  10.043 -0.3287 -0.4473 -0.4189
27434SOL     OW86089   6.122   3.331   0.593  0.4872 -0.5942 -0.1617
27434SOL    HW186090   6.125   3.421   0.562  0.9002 -0.9936 -1.3174
27434SOL    HW286091   6.028   3.312   0.603  0.3631 -0.3585 -0.8666
27435SOL     OW86092  10.209   0.070   5.327 -0.0430  0.1911  0.0055
27435SOL    HW186093  10.231  -0.022   5.335  0.4163  0.2610 -0.4054
27435SOL    HW286094  10.116   0.071   5.304  0.3442 -0.2475 -1.7502
27436SOL     OW86095   3.554   7.053   0.002 -0.6027 -0.2300 -0.1380
27436SOL    HW186096   3.575   7.143  -0.023  1.7551 -0.7342 -0.2157
27436SOL    HW286097   3.533   7.010  -0.081 -4.0988  0.6824  0.1017
27437SOL     OW86098   2.951   6.607   5.800  0.5658  0.1417 -0.5442
27437SOL    HW186099   2.897   6.563   5.734  1.9219  0.3125 -1.8283
27437SOL    HW286100   3.022   6.646   5.750  0.9810  1.3396  0.9030
27438SOL     OW86101   6.635   9.148   2.219 -0.0809  0.0016 -0.2161
27438SOL    HW186102   6.681   9.094   2.284  0.6727  0.1559 -0.6074
27438SOL    HW286103   6.705   9.183   2.163 -0.6677  0.3739 -0.7304
27439SOL     OW86104   4.714   5.931   1.734 -0.1939 -0.7027  0.1263
27439SOL    HW186105   4.632   5.980   1.732  0.0681 -0.2842 -1.6200
27439SOL    HW286106   4.686   5.840   1.746 -0.8280 -0.4514  0.6679
27440SOL     OW86107   2.770   8.863   2.685  0.1814 -0.4350 -0.0638
27440SOL    HW186108   2.756   8.826   2.597 -1.5578  0.3866 -0.1827
27440SOL    HW286109   2.854   8.908   2.678  0.5338 -1.1820 -1.0159
27441SOL     OW86110   5.247   9.263   4.474 -0.3733 -0.3808  0.5202
27441SOL    HW186111   5.261   9.181   4.521  2.1171 -0.2114  0.1774
27441SOL    HW286112   5.205   9.321   4.537  2.0547 -0.4557  2.3280
27442SOL     OW86113   3.178   8.890   9.159  0.4630  0.2997  0.2056
27442SOL    HW186114   3.122   8.964   9.182  0.2383  0.4700 -0.8503
27442SOL    HW286115   3.252   8.930   9.112  0.2427 -0.1618 -0.5377
27443SOL     OW86116   0.676   4.178   6.658  0.4235 -0.1432  0.0538
27443SOL    HW186117   0.720   4.154   6.576  0.5123  0.2599 -0.0190
27443SOL    HW286118   0.737   4.149   6.726  0.1563 -0.8680 -0.0045
27444SOL     OW86119   8.560   1.258   4.835  0.0328  0.1679 -0.2895
27444SOL    HW186120   8.551   1.351   4.814  0.5224  0.3429  0.2500
27444SOL    HW286121   8.547   1.213   4.751 -0.3225  0.7140 -0.5311
27445SOL     OW86122   7.253   1.396   7.546  0.0037 -0.3347  0.4303
27445SOL    HW186123   7.216   1.308   7.537 -1.3173  0.2097  0.2475
27445SOL    HW286124   7.250   1.433   7.458 -0.7268  0.3623  0.7314
27446SOL     OW86125   7.039   4.813   0.537  0.0328 -0.4075 -0.3267
27446SOL    HW186126   7.128   4.779   0.533  0.7538  1.4450 -2.1370
27446SOL    HW286127   6.994   4.772   0.464  0.0098  0.1743 -0.6456
27447SOL     OW86128   1.508   6.863   5.090  0.3031  0.5031 -0.6211
27447SOL    HW186129   1.557   6.856   5.172  0.6416 -1.6381 -0.9538
27447SOL    HW286130   1.462   6.780   5.082 -0.3592  0.9788 -2.2294
27448SOL     OW86131   7.267   2.114   0.560 -0.5868 -0.5535  0.1818
27448SOL    HW186132   7.182   2.158   0.558 -1.0211 -1.3349 -2.1620
27448SOL    HW286133   7.263   2.058   0.638 -2.0730 -0.3076  0.3145
27449SOL     OW86134   5.765   9.091   9.674  0.1016  0.4321 -0.2843
27449SOL    HW186135   5.844   9.134   9.640 -1.2695  2.9924 -0.4612
27449SOL    HW286136   5.788   8.998   9.677  3.7795  1.2140  1.4425
27450SOL     OW86137   2.821   1.692   0.577  0.5972  0.4733  1.2479
27450SOL    HW186138   2.799   1.605   0.612 -0.4480  0.2696  0.1225
27450SOL    HW286139   2.737   1.736   0.568  0.8929  0.7221 -0.4852
27451SOL     OW86140   4.684   5.802  10.278 -0.0014  0.3480 -0.3981
27451SOL    HW186141   4.765   5.845  10.306 -0.8502  0.3547  2.3588
27451SOL    HW286142   4.713   5.719  10.240  1.3229  0.7583 -0.3596
27452SOL     OW86143   8.218   0.126   6.875  0.4992 -0.3943  0.2005
27452SOL    HW186144   8.269   0.162   6.802 -0.4603 -1.1475 -0.8735
27452SOL    HW286145   8.208   0.200   6.935 -0.2646  0.7780 -1.3037
27453SOL     OW86146   1.183   4.801   9.251  0.0306 -0.0989  0.5222
27453SOL    HW186147   1.234   4.745   9.309  0.2746  0.0129  0.4180
27453SOL    HW286148   1.240   4.877   9.236 -0.3447  0.2305  0.7601
27454SOL     OW86149   1.846   8.899   4.775 -0.2194  0.0709 -0.1885
27454SOL    HW186150   1.845   8.809   4.742  0.2469 -0.3113  0.7937
27454SOL    HW286151   1.784   8.945   4.720  2.2409  0.0717 -3.2498
27455SOL     OW86152  10.354   7.484   0.935  0.2255 -0.1975  0.5251
27455SOL    HW186153  10.447   7.504   0.920  0.3396 -0.5308  0.7691
27455SOL    HW286154  10.342   7.495   1.030 -0.2293  0.8236  0.3624
27456SOL     OW86155   5.666   5.915   5.694 -0.1770 -0.1011 -0.1712
27456SOL    HW186156   5.755   5.882   5.704  0.2457  1.0043 -0.1324
27456SOL    HW286157   5.619   5.881   5.770  0.2043 -0.7115 -0.2067
27457SOL     OW86158   7.716   6.098   9.005  0.2413  0.0928  0.0786
27457SOL    HW186159   7.766   6.017   9.015 -0.5703 -0.3257  0.8126
27457SOL    HW286160   7.683   6.094   8.915  0.7399 -0.0650 -0.1059
27458SOL     OW86161   0.039   6.100   7.103  0.4050 -0.1071 -0.1008
27458SOL    HW186162  -0.007   6.174   7.063  0.8608 -0.2533 -0.9189
27458SOL    HW286163   0.083   6.058   7.030  0.5233 -0.9196  0.4338
27459SOL     OW86164   0.443   1.541   9.478 -0.0084  0.2233 -0.2043
27459SOL    HW186165   0.522   1.514   9.432  0.6102 -0.3568  1.1566
27459SOL    HW286166   0.455   1.635   9.492  0.8670 -0.0125  0.7490
27460SOL     OW86167   4.920   4.323   9.738 -0.1695 -0.4937 -0.3591
27460SOL    HW186168   4.831   4.290   9.752 -0.2218  0.5321  2.1469
27460SOL    HW286169   4.909   4.411   9.703 -0.1379 -0.2004  0.3748
27461SOL     OW86170   8.512   1.213   1.698 -0.2785  0.3794  0.3103
27461SOL    HW186171   8.559   1.152   1.755  0.7977  0.0198 -0.9009
27461SOL    HW286172   8.535   1.185   1.609 -1.1451  1.4981 -0.2992
27462SOL     OW86173   8.173   5.336   6.387 -0.6123 -0.0829  0.0263
27462SOL    HW186174   8.264   5.318   6.365 -0.3474 -1.0112  1.6835
27462SOL    HW286175   8.122   5.289   6.321  0.1246 -1.1064  0.1651
27463SOL     OW86176   7.996   2.609   8.411 -0.0951 -0.5522  0.2505
27463SOL    HW186177   7.903   2.628   8.419  0.0056 -0.5187  1.7794
27463SOL    HW286178   8.019   2.565   8.494  1.2858 -0.3529  0.0064
27464SOL     OW86179   7.151   4.780   9.999  0.2881 -0.1144 -0.2348
27464SOL    HW186180   7.202   4.709   9.960 -3.2279 -2.5576 -0.7836
27464SOL    HW286181   7.071   4.784   9.947 -0.9240  2.3431  1.5999
27465SOL     OW86182   5.626   2.388   0.393  0.1367  0.8350 -0.0782
27465SOL    HW186183   5.539   2.422   0.373 -1.6340 -2.1125  1.9192
27465SOL    HW286184   5.667   2.456   0.447 -0.3960  2.7034 -1.8739
27466SOL     OW86185   3.780   3.615   6.441 -0.2063 -0.3054  0.1967
27466SOL    HW186186   3.754   3.693   6.391 -0.5032  1.1260  2.4742
27466SOL    HW286187   3.875   3.617   6.442 -0.2074 -0.1564 -0.0137
27467SOL     OW86188   7.993   2.093   6.801  0.0008 -0.5084  0.3486
27467SOL    HW186189   7.929   2.037   6.845  0.8174 -1.0685  0.8525
27467SOL    HW286190   8.070   2.090   6.857  0.1877  0.8515  0.1982
27468SOL     OW86191   6.009   4.627   9.156 -0.4669 -0.3250 -0.5457
27468SOL    HW186192   6.032   4.551   9.102  1.0424 -1.2189  1.2170
27468SOL    HW286193   6.085   4.685   9.148 -1.1187  0.4717 -0.9822
27469SOL     OW86194   9.357   5.385   8.587  0.1705 -0.3115 -0.1241
27469SOL    HW186195   9.436   5.418   8.630  0.3828  0.5696 -1.1430
27469SOL    HW286196   9.291   5.452   8.603  0.0596 -0.3132 -0.5655
27470SOL     OW86197   0.144   0.441   1.367  0.4730 -0.1376 -0.7226
27470SOL    HW186198   0.185   0.466   1.450  0.0377 -1.2767 -0.1222
27470SOL    HW286199   0.106   0.522   1.333 -2.7826 -0.1712  2.1845
27471SOL     OW86200   4.811   6.212   2.346 -0.2147  0.8588 -0.1270
27471SOL    HW186201   4.741   6.183   2.404 -0.0153  1.3144  0.3475
27471SOL    HW286202   4.890   6.207   2.399 -0.1187  1.8658 -0.1545
27472SOL     OW86203   7.238   0.680   2.825 -0.1014  0.8419  0.3867
27472SOL    HW186204   7.143   0.690   2.827 -0.0007  1.9974  0.5100
27472SOL    HW286205   7.262   0.688   2.733 -0.2565 -1.1610  0.1423
27473SOL     OW86206   0.829   6.955   1.243  0.0977 -0.7534  0.0655
27473SOL    HW186207   0.779   6.873   1.243  1.0450 -1.3649 -0.8901
27473SOL    HW286208   0.772   7.018   1.285 -1.8770 -1.2022 -1.7493
27474SOL     OW86209   3.143   9.172   5.240  0.2879 -0.3273  0.1434
27474SOL    HW186210   3.097   9.254   5.222 -1.1345 -1.0701  0.2666
27474SOL    HW286211   3.195   9.155   5.162  0.3744  0.5416  0.0056
27475SOL     OW86212   0.058   7.825   2.398  0.1485  0.3301  0.0477
27475SOL    HW186213  -0.013   7.760   2.403 -0.9965  1.3934 -1.5200
27475SOL    HW286214   0.096   7.825   2.486 -1.0130 -1.1357  0.5995
27476SOL     OW86215   0.123   8.371   3.661  0.5665  0.0240  0.1115
27476SOL    HW186216   0.090   8.451   3.703  3.5055  0.9182  0.9839
27476SOL    HW286217   0.160   8.400   3.578  0.8160 -0.5669  0.0049
27477SOL     OW86218   4.861   9.335   9.152  0.3648 -0.3228  0.1328
27477SOL    HW186219   4.882   9.334   9.246  1.6061 -0.3149 -0.1302
27477SOL    HW286220   4.872   9.427   9.126 -0.8713 -0.1582  0.1593
27478SOL     OW86221   1.007   0.154   0.804 -0.5236  0.7309  0.1786
27478SOL    HW186222   0.951   0.077   0.800  0.0868  0.2461  0.6270
27478SOL    HW286223   0.949   0.228   0.784 -1.0118  0.1164 -0.7229
27479SOL     OW86224   7.681   2.421   7.967 -0.5235 -0.0453 -0.8239
27479SOL    HW186225   7.591   2.429   7.998 -0.1613  0.3837  0.1625
27479SOL    HW286226   7.700   2.328   7.973 -0.6126 -0.0303 -0.1401
27480SOL     OW86227   8.232   3.803   1.790 -0.6087 -0.6410  0.2567
27480SOL    HW186228   8.169   3.841   1.728 -0.6959 -0.2621  0.5744
27480SOL    HW286229   8.228   3.709   1.774 -1.2923 -0.6203  0.3163
27481SOL     OW86230   9.494   9.198   3.633  0.2608  0.3533 -0.2730
27481SOL    HW186231   9.494   9.104   3.650 -1.3279  0.0489 -1.6819
27481SOL    HW286232   9.479   9.239   3.718  0.7897 -0.6646  0.3247
27482SOL     OW86233   3.175   2.512   6.329  0.2855  0.1202  0.0747
27482SOL    HW186234   3.153   2.547   6.415 -1.5590 -1.4454  0.2907
27482SOL    HW286235   3.270   2.500   6.332  0.1379 -1.0876  2.3901
27483SOL     OW86236   3.604   3.932   5.863 -0.1881  0.1805  0.2764
27483SOL    HW186237   3.514   3.931   5.895 -0.5871  1.0097 -0.7502
27483SOL    HW286238   3.633   4.023   5.876  0.7512 -0.2309  1.2207
27484SOL     OW86239   6.847   5.242   7.924  0.0848  0.7564  0.2419
27484SOL    HW186240   6.765   5.194   7.915  0.0710  0.8625 -0.2074
27484SOL    HW286241   6.881   5.216   8.010 -1.1050  1.7650  1.0591
27485SOL     OW86242   9.841   9.051   8.659  0.0819  0.2903 -0.4344
27485SOL    HW186243   9.922   9.004   8.678 -0.4224  0.2322  1.9279
27485SOL    HW286244   9.776   9.012   8.719 -1.2540  1.4969 -1.0324
27486SOL     OW86245   9.188   1.589   2.167 -0.0798 -0.1919 -0.0645
27486SOL    HW186246   9.137   1.527   2.115 -0.6444 -0.0927  0.3630
27486SOL    HW286247   9.160   1.574   2.257 -1.4910  1.8248 -0.1131
27487SOL     OW86248   1.990   1.345   9.220  0.4605 -0.3538 -0.0152
27487SOL    HW186249   2.042   1.280   9.267  0.8889  0.7126  1.0151
27487SOL    HW286250   1.915   1.362   9.277  0.8642  0.7738  0.2134
27488SOL     OW86251   2.952   7.448   9.007  0.6285 -0.6967 -0.1392
27488SOL    HW186252   2.995   7.527   9.038  0.7077 -1.3431  1.5141
27488SOL    HW286253   2.865   7.477   8.979  0.1553 -0.1753  1.7107
27489SOL     OW86254  10.161   9.955   0.268 -0.5627 -0.2150 -0.2910
27489SOL    HW186255  10.129   9.986   0.183  1.8569 -0.3092 -1.3231
27489SOL    HW286256  10.154   9.859   0.262  2.0662 -0.4171 -1.5628
27490SOL     OW86257   4.978   6.810   0.160  0.2241 -0.5059  0.7366
27490SOL    HW186258   4.884   6.803   0.174 -0.3150  4.0379  0.8181
27490SOL    HW286259   5.013   6.838   0.244  1.6341 -1.5637  0.5485
27491SOL     OW86260  10.092   8.405   4.354  0.0433 -0.2336 -0.1055
27491SOL    HW186261  10.032   8.471   4.320 -0.7095 -1.3645 -1.0423
27491SOL    HW286262  10.176   8.424   4.312  0.1927  0.9101  0.6570
27492SOL     OW86263   3.281   0.105   8.804  0.2898  0.3721 -0.4647
27492SOL    HW186264   3.361   0.116   8.753  0.1170  0.9438 -0.6216
27492SOL    HW286265   3.214   0.150   8.753 -0.4244 -1.2246 -1.0216
27493SOL     OW86266   0.480   3.781   3.283  0.1294  0.5338  0.0170
27493SOL    HW186267   0.477   3.822   3.370  2.3815 -0.2266  0.5296
27493SOL    HW286268   0.522   3.846   3.227  1.0241  0.0837  0.1410
27494SOL     OW86269   2.114   8.079   6.510  0.0718 -0.0887  0.0882
27494SOL    HW186270   2.065   8.158   6.487  0.0029  0.1131  0.9099
27494SOL    HW286271   2.205   8.107   6.511  0.2285 -0.4315 -1.2961
27495SOL     OW86272   1.467   5.325   2.198 -0.1226  0.3450 -0.5511
27495SOL    HW186273   1.502   5.337   2.286 -1.0379 -0.0039 -0.1229
27495SOL    HW286274   1.496   5.403   2.150  0.4693  0.4874  0.0310
27496SOL     OW86275   7.301   8.669  10.324  0.2576 -0.4487 -0.3765
27496SOL    HW186276   7.221   8.664  10.271  0.4863  1.3611 -0.9588
27496SOL    HW286277   7.357   8.731  10.277  1.9391 -1.5054  0.1376
27497SOL     OW86278   3.598   2.550   2.349 -0.9064 -0.4369  0.7794
27497SOL    HW186279   3.530   2.490   2.378 -2.8073  0.9339 -0.6013
27497SOL    HW286280   3.604   2.537   2.254  1.2638 -0.9676  0.9263
27498SOL     OW86281   9.217   7.375   5.867  0.0931 -0.3415 -0.3942
27498SOL    HW186282   9.254   7.452   5.910 -0.2378 -0.8931  0.9446
27498SOL    HW286283   9.144   7.349   5.923  0.2036 -1.6349 -0.8117
27499SOL     OW86284   9.237   2.292   9.212 -0.0676 -0.3906 -0.0666
27499SOL    HW186285   9.325   2.329   9.209 -0.7211  1.2352 -0.0203
27499SOL    HW286286   9.185   2.351   9.158 -0.7182 -2.5774 -1.9983
27500SOL     OW86287   1.588   7.940  10.060 -0.1463  0.0806 -0.5394
27500SOL    HW186288   1.555   7.993  10.132  1.2171 -0.8142  0.8286
27500SOL    HW286289   1.547   7.854  10.072  2.3106 -0.9761  1.0525
27501SOL     OW86290   2.664   9.876   2.899  0.1490  0.1721  0.2518
27501SOL    HW186291   2.672   9.851   2.991  0.7114 -0.4297  0.0477
27501SOL    HW286292   2.670   9.793   2.851 -1.5063  0.3118 -0.2689
27502SOL     OW86293   2.571   1.271   6.662 -0.1594 -0.1173 -0.7146
27502SOL    HW186294   2.617   1.289   6.744  0.9676  1.0011 -1.5755
27502SOL    HW286295   2.578   1.351   6.611 -1.5123 -0.5351 -1.6206
27503SOL     OW86296   7.329   0.080   5.614  0.9001  0.3176 -0.1318
27503SOL    HW186297   7.236   0.095   5.625  1.0515  1.7646 -0.5576
27503SOL    HW286298   7.336   0.031   5.532  0.5580  1.1303 -0.6609
27504SOL     OW86299   3.108   8.553   2.227  0.0277 -0.1457 -0.0328
27504SOL    HW186300   3.118   8.498   2.305 -1.3528 -1.6815 -0.8618
27504SOL    HW286301   3.025   8.525   2.189  0.1141  1.3671 -1.4414
27505SOL     OW86302   9.944   6.669   0.812 -0.2338  0.1266 -0.0929
27505SOL    HW186303   9.849   6.669   0.814 -0.2221  0.4347  0.9626
27505SOL    HW286304   9.970   6.633   0.897  0.5806  1.5808  0.3043
27506SOL     OW86305   5.406   5.454   2.415  0.1179 -0.0780 -0.4434
27506SOL    HW186306   5.416   5.522   2.348  1.7383 -1.3230 -1.5190
27506SOL    HW286307   5.491   5.451   2.459 -0.9562  0.8242  1.8520
27507SOL     OW86308  10.118   9.046   3.709 -0.2086  0.1308  0.5971
27507SOL    HW186309  10.078   9.013   3.790  1.7118 -0.6603  1.2954
27507SOL    HW286310  10.047   9.090   3.663 -2.4679 -3.1227  0.6246
27508SOL     OW86311   1.798   1.476   8.729 -0.1587  0.1115 -0.2483
27508SOL    HW186312   1.740   1.542   8.690 -1.4550 -1.8791 -1.9425
27508SOL    HW286313   1.764   1.462   8.817  0.1008  1.6251  0.1087
27509SOL     OW86314   2.337   9.252   9.224 -0.0737 -0.2419  0.0892
27509SOL    HW186315   2.379   9.337   9.233  0.5889 -0.6740  1.2274
27509SOL    HW286316   2.248   9.265   9.258  0.4004 -0.2819  1.3732
27510SOL     OW86317   1.364   8.175   1.593 -0.1606  0.5065 -0.3637
27510SOL    HW186318   1.339   8.230   1.519  0.3515  1.6296  0.2755
27510SOL    HW286319   1.446   8.212   1.624  0.9714 -1.5155 -0.7870
27511SOL     OW86320   0.113   3.328   4.004  0.3537 -0.1919 -0.1237
27511SOL    HW186321   0.061   3.353   3.928 -0.1635 -1.4870 -0.2178
27511SOL    HW286322   0.149   3.411   4.036 -0.7328  0.5782 -0.8049
27512SOL     OW86323   7.074   8.476   5.595 -0.0358 -0.1015  0.1698
27512SOL    HW186324   7.159   8.490   5.636 -0.0563 -1.0538  0.5610
27512SOL    HW286325   7.095   8.434   5.511 -0.0835  0.2952 -0.0406
27513SOL     OW86326   6.048   4.924   0.503  0.1275  0.6151  0.6061
27513SOL    HW186327   6.050   4.846   0.448  0.5129 -0.2025  1.7307
27513SOL    HW286328   6.136   4.961   0.495 -0.7253  2.3988 -1.8555
27514SOL     OW86329   2.280   3.819   5.876 -0.4489  0.1237  0.4243
27514SOL    HW186330   2.215   3.832   5.807  0.3466 -1.1435 -0.5998
27514SOL    HW286331   2.353   3.875   5.850  0.5111 -1.5608 -0.7007
27515SOL     OW86332   0.522   1.580   7.237  0.0980  0.2028 -0.2801
27515SOL    HW186333   0.554   1.490   7.236 -1.0972 -0.2566 -1.9386
27515SOL    HW286334   0.514   1.601   7.330 -0.4917 -1.7494  0.1716
27516SOL     OW86335   1.629   0.414   5.326  0.0373  0.3190 -0.0363
27516SOL    HW186336   1.680   0.336   5.347  2.7813  1.6895 -1.1729
27516SOL    HW286337   1.646   0.475   5.398 -1.9368  0.0282  0.7516
27517SOL     OW86338   0.524   6.039   6.843  0.6330 -0.6452  0.0622
27517SOL    HW186339   0.574   6.027   6.762 -1.1638  1.2433 -1.4688
27517SOL    HW286340   0.463   5.966   6.844  0.7718 -0.7689 -0.2051
27518SOL     OW86341   4.970   0.917   8.018  0.3346 -0.0453  0.1035
27518SOL    HW186342   4.991   0.877   7.933 -0.1335  2.6412 -1.4137
27518SOL    HW286343   4.879   0.946   8.008  0.6953  1.5141  0.9754
27519SOL     OW86344   9.141   2.078   1.330  0.4797 -0.3987  0.0070
27519SOL    HW186345   9.178   2.159   1.364  0.3471 -0.4920  0.3786
27519SOL    HW286346   9.177   2.010   1.387 -1.3750 -0.3588  1.2777
27520SOL     OW86347  10.345   3.254   0.713  0.3293  0.1821  0.0174
27520SOL    HW186348  10.366   3.334   0.762 -1.5113  0.3147  0.6657
27520SOL    HW286349  10.251   3.242   0.725 -0.1886  0.0089 -3.2257
27521SOL     OW86350   2.388   4.274   5.056  0.1174 -0.4735  0.5419
27521SOL    HW186351   2.314   4.330   5.077  0.7909 -0.1516  2.2362
27521SOL    HW286352   2.351   4.187   5.047 -0.4048 -0.4618  2.2086
27522SOL     OW86353   9.040   4.533   8.959  0.3456  0.3456 -0.0404
27522SOL    HW186354   9.100   4.488   8.900 -0.9040 -0.1938 -0.9435
27522SOL    HW286355   8.976   4.575   8.902 -1.8053 -1.4464  0.8954
27523SOL     OW86356   1.201   3.610   3.877 -0.2407  0.0778  0.4885
27523SOL    HW186357   1.124   3.664   3.858 -0.5083 -0.7114 -0.8866
27523SOL    HW286358   1.241   3.595   3.791 -0.0987 -1.7546  0.8247
27524SOL     OW86359  10.237   5.439   2.832  0.1514 -0.0270  0.2949
27524SOL    HW186360  10.306   5.405   2.775  2.0128  0.3286  2.1993
27524SOL    HW286361  10.248   5.391   2.915 -1.3351  0.6768  0.9563
27525SOL     OW86362   6.107   3.009   5.685  0.6741 -0.0987  0.2003
27525SOL    HW186363   6.063   2.925   5.699 -0.3676  0.1526 -1.2888
27525SOL    HW286364   6.066   3.068   5.747 -0.9346  0.0520 -0.9484
27526SOL     OW86365   3.259   1.221   3.798  0.4657  0.2005 -0.2692
27526SOL    HW186366   3.253   1.128   3.774  1.0572  0.5998 -2.0763
27526SOL    HW286367   3.199   1.265   3.739  0.7190  1.0464  0.0974
27527SOL     OW86368   1.124   4.318   5.448 -0.3822  0.2519 -0.0956
27527SOL    HW186369   1.041   4.322   5.401 -0.6723  0.0364  0.3950
27527SOL    HW286370   1.102   4.336   5.539  0.0259 -0.3297  0.1282
27528SOL     OW86371   8.788   7.016   9.628 -0.4851 -0.0455  0.3166
27528SOL    HW186372   8.698   7.033   9.602 -0.1522  0.5731 -0.4623
27528SOL    HW286373   8.840   7.079   9.578  0.3299 -0.0269  1.1587
27529SOL     OW86374   7.290   2.515   5.920 -0.8107 -0.5782 -0.0727
27529SOL    HW186375   7.359   2.479   5.975 -0.3416  0.1809 -0.1530
27529SOL    HW286376   7.214   2.460   5.938 -0.6906 -0.3020  1.3990
27530SOL     OW86377   9.200   8.005   8.109  0.3603 -0.3479  0.2936
27530SOL    HW186378   9.154   8.066   8.051  1.7510 -0.1844 -0.6887
27530SOL    HW286379   9.154   8.013   8.192  0.4817  2.0667  0.2116
27531SOL     OW86380   1.286   3.704   7.392  0.1292  0.3504  0.2356
27531SOL    HW186381   1.246   3.686   7.477 -1.4000  1.2710 -0.2362
27531SOL    HW286382   1.337   3.784   7.405 -0.9139  1.0633  0.0884
27532SOL     OW86383   9.073   6.335   6.681 -0.3611 -0.3043 -0.0254
27532SOL    HW186384   8.989   6.379   6.667  0.1110  0.3054 -1.0299
27532SOL    HW286385   9.138   6.400   6.657  0.3608 -1.4692 -1.3417
27533SOL     OW86386   2.069   1.874   1.272  0.0746  0.7570 -0.1483
27533SOL    HW186387   2.100   1.785   1.286 -1.8930  0.1604  0.7559
27533SOL    HW286388   2.091   1.894   1.181 -0.8019 -1.2586 -0.8511
27534SOL     OW86389   2.423   1.117   9.238 -0.1783  0.4544  0.4406
27534SOL    HW186390   2.414   1.096   9.145 -0.4311 -0.6277  0.7035
27534SOL    HW286391   2.511   1.088   9.261 -0.6431 -0.6487  0.8817
27535SOL     OW86392   3.125   5.245   8.755 -0.7513  0.0452 -0.0352
27535SOL    HW186393   3.114   5.201   8.839  1.0421 -1.2749 -0.4231
27535SOL    HW286394   3.191   5.313   8.772 -0.2354 -0.3551 -0.3902
27536SOL     OW86395   8.143   3.928   6.702 -0.5699 -0.0229 -0.1753
27536SOL    HW186396   8.124   3.838   6.727 -1.2036  0.0219 -0.4795
27536SOL    HW286397   8.192   3.964   6.776 -0.4021 -0.5890 -0.0127
27537SOL     OW86398   0.112   9.318   4.597 -0.1224 -0.2339  0.3300
27537SOL    HW186399   0.132   9.241   4.542  0.6579  0.4220 -0.3201
27537SOL    HW286400   0.124   9.393   4.538 -3.4086  0.3299  0.1450
27538SOL     OW86401   3.984   6.955   3.809 -0.1286 -0.2010  0.3624
27538SOL    HW186402   4.029   6.896   3.869  0.7840 -0.5179 -0.5897
27538SOL    HW286403   4.052   6.981   3.747 -0.6348  1.4773  0.4823
27539SOL     OW86404   9.431   9.002   4.510  0.4133  0.4136 -0.5814
27539SOL    HW186405   9.396   9.058   4.440  1.2739  1.0608 -0.5098
27539SOL    HW286406   9.456   8.921   4.465 -1.5540 -0.2609 -0.5605
27540SOL     OW86407   0.613   0.352   9.940 -0.0050 -0.7780  0.5273
27540SOL    HW186408   0.703   0.319   9.940  0.6598  0.9014  1.4711
27540SOL    HW286409   0.617   0.433   9.991 -1.5876  0.5791 -1.3114
27541SOL     OW86410   0.618   0.196   4.478  0.1264 -0.3905 -0.0748
27541SOL    HW186411   0.525   0.216   4.467 -0.0232 -1.2827 -0.5418
27541SOL    HW286412   0.625   0.103   4.453  1.1978 -0.2360 -0.3724
27542SOL     OW86413   5.176   3.347   5.622 -0.3252  0.6219  0.1349
27542SOL    HW186414   5.125   3.416   5.582 -0.3403 -0.0236 -0.9951
27542SOL    HW286415   5.266   3.380   5.623  0.0633 -0.1273 -2.3912
27543SOL     OW86416   7.841   2.196   6.526 -0.2108  0.2218  0.0129
27543SOL    HW186417   7.900   2.211   6.600 -1.2889  2.0625  0.5795
27543SOL    HW286418   7.892   2.220   6.449  0.6624 -0.9283  0.2136
27544SOL     OW86419   7.509   6.861   8.479 -0.1166 -0.4491 -0.0833
27544SOL    HW186420   7.467   6.909   8.408 -0.9870 -4.4693 -2.6623
27544SOL    HW286421   7.600   6.852   8.451  0.1575  0.0676  0.6176
27545SOL     OW86422   0.384   1.489   4.558 -0.6933  0.0395 -0.0061
27545SOL    HW186423   0.472   1.491   4.519 -0.6793 -0.4815 -0.0035
27545SOL    HW286424   0.386   1.558   4.624 -0.1904 -0.1642  0.1950
27546SOL     OW86425   6.074   1.920   9.951 -0.6056  0.9240 -0.5383
27546SOL    HW186426   5.981   1.908   9.930 -0.6644  1.5549 -0.6584
27546SOL    HW286427   6.092   2.011   9.930 -0.1439  1.0148  0.2247
27547SOL     OW86428   5.171   9.539   5.472 -0.1944 -0.2356  0.0722
27547SOL    HW186429   5.116   9.461   5.478  0.2548 -0.5461  0.1710
27547SOL    HW286430   5.126   9.594   5.408  1.0020 -1.8673 -2.3531
27548SOL     OW86431   2.116   5.970   1.968  0.3886  0.5724  0.3774
27548SOL    HW186432   2.060   6.046   1.980  0.2221  0.9044 -2.0123
27548SOL    HW286433   2.179   5.974   2.040 -2.4078  0.3285  3.0137
27549SOL     OW86434   7.602   5.621   1.260 -0.2787 -0.2931  0.3491
27549SOL    HW186435   7.564   5.701   1.296  0.1546  0.4433 -0.7568
27549SOL    HW286436   7.589   5.629   1.166 -1.8920 -2.4323  0.3388
27550SOL     OW86437   2.604   6.052   4.032  0.2080  0.0388 -0.2941
27550SOL    HW186438   2.526   6.095   4.065 -0.1276 -0.6036 -0.2402
27550SOL    HW286439   2.638   6.112   3.965  1.1654  1.5856  1.4984
27551SOL     OW86440   6.627   8.391   6.981 -0.4345  0.1839 -0.2110
27551SOL    HW186441   6.554   8.379   7.042 -1.5319  1.5102 -1.2037
27551SOL    HW286442   6.686   8.450   7.027 -0.3565 -0.2742  0.2900
27552SOL     OW86443   1.475   6.651   0.032 -0.3810  0.2943 -0.1703
27552SOL    HW186444   1.475   6.663  -0.063  0.8326 -1.6550 -0.4820
27552SOL    HW286445   1.438   6.564   0.045  0.3169  0.1625  1.0715
27553SOL     OW86446   7.819   0.312   1.506 -0.2202 -0.1285  0.0135
27553SOL    HW186447   7.878   0.353   1.569 -0.5273  0.9217 -0.3543
27553SOL    HW286448   7.768   0.250   1.558  0.2136  0.0002  0.6023
27554SOL     OW86449   9.381   4.634   4.537  0.0027  0.0088 -0.0142
27554SOL    HW186450   9.413   4.674   4.618  0.8210 -0.8400  0.1024
27554SOL    HW286451   9.288   4.657   4.534  0.1324  0.6982  0.7658
27555SOL     OW86452   1.392   2.146  10.233 -0.3575 -0.1872 -0.2162
27555SOL    HW186453   1.387   2.101  10.149 -0.2774 -0.3039 -0.1589
27555SOL    HW286454   1.435   2.083  10.291  0.2586  0.1709 -0.2766
27556SOL     OW86455   5.380   9.639   4.655 -0.7792  0.0145  0.1464
27556SOL    HW186456   5.307   9.692   4.623 -0.2884 -0.4153 -1.7781
27556SOL    HW286457   5.431   9.618   4.577  0.1296 -1.6555  1.1309
27557SOL     OW86458   3.382   9.932   3.193 -0.3317  0.5023 -0.2616
27557SOL    HW186459   3.338  10.008   3.231 -0.6838  0.2604 -0.1737
27557SOL    HW286460   3.470   9.962   3.172 -0.4609  0.9234 -0.1983
27558SOL     OW86461   0.522  10.085   3.322  0.4089 -0.0437  0.3510
27558SOL    HW186462   0.583  10.151   3.290 -0.1294  0.6954  0.8152
27558SOL    HW286463   0.444  10.095   3.268 -0.2244  0.7103  1.3628
27559SOL     OW86464   3.375   1.895   7.973  0.5699  0.7067 -0.4173
27559SOL    HW186465   3.335   1.964   8.026 -1.2872 -0.6889  0.1084
27559SOL    HW286466   3.339   1.909   7.885  2.7521  2.3139 -1.1571
27560SOL     OW86467   4.990   4.342   5.520 -0.2337  0.1852 -0.0430
27560SOL    HW186468   5.058   4.311   5.459 -0.6023  1.2052 -1.0023
27560SOL    HW286469   5.001   4.287   5.597  0.8148 -0.5694 -0.6969
27561SOL     OW86470   0.092   4.704   3.672  0.2794  0.4719 -0.3607
27561SOL    HW186471   0.047   4.640   3.727  0.1909  0.1117 -0.8510
27561SOL    HW286472   0.107   4.779   3.730  2.6945 -0.9294  0.9555
27562SOL     OW86473   5.110   9.873   0.683 -0.2801 -0.7970  0.2388
27562SOL    HW186474   5.064   9.911   0.608  2.7983  0.0720 -1.3494
27562SOL    HW286475   5.048   9.883   0.756 -1.9321  1.8449 -1.3651
27563SOL     OW86476   4.982  10.166   8.398 -0.2109 -0.3992  0.0069
27563SOL    HW186477   5.055  10.212   8.438 -0.8331  0.5598  0.0555
27563SOL    HW286478   4.982  10.196   8.307 -1.3795  0.7077  0.3354
27564SOL     OW86479   0.495   4.484   4.194 -0.2094  0.2591 -0.0025
27564SOL    HW186480   0.471   4.537   4.118 -1.3364 -0.6228 -0.2946
27564SOL    HW286481   0.569   4.531   4.234 -1.1255  2.0215 -0.2620
27565SOL     OW86482   3.068   6.413   9.164  0.6424 -0.1122 -0.1569
27565SOL    HW186483   3.013   6.375   9.095  1.7435 -0.1745 -1.0371
27565SOL    HW286484   3.018   6.487   9.197 -0.4402 -0.8191 -0.1690
27566SOL     OW86485   6.883   0.199   3.646  0.0143 -0.1239 -0.0544
27566SOL    HW186486   6.867   0.293   3.642  0.3487 -0.1232 -2.0596
27566SOL    HW286487   6.819   0.160   3.586 -0.7815 -1.3109  1.4728
27567SOL     OW86488   8.311   2.363   1.847 -0.2545  0.1819  0.1139
27567SOL    HW186489   8.278   2.383   1.935 -0.1435  2.9541 -0.3870
27567SOL    HW286490   8.272   2.431   1.791 -1.8301 -2.5565 -2.3873
27568SOL     OW86491   8.099   0.153   5.478 -0.2477 -0.2693  0.5317
27568SOL    HW186492   8.047   0.232   5.462 -0.7367 -0.5390  0.8056
27568SOL    HW286493   8.186   0.176   5.445 -0.2881  0.5195  0.9554
27569SOL     OW86494   1.354   2.601   7.318  0.2107 -0.0471 -0.6458
27569SOL    HW186495   1.328   2.512   7.296 -0.1352 -0.2160  0.3737
27569SOL    HW286496   1.422   2.591   7.384 -0.3767  0.4323  0.0584
27570SOL     OW86497   6.498   3.984   8.661 -0.0298  0.0474 -0.3564
27570SOL    HW186498   6.411   3.945   8.657 -0.3333  0.7255 -0.5641
27570SOL    HW286499   6.516   4.012   8.571  1.0362 -1.4052 -0.6390
27571SOL     OW86500   8.806   5.408   9.937 -0.6528 -0.4578 -0.3669
27571SOL    HW186501   8.761   5.388   9.855 -1.1346  2.1961 -0.8414
27571SOL    HW286502   8.736   5.410  10.002 -1.0240  1.8538 -0.7689
27572SOL     OW86503   3.229   4.226   6.802 -0.2800 -0.5715 -0.4714
27572SOL    HW186504   3.194   4.269   6.723 -0.9406 -0.1292  0.0493
27572SOL    HW286505   3.249   4.137   6.774  0.4012 -0.1512 -1.3859
27573SOL     OW86506   3.175   4.484   8.575  0.2365 -0.3983  0.3526
27573SOL    HW186507   3.268   4.482   8.600  0.3732 -1.3498 -0.1686
27573SOL    HW286508   3.168   4.419   8.505 -0.3643  1.3620 -1.2805
27574SOL     OW86509   9.374   9.482   8.312  0.3082  0.5715 -0.1575
27574SOL    HW186510   9.388   9.394   8.346 -2.9857 -0.1504 -0.2959
27574SOL    HW286511   9.387   9.474   8.217  0.1775  0.2478 -0.1501
27575SOL     OW86512   8.615   9.538   5.505  0.2897 -0.0234  0.0837
27575SOL    HW186513   8.528   9.530   5.544  0.3329 -0.2963  0.1251
27575SOL    HW286514   8.658   9.606   5.557  0.8023 -1.2699  1.3669
27576SOL     OW86515   5.899   3.978   2.148 -0.0868 -0.1785 -0.1243
27576SOL    HW186516   5.882   3.960   2.241 -1.7808  1.7549  0.0281
27576SOL    HW286517   5.934   4.067   2.147 -2.1001  0.6671 -1.4250
27577SOL     OW86518   6.880   3.716   8.484 -0.6042 -0.1676 -0.1718
27577SOL    HW186519   6.963   3.695   8.528 -0.7043  0.7020  0.4451
27577SOL    HW286520   6.907   3.766   8.407 -0.5999  1.1059  0.6323
27578SOL     OW86521   7.756   8.129   3.012  0.0209 -0.3197  1.0748
27578SOL    HW186522   7.776   8.036   3.004  1.3756 -0.0322  0.7558
27578SOL    HW286523   7.700   8.149   2.936  4.0267  0.1476 -2.1457
27579SOL     OW86524   3.750   4.346   1.203 -0.5861  0.8116  0.2879
27579SOL    HW186525   3.735   4.255   1.229 -0.9168  0.9337  0.5279
27579SOL    HW286526   3.845   4.356   1.202 -0.5634  0.6798  1.0001
27580SOL     OW86527   3.061   1.317   3.253 -0.5607 -0.0575 -0.3321
27580SOL    HW186528   3.016   1.330   3.170  0.1455 -0.0474 -0.7196
27580SOL    HW286529   3.072   1.222   3.260  0.0877 -0.0037 -0.6309
27581SOL     OW86530   1.421   4.436  10.219  0.4420  0.8870  0.0095
27581SOL    HW186531   1.330   4.412  10.201  0.2981 -0.5501  2.2603
27581SOL    HW286532   1.420   4.532  10.227 -0.6323  0.9789 -1.0334
27582SOL     OW86533   3.792   8.435   8.380 -0.0865 -0.8555  0.1300
27582SOL    HW186534   3.698   8.451   8.374 -0.2571 -1.2265  1.5311
27582SOL    HW286535   3.803   8.383   8.459  0.9466 -3.6724 -1.6900
27583SOL     OW86536   3.103   1.642   7.426  0.4915  0.1393 -0.0329
27583SOL    HW186537   3.185   1.611   7.388 -1.0644 -1.4489 -2.4135
27583SOL    HW286538   3.052   1.672   7.351 -1.7137 -0.5044  1.1249
27584SOL     OW86539   8.633   2.149   3.845 -0.1314  0.3167 -0.1740
27584SOL    HW186540   8.670   2.125   3.760  2.6973  0.7966  0.8283
27584SOL    HW286541   8.592   2.068   3.876  2.2251 -1.0368 -0.3577
27585SOL     OW86542   0.531   3.326   9.824  0.0140 -0.3951  0.2467
27585SOL    HW186543   0.462   3.297   9.883  1.7887 -0.3548  2.4477
27585SOL    HW286544   0.595   3.255   9.823  0.5532  0.0709 -0.7710
27586SOL     OW86545   7.111   4.169  10.053  0.0341 -0.0400 -0.1506
27586SOL    HW186546   7.137   4.260  10.072 -0.9040  0.0092  1.0277
27586SOL    HW286547   7.038   4.152  10.112  0.8780 -1.9214  0.4448
27587SOL     OW86548   3.869   6.431   0.664  0.0698  0.2339 -0.4046
27587SOL    HW186549   3.894   6.414   0.755 -0.4900 -1.3250 -0.5056
27587SOL    HW286550   3.939   6.485   0.629  0.7855  0.0358  0.6743
27588SOL     OW86551   8.651   3.933   1.400  0.1893 -0.1792 -0.1046
27588SOL    HW186552   8.712   3.865   1.428 -0.9092 -1.5620 -0.9282
27588SOL    HW286553   8.637   3.916   1.307  0.0448  1.3162 -0.3726
27589SOL     OW86554   9.794   8.817   7.615 -0.0996 -0.1357 -0.0151
27589SOL    HW186555   9.728   8.815   7.545 -0.6323  0.0460  0.4755
27589SOL    HW286556   9.767   8.748   7.676 -1.5717  1.8503  1.7229
27590SOL     OW86557   7.043   8.063   8.955 -0.0737  0.2676 -0.2081
27590SOL    HW186558   7.097   8.069   9.033 -1.8352  0.7538  1.0256
27590SOL    HW286559   7.104   8.036   8.886  1.5072 -0.2427  1.3188
27591SOL     OW86560   1.338  10.016   9.281 -0.1286 -0.4398  0.0834
27591SOL    HW186561   1.244  10.032   9.278 -0.1284 -0.3497  0.5721
27591SOL    HW286562   1.373  10.065   9.207 -0.4104 -0.1083  0.1671
27592SOL     OW86563   8.561   3.720   3.158 -0.1343  0.3712  0.1707
27592SOL    HW186564   8.561   3.683   3.070 -0.3693  0.8434 -0.0268
27592SOL    HW286565   8.482   3.685   3.199  0.2620 -0.2925  0.3855
27593SOL     OW86566   5.191   0.363   1.521  0.1099 -0.3218 -0.2749
27593SOL    HW186567   5.240   0.348   1.601  0.4063  1.2996 -0.1164
27593SOL    HW286568   5.188   0.278   1.478  2.0904 -0.7055  0.2610
27594SOL     OW86569  10.084   8.664   9.703 -0.9549  0.0479 -0.6585
27594SOL    HW186570  10.069   8.573   9.730  0.7406 -0.4360 -1.2167
27594SOL    HW286571  10.081   8.713   9.785  3.5875 -1.3369  0.6755
27595SOL     OW86572   9.737   1.251   5.101  0.3182 -0.1084 -0.2843
27595SOL    HW186573   9.818   1.217   5.139 -0.3452  0.0177  1.3364
27595SOL    HW286574   9.670   1.231   5.166 -0.5168  2.0789 -0.3784
27596SOL     OW86575   8.430   9.149   0.070 -0.4462  0.0367 -0.5482
27596SOL    HW186576   8.516   9.162   0.111 -0.2048 -0.1528 -0.9867
27596SOL    HW286577   8.374   9.216   0.110 -0.1324  0.0625 -0.1493
27597SOL     OW86578   6.296   8.411   9.613  0.3957  0.6395 -0.3984
27597SOL    HW186579   6.326   8.444   9.528  0.5500 -2.0981 -1.5166
27597SOL    HW286580   6.374   8.374   9.653 -0.0389  0.2363  0.0924
27598SOL     OW86581   9.036   6.658   6.164  0.1576 -0.1729 -0.4237
27598SOL    HW186582   9.044   6.567   6.195  0.6567 -0.2494 -0.7615
27598SOL    HW286583   9.098   6.707   6.217  0.8144 -0.2566 -1.0898
27599SOL     OW86584   5.027   8.024   5.588  0.2978 -0.1343  0.3174
27599SOL    HW186585   4.950   8.069   5.624  0.5667  0.0181  0.7163
27599SOL    HW286586   5.034   7.944   5.639  0.6073  0.0218  0.5243
27600SOL     OW86587   4.469   6.869   1.774  0.1402 -0.1279 -0.4341
27600SOL    HW186588   4.491   6.797   1.832  0.3487  1.6390  1.8257
27600SOL    HW286589   4.413   6.926   1.827  0.4344  1.6547 -1.9336
27601SOL     OW86590   1.636   7.434   4.177  0.1640 -0.2129 -0.1051
27601SOL    HW186591   1.541   7.440   4.187  0.1988  0.0065  0.1306
27601SOL    HW286592   1.649   7.402   4.088 -0.1003  1.7005 -0.8993
27602SOL     OW86593   2.850   4.183   4.522  0.4780 -0.0342  0.6209
27602SOL    HW186594   2.870   4.094   4.551 -2.2068 -0.8101  0.3642
27602SOL    HW286595   2.814   4.227   4.599 -0.4809  0.0310  0.1473
27603SOL     OW86596   3.947   6.178   4.214 -0.9468 -0.0307  0.2562
27603SOL    HW186597   3.922   6.125   4.138 -0.9536 -0.0119  0.2452
27603SOL    HW286598   3.885   6.152   4.282 -0.8661 -0.1327  0.2909
27604SOL     OW86599   2.177   2.873   4.584  0.1278 -0.4479  0.2165
27604SOL    HW186600   2.107   2.905   4.526  0.9162 -0.2345 -0.6495
27604SOL    HW286601   2.150   2.785   4.608 -0.4683 -0.3483 -0.0699
27605SOL     OW86602   1.692   0.592   5.544  0.4061 -0.3717  0.3822
27605SOL    HW186603   1.774   0.556   5.578  0.4554  1.2425  2.2129
27605SOL    HW286604   1.639   0.607   5.622 -0.5848  1.0503 -0.5167
27606SOL     OW86605   5.053   4.632   4.229 -0.4025 -0.1439  0.5027
27606SOL    HW186606   5.136   4.678   4.239 -1.7328  2.2846  1.0822
27606SOL    HW286607   5.069   4.568   4.160  1.7645  0.6811  0.1778
27607SOL     OW86608   5.174   5.947   2.249 -0.2481 -0.1728 -0.0649
27607SOL    HW186609   5.172   5.853   2.231 -1.4429  0.3636 -3.6693
27607SOL    HW286610   5.116   5.958   2.325 -0.0957 -2.3050  0.4240
27608SOL     OW86611   4.264   5.718   6.464 -0.0619  0.2924 -0.2504
27608SOL    HW186612   4.348   5.673   6.468  0.4069  1.1739 -0.0793
27608SOL    HW286613   4.285   5.809   6.442 -1.0898  0.1664 -1.9255
27609SOL     OW86614   7.249   4.268   3.413  0.3089  0.5092 -0.1820
27609SOL    HW186615   7.254   4.315   3.497 -2.7874  0.7155  0.0098
27609SOL    HW286616   7.204   4.328   3.355  1.3815 -0.0989 -1.6965
27610SOL     OW86617   6.892  10.018   3.363  0.2853  0.7754 -0.0258
27610SOL    HW186618   6.834   9.950   3.329  0.5997  0.6265 -0.2712
27610SOL    HW286619   6.887  10.009   3.458 -1.8859  2.2564  0.0708
27611SOL     OW86620   8.304   9.373   7.711  0.2514  0.1574  0.1559
27611SOL    HW186621   8.365   9.427   7.761  0.4939  0.4891 -0.4742
27611SOL    HW286622   8.315   9.285   7.746 -1.5555  0.7750  2.5583
27612SOL     OW86623   0.243   4.630   3.436 -0.5017  0.2679 -0.4800
27612SOL    HW186624   0.230   4.535   3.440 -0.9653  0.3638  0.4346
27612SOL    HW286625   0.241   4.659   3.527 -1.3993  1.3031 -0.8047
27613SOL     OW86626   3.656   0.332   6.062  0.1099 -0.2158 -0.0502
27613SOL    HW186627   3.736   0.348   6.111  0.4038  0.1752 -0.6448
27613SOL    HW286628   3.645   0.410   6.008 -0.1631 -0.6706 -0.6666
27614SOL     OW86629   6.612   2.564   6.704  0.1758 -0.0641  0.0348
27614SOL    HW186630   6.540   2.610   6.747 -1.2999 -1.2117 -1.0927
27614SOL    HW286631   6.646   2.627   6.640 -0.2710  0.2829  0.1321
27615SOL     OW86632   8.953   2.493   1.991  0.5568 -0.3294 -0.1437
27615SOL    HW186633   8.925   2.415   2.038  1.0065 -0.8999 -0.7968
27615SOL    HW286634   8.933   2.565   2.050 -1.8205 -0.7275 -0.3861
27616SOL     OW86635   2.872   4.287   5.911  0.5171  0.4292  0.3350
27616SOL    HW186636   2.823   4.214   5.873  1.9196  0.1619 -1.0378
27616SOL    HW286637   2.910   4.251   5.991  0.2315  0.0220  0.2908
27617SOL     OW86638   7.863   1.059   0.887 -0.1366 -0.4260 -0.4192
27617SOL    HW186639   7.802   1.088   0.955 -0.0682  0.5697 -0.7615
27617SOL    HW286640   7.904   1.140   0.856 -0.9798 -0.7210 -2.4346
27618SOL     OW86641   4.838   5.848   1.311  0.3927  0.0354 -0.7216
27618SOL    HW186642   4.861   5.901   1.235  0.0908 -0.3779 -1.1006
27618SOL    HW286643   4.746   5.869   1.327  0.3138 -0.2668 -0.7830
27619SOL     OW86644   0.028   2.822   9.664  0.4612  0.1206 -0.0238
27619SOL    HW186645  -0.065   2.839   9.674  0.7013  0.8159  1.4085
27619SOL    HW286646   0.034   2.752   9.600 -1.0133  0.3523 -0.4409
27620SOL     OW86647   7.716   4.582   3.719  1.2772 -0.1472  0.1109
27620SOL    HW186648   7.680   4.581   3.630  0.3727  0.2113  0.4647
27620SOL    HW286649   7.754   4.669   3.729  0.8831  0.0085  0.2661
27621SOL     OW86650   7.187   3.091   7.832 -0.1931  0.2580 -0.1301
27621SOL    HW186651   7.192   3.118   7.923 -0.5718  0.9866 -0.3166
27621SOL    HW286652   7.112   3.032   7.829 -1.9745  2.3919 -0.4479
27622SOL     OW86653   0.469   9.505   0.743 -0.2132 -0.0317  0.2120
27622SOL    HW186654   0.454   9.453   0.664  0.0148 -0.1927  0.2735
27622SOL    HW286655   0.384   9.509   0.787 -1.0238  2.2203 -1.3403
27623SOL     OW86656   8.890   5.887   6.026 -0.2436  0.1775  0.2548
27623SOL    HW186657   8.868   5.816   6.086 -1.0282  0.7690  0.6851
27623SOL    HW286658   8.965   5.854   5.976  0.1208 -0.5048  1.2251
27624SOL     OW86659   4.516   3.196   8.492 -0.1961 -0.5254  0.7473
27624SOL    HW186660   4.523   3.232   8.404 -0.0535  2.2636  1.7836
27624SOL    HW286661   4.424   3.210   8.516 -0.1839 -1.0688  1.1269
27625SOL     OW86662   3.126   5.939   5.652  0.1344  0.4714  0.3379
27625SOL    HW186663   3.046   5.927   5.703  0.4157 -2.0291  0.2957
27625SOL    HW286664   3.182   5.865   5.677  1.7869  1.2752 -0.8263
27626SOL     OW86665   6.638   6.013   0.037 -0.0801  0.3769 -0.2827
27626SOL    HW186666   6.618   5.963   0.117 -0.9487  1.2599  0.0701
27626SOL    HW286667   6.718   5.973   0.003  0.2878 -0.0265  1.0191
27627SOL     OW86668   9.510   9.935   4.271 -0.4350 -0.5412  0.2180
27627SOL    HW186669   9.597   9.965   4.295 -0.7236 -0.0144  0.6436
27627SOL    HW286670   9.512   9.927   4.176  0.0403 -0.4233  0.2190
27628SOL     OW86671   7.716   3.235   4.361  0.2165 -0.2367  0.0170
27628SOL    HW186672   7.679   3.319   4.387  0.5346  0.1371 -0.7033
27628SOL    HW286673   7.731   3.188   4.443 -0.6080  0.1298  0.3882
27629SOL     OW86674   6.258   6.525   5.914  0.2267  0.0480  0.3340
27629SOL    HW186675   6.330   6.497   5.970 -0.7124 -0.6810  1.2206
27629SOL    HW286676   6.282   6.613   5.885  2.3493 -0.8769 -0.9414
27630SOL     OW86677   2.669   8.493   7.950 -0.4468  0.0378  0.2211
27630SOL    HW186678   2.598   8.495   8.013 -1.3664 -0.1197 -0.7780
27630SOL    HW286679   2.653   8.413   7.899 -0.5715  0.9137 -1.1417
27631SOL     OW86680   8.915   0.060   1.087 -0.6477  0.2033 -0.6002
27631SOL    HW186681   8.985   0.067   1.151 -0.6843  0.8553 -0.6198
27631SOL    HW286682   8.887   0.150   1.072 -0.0685  0.1637 -2.1589
27632SOL     OW86683   9.663   8.039   1.330 -0.1406 -0.6294 -0.3599
27632SOL    HW186684   9.673   8.052   1.235  2.1754 -1.9790 -0.3788
27632SOL    HW286685   9.736   7.982   1.354 -1.4253 -1.3929  2.0492
27633SOL     OW86686   2.003   9.185   3.430 -0.7974 -0.3279 -0.3614
27633SOL    HW186687   2.054   9.257   3.392 -1.7006  0.3464 -0.3050
27633SOL    HW286688   2.040   9.174   3.518  1.4366 -2.0269 -1.4123
27634SOL     OW86689   7.408   8.556   2.382  0.3314 -0.7740 -0.3249
27634SOL    HW186690   7.477   8.524   2.440 -0.5677 -2.4201 -0.1053
27634SOL    HW286691   7.435   8.527   2.295  1.5705  1.5096 -0.7926
27635SOL     OW86692   2.910   3.699   6.253 -0.2527 -0.1572  0.4093
27635SOL    HW186693   2.911   3.632   6.184  0.2940 -1.0282  1.2298
27635SOL    HW286694   2.825   3.742   6.243 -0.1772 -0.2435 -0.8202
27636SOL     OW86695   3.642   3.503   3.354 -0.0129  0.4525 -0.3646
27636SOL    HW186696   3.677   3.571   3.296  2.5739 -1.9632 -1.9300
27636SOL    HW286697   3.720   3.460   3.389 -1.5362 -0.1961  2.5086
27637SOL     OW86698   9.204   1.555   6.409 -0.3209 -0.6366  0.0638
27637SOL    HW186699   9.261   1.517   6.476  0.5276 -0.4206 -0.5317
27637SOL    HW286700   9.123   1.503   6.416  0.4714 -1.9539 -0.0979
27638SOL     OW86701   2.298   3.684   4.436  0.2739 -0.4245  1.0799
27638SOL    HW186702   2.332   3.600   4.404 -0.9672 -0.8730  0.8645
27638SOL    HW286703   2.239   3.660   4.507 -1.4916  0.0756 -0.1351
27639SOL     OW86704   9.251   9.835   4.345  0.1276  0.4113 -0.5975
27639SOL    HW186705   9.339   9.866   4.322 -0.3148  0.8873 -1.6816
27639SOL    HW286706   9.201   9.840   4.264 -0.4728 -1.4476 -0.4094
27640SOL     OW86707  10.135  10.265   7.087 -0.0594 -0.0495 -0.6827
27640SOL    HW186708  10.138  10.218   7.004  0.1705 -0.2328 -0.5715
27640SOL    HW286709  10.224  10.297   7.100  0.1004 -0.7047 -0.1209
27641SOL     OW86710   9.820   1.018   8.645 -0.0914 -0.0695  0.0119
27641SOL    HW186711   9.881   1.073   8.597 -0.1113  1.2000  1.3680
27641SOL    HW286712   9.838   0.929   8.614  0.9344  0.5251 -1.1772
27642SOL     OW86713   0.225   4.039   5.466  0.5600 -0.0297  0.0226
27642SOL    HW186714   0.279   3.961   5.471 -2.1406 -1.9418  1.9079
27642SOL    HW286715   0.177   4.029   5.383  0.8009  0.0506 -0.1273
27643SOL     OW86716   6.533   2.324   6.453 -0.2368  0.5321  0.3488
27643SOL    HW186717   6.597   2.381   6.494  1.7463  0.9712 -2.9799
27643SOL    HW286718   6.493   2.378   6.384 -0.4709 -1.1807 -0.9291
27644SOL     OW86719   9.119   6.936   7.372 -0.1419 -0.6352  0.0582
27644SOL    HW186720   9.179   6.958   7.443 -0.0984 -1.5199  0.2990
27644SOL    HW286721   9.055   7.007   7.372 -0.2582 -0.7337  1.1051
27645SOL     OW86722   8.454   6.314   8.119 -0.4033 -0.2664 -0.3450
27645SOL    HW186723   8.531   6.320   8.063 -1.5532 -2.2414 -2.3204
27645SOL    HW286724   8.382   6.297   8.058 -2.5153  1.9065  1.3656
27646SOL     OW86725   1.016   6.973   6.992  0.5342 -0.1921 -0.0829
27646SOL    HW186726   0.974   7.036   6.933 -2.5333 -2.2400 -0.3421
27646SOL    HW286727   1.091   6.940   6.943  0.9717  1.6795 -0.7572
27647SOL     OW86728   0.792   6.789   9.572 -0.3164  0.1315  0.5352
27647SOL    HW186729   0.706   6.797   9.530 -0.1690  0.1204  0.2282
27647SOL    HW286730   0.798   6.866   9.628 -0.1554  0.6119 -0.1269
27648SOL     OW86731   3.830   8.294   5.121  0.4535 -0.1471 -0.1458
27648SOL    HW186732   3.900   8.229   5.112  1.7710  1.2568 -0.4371
27648SOL    HW286733   3.824   8.334   5.035 -0.1360  0.3394  0.1151
27649SOL     OW86734   1.147   3.104   0.792 -0.0597 -0.2067 -0.2448
27649SOL    HW186735   1.195   3.143   0.865  0.1482 -0.3636 -0.2965
27649SOL    HW286736   1.072   3.162   0.779 -1.0401 -1.0698  1.1967
27650SOL     OW86737   4.344   2.296  10.188 -0.2074 -0.1707 -0.0046
27650SOL    HW186738   4.399   2.255  10.255  0.2323 -0.9747 -0.8241
27650SOL    HW286739   4.256   2.297  10.225 -0.2328 -1.8462  0.0893
27651SOL     OW86740   1.945   7.707   8.732  0.1197  0.5188  0.1615
27651SOL    HW186741   1.937   7.797   8.763  0.1771  0.6013 -0.0601
27651SOL    HW286742   1.892   7.704   8.652  0.3951  0.4474 -0.0198
27652SOL     OW86743   0.747   9.824   8.325  0.3204 -0.0521 -0.4382
27652SOL    HW186744   0.750   9.742   8.375 -0.6231  0.2809  0.1968
27652SOL    HW286745   0.744   9.892   8.392  2.5758  0.6031 -0.9411
27653SOL     OW86746   2.197   7.059   2.653  0.1801 -0.2317  0.2896
27653SOL    HW186747   2.153   7.049   2.737 -1.4789  0.7963 -0.4179
27653SOL    HW286748   2.288   7.036   2.671 -0.1278  0.0042  2.3733
27654SOL     OW86749   6.013   1.742   1.194  0.9627  0.3716  0.3898
27654SOL    HW186750   6.045   1.739   1.284  0.5053  0.5290  0.5593
27654SOL    HW286751   5.918   1.737   1.202  0.9308  0.0957 -0.1006
27655SOL     OW86752   3.766   7.040   9.964  0.2963  0.0813  0.0838
27655SOL    HW186753   3.821   6.988  10.023  1.8922  1.0191 -0.5259
27655SOL    HW286754   3.689   7.062  10.016  0.6185 -1.0026  1.0636
27656SOL     OW86755   1.656   6.002   7.492  0.2747  0.0991  0.1459
27656SOL    HW186756   1.561   5.992   7.486  0.1665  0.8413  0.4468
27656SOL    HW286757   1.690   5.947   7.422 -0.3895  0.0025 -0.1113
27657SOL     OW86758   4.231   6.950   5.155  0.4776 -0.3463 -0.2976
27657SOL    HW186759   4.283   7.019   5.114  2.7961 -0.2527  2.5492
27657SOL    HW286760   4.281   6.870   5.140 -0.2279 -0.8143 -0.2357
27658SOL     OW86761   8.470   9.831   2.538 -0.1765 -0.5976 -0.1316
27658SOL    HW186762   8.405   9.809   2.472 -1.7274  1.3543  0.6605
27658SOL    HW286763   8.496   9.921   2.518  1.6546 -1.0184  0.1250
27659SOL     OW86764   9.047   6.293   2.154  0.7305  0.3068 -0.2691
27659SOL    HW186765   9.086   6.370   2.112  1.6660  0.9247  1.5764
27659SOL    HW286766   8.953   6.311   2.156  0.6289  0.1480 -2.1985
27660SOL     OW86767   5.163   4.706   5.773  0.0422 -0.4801  0.2992
27660SOL    HW186768   5.076   4.710   5.735 -0.5662 -3.0787  1.2205
27660SOL    HW286769   5.215   4.656   5.710 -0.0637 -1.8368  1.2480
27661SOL     OW86770   1.731   1.150   4.486 -0.3985  0.2457 -0.1434
27661SOL    HW186771   1.726   1.158   4.391 -0.4545 -0.2584 -0.1829
27661SOL    HW286772   1.668   1.215   4.518 -0.6751  0.1369 -0.4573
27662SOL     OW86773   6.890   1.908   1.235 -0.2760 -0.0373  0.0164
27662SOL    HW186774   6.967   1.875   1.189  0.3000  0.9177  0.2752
27662SOL    HW286775   6.833   1.939   1.165  0.2196  0.6142 -0.1014
27663SOL     OW86776   2.271   0.966   3.307 -0.3226  0.5538 -0.2145
27663SOL    HW186777   2.356   0.924   3.317  0.8890  3.1685  1.5875
27663SOL    HW286778   2.273   1.003   3.219 -1.2341 -2.4878 -1.6561
27664SOL     OW86779   9.718   5.633   2.070 -0.1620 -0.5002 -0.2390
27664SOL    HW186780   9.719   5.664   2.160 -1.2329  0.1403 -0.4268
27664SOL    HW286781   9.785   5.565   2.067  0.4005 -0.0138  0.8482
27665SOL     OW86782   4.315   6.471   1.820  0.6919 -0.5422  0.2125
27665SOL    HW186783   4.287   6.485   1.911 -0.4069 -1.6363  0.0785
27665SOL    HW286784   4.393   6.417   1.827  0.2315 -1.1846  0.5040
27666SOL     OW86785  10.293   7.672   4.130 -0.0452  0.1743 -0.1278
27666SOL    HW186786  10.286   7.692   4.037  2.5649  0.5283 -0.3162
27666SOL    HW286787  10.303   7.757   4.172 -1.2164  0.0179  0.5314
27667SOL     OW86788  10.054   3.370   7.213  0.4273 -0.0379  0.3306
27667SOL    HW186789  10.004   3.409   7.142 -0.0218 -0.3252  0.4872
27667SOL    HW286790  10.061   3.278   7.190  1.4060  0.1066  0.0089
27668SOL     OW86791   6.407   9.996   2.515  0.5773 -0.3716  0.3485
27668SOL    HW186792   6.371   9.927   2.459  0.1772  0.2471 -0.1678
27668SOL    HW286793   6.413   9.955   2.601  1.0326 -1.2828 -0.1024
27669SOL     OW86794   0.772   6.939   7.764 -0.2753 -0.2478  0.0464
27669SOL    HW186795   0.746   6.859   7.720 -0.5528  0.9556 -2.0810
27669SOL    HW286796   0.864   6.952   7.740 -0.6608  0.8526 -0.9161
27670SOL     OW86797  10.219   6.516  10.341  0.1162  0.0706 -0.0056
27670SOL    HW186798  10.158   6.570  10.390  0.1810 -0.3904  0.5841
27670SOL    HW286799  10.280   6.482  10.407  1.3780  0.9907 -0.6360
27671SOL     OW86800   7.186   7.825   2.420 -0.5895  0.4316  0.3273
27671SOL    HW186801   7.255   7.858   2.477 -0.3328  2.1658 -0.8973
27671SOL    HW286802   7.210   7.858   2.333 -2.0620 -0.3757 -0.4105
27672SOL     OW86803   2.808   7.945   4.036  0.1880 -0.0663 -0.2372
27672SOL    HW186804   2.884   7.985   4.078 -0.0696  0.9689 -0.7331
27672SOL    HW286805   2.841   7.913   3.952  0.0387  0.5853 -0.5512
27673SOL     OW86806   5.435   9.767   7.698  0.1777  0.8311  0.4718
27673SOL    HW186807   5.452   9.843   7.753  1.5995 -0.3243  1.7000
27673SOL    HW286808   5.354   9.789   7.652  0.1396  2.7517  1.3505
27674SOL     OW86809   9.318   0.689   3.084  0.6141  0.2040 -0.4188
27674SOL    HW186810   9.317   0.703   2.989  1.4787  0.0362 -0.4607
27674SOL    HW286811   9.234   0.722   3.114  0.6551  1.0017 -1.1412
27675SOL     OW86812   2.220   5.942   7.316 -0.2167 -0.9827  0.1002
27675SOL    HW186813   2.185   5.903   7.396  1.2605 -0.1722  1.1810
27675SOL    HW286814   2.211   5.873   7.250 -0.8586 -1.8997  1.1163
27676SOL     OW86815   9.777   9.508   9.078  0.4617  0.0091 -0.1413
27676SOL    HW186816   9.774   9.441   9.010 -0.2240  0.0023 -0.1139
27676SOL    HW286817   9.715   9.575   9.049  0.3612  0.1313  0.3400
27677SOL     OW86818   7.110   3.104   6.358  0.5949 -0.0011  0.1553
27677SOL    HW186819   7.138   3.185   6.401 -0.2295 -1.3023  3.3706
27677SOL    HW286820   7.190   3.052   6.350  0.6118 -0.1520  1.1530
27678SOL     OW86821   8.443   4.200   3.362  0.0587  0.2902 -0.6453
27678SOL    HW186822   8.430   4.168   3.451 -0.2312  1.5622 -0.2071
27678SOL    HW286823   8.531   4.237   3.362  0.5091 -0.7494 -1.2299
27679SOL     OW86824   0.140   1.764   0.070 -0.0520  0.4577  0.4056
27679SOL    HW186825   0.089   1.837   0.036  1.6100  0.5661 -2.1648
27679SOL    HW286826   0.211   1.753   0.007  2.3668 -0.5198  3.0463
27680SOL     OW86827   1.076   3.988   1.006 -0.2104 -0.0965  0.3944
27680SOL    HW186828   1.111   3.902   1.028 -1.0593 -0.6270 -0.2367
27680SOL    HW286829   1.029   3.974   0.924  0.3833  1.1689 -0.1933
27681SOL     OW86830   4.779   8.480   9.058  0.1386  0.2894  0.4811
27681SOL    HW186831   4.833   8.445   9.129  0.6642  0.3257  0.0974
27681SOL    HW286832   4.695   8.498   9.100 -0.3365 -1.9195  0.6037
27682SOL     OW86833   7.944   3.835   2.110  0.0211  0.2140  0.0578
27682SOL    HW186834   7.950   3.811   2.203 -1.0791  0.9423  0.3374
27682SOL    HW286835   7.851   3.835   2.091  0.0740  2.2794 -0.4343
27683SOL     OW86836   4.055   7.401   5.047  0.2580  0.0284  0.2435
27683SOL    HW186837   4.010   7.436   5.124 -0.2707 -1.4267  0.6375
27683SOL    HW286838   3.985   7.363   4.994  0.6398  0.8365 -0.8830
27684SOL     OW86839   0.149   7.942   3.778 -0.2570  0.2650  0.8917
27684SOL    HW186840   0.097   7.862   3.779 -0.7585  0.5957  1.4462
27684SOL    HW286841   0.210   7.933   3.851  1.1582 -0.5499 -0.3161
27685SOL     OW86842   0.381   6.673   4.752  0.3485  0.5945  0.1275
27685SOL    HW186843   0.392   6.680   4.658 -0.5955  0.2379 -0.0235
27685SOL    HW286844   0.407   6.759   4.786  2.2748  0.2131 -0.2617
27686SOL     OW86845   7.275   4.194   4.090 -0.2035 -0.3471 -0.0583
27686SOL    HW186846   7.353   4.147   4.121 -1.5808 -2.3429  0.5818
27686SOL    HW286847   7.223   4.210   4.169 -0.0418  1.8877 -0.3253
27687SOL     OW86848   3.542   5.840   3.035  0.1585 -0.2316  0.4597
27687SOL    HW186849   3.622   5.847   3.087  0.4246  0.7182 -0.0659
27687SOL    HW286850   3.558   5.893   2.958 -0.5872 -0.8790 -0.1587
27688SOL     OW86851   7.043   2.941   2.026  0.3441 -0.4389 -0.4048
27688SOL    HW186852   7.066   2.849   2.016  0.7400 -0.6941  2.1128
27688SOL    HW286853   6.959   2.939   2.073  0.9463  0.4370  0.7610
27689SOL     OW86854   2.940   5.534   7.010 -0.0034 -0.1075 -0.0123
27689SOL    HW186855   2.907   5.455   6.966 -0.3916 -0.8203  1.5177
27689SOL    HW286856   2.865   5.566   7.060  0.9052 -0.3160  1.5167
27690SOL     OW86857   8.595   7.429   1.304 -0.1569 -0.4811  0.2068
27690SOL    HW186858   8.542   7.504   1.330  0.3279  0.0068 -0.1902
27690SOL    HW286859   8.533   7.365   1.270 -0.5765 -0.2872  0.5983
27691SOL     OW86860   9.388   1.258   3.323 -0.3781  0.5916 -0.3275
27691SOL    HW186861   9.383   1.227   3.232  1.5139 -1.0520  0.0592
27691SOL    HW286862   9.296   1.265   3.350 -0.9659  0.0621 -2.0308
27692SOL     OW86863   1.466   2.265   7.024  0.0429 -0.0185  0.3310
27692SOL    HW186864   1.438   2.198   6.962  1.7563  0.2853 -0.8313
27692SOL    HW286865   1.519   2.325   6.972 -2.3834  2.9861  1.0223
27693SOL     OW86866   7.623   0.165   3.314 -0.1370 -0.1586  0.5647
27693SOL    HW186867   7.675   0.245   3.321 -1.1400  0.7998 -1.9252
27693SOL    HW286868   7.555   0.174   3.381 -0.9032  1.6552 -0.3970
27694SOL     OW86869   8.268   5.577   2.280 -0.0124 -0.1061 -0.3134
27694SOL    HW186870   8.207   5.628   2.333 -0.3055 -0.4915 -0.2699
27694SOL    HW286871   8.252   5.486   2.306  1.1486 -0.1560  0.2871
27695SOL     OW86872   9.344   7.544   1.587 -0.1201  0.1877 -0.1951
27695SOL    HW186873   9.382   7.576   1.506 -0.4961  0.3745 -0.2995
27695SOL    HW286874   9.344   7.620   1.646 -2.8992  1.0040 -1.1040
27696SOL     OW86875   3.435   4.817   2.419 -0.7347  0.0607 -0.4491
27696SOL    HW186876   3.488   4.861   2.353 -0.4014 -0.3306 -0.4467
27696SOL    HW286877   3.458   4.859   2.502 -0.1569 -0.3554 -0.3980
27697SOL     OW86878   7.688   5.417   2.991 -0.3146 -0.7238 -0.3037
27697SOL    HW186879   7.638   5.421   3.072 -1.9823 -1.9696 -1.2084
27697SOL    HW286880   7.729   5.331   2.992  0.1923 -0.4835 -0.4792
27698SOL     OW86881   3.811   4.685   8.491 -0.1208 -0.3544  0.0556
27698SOL    HW186882   3.901   4.681   8.521 -0.5370  0.2907  1.4942
27698SOL    HW286883   3.806   4.766   8.441  0.4258 -1.1250 -1.3097
27699SOL     OW86884   8.123   1.048   4.268  0.0671  0.4127 -0.7587
27699SOL    HW186885   8.205   1.031   4.313  0.1267  2.4622  0.0407
27699SOL    HW286886   8.126   0.994   4.190  1.5586 -0.5679 -0.0651
27700SOL     OW86887  10.241   7.460   4.826  0.0752 -0.2778  0.0707
27700SOL    HW186888  10.195   7.379   4.803 -2.0456  0.5068  1.3859
27700SOL    HW286889  10.296   7.478   4.749 -0.1504 -2.4145 -0.6552
27701SOL     OW86890   3.936   6.519   9.718  0.1875  0.2313  0.3220
27701SOL    HW186891   3.899   6.581   9.782  0.0828  0.7425 -0.2206
27701SOL    HW286892   3.997   6.466   9.768 -0.4284  0.1488  0.9959
27702SOL     OW86893   5.882   4.060   9.611  0.0616 -0.0221 -0.0579
27702SOL    HW186894   5.857   4.051   9.703  1.6014 -0.6782  0.3357
27702SOL    HW286895   5.831   3.993   9.565  1.8062 -2.1040  0.8901
27703SOL     OW86896   1.137   5.919   1.068 -0.0208 -0.1915 -0.1534
27703SOL    HW186897   1.188   5.842   1.094  0.5328  0.4043  0.5532
27703SOL    HW286898   1.089   5.943   1.147  0.2448  0.5327 -0.2142
27704SOL     OW86899   3.504   9.134   9.673  0.1665  0.0648 -0.3495
27704SOL    HW186900   3.442   9.061   9.680 -1.7469  1.6715  0.4201
27704SOL    HW286901   3.538   9.145   9.761 -0.2588  0.6666 -0.2563
27705SOL     OW86902   6.966   3.545   1.905  0.1740 -0.2331 -0.8075
27705SOL    HW186903   6.957   3.618   1.843  0.2900  1.1551  0.7263
27705SOL    HW286904   7.058   3.519   1.898  0.3049  0.2294 -0.8746
27706SOL     OW86905   2.336   5.016   5.106 -0.1134 -0.6381  0.3089
27706SOL    HW186906   2.313   4.926   5.128 -3.5252  0.0138  0.0876
27706SOL    HW286907   2.288   5.033   5.024  2.4031  0.6926 -1.0122
27707SOL     OW86908   2.438   7.292   4.998 -0.0173 -0.0030  0.2105
27707SOL    HW186909   2.344   7.274   5.000  0.1779 -1.0975  0.2649
27707SOL    HW286910   2.476   7.228   5.059  0.5408  1.9070  2.0052
27708SOL     OW86911   6.384   8.625   4.090  0.2315 -0.8486  0.4807
27708SOL    HW186912   6.350   8.583   4.169 -0.5463 -1.0299  0.0624
27708SOL    HW286913   6.348   8.572   4.019 -2.2528  1.4993 -0.1672
27709SOL     OW86914   0.246   5.841   8.164  0.2929 -0.2827 -0.6549
27709SOL    HW186915   0.299   5.811   8.238 -0.6239  0.2572  0.2559
27709SOL    HW286916   0.304   5.900   8.116  0.3103  0.9808  0.8096
27710SOL     OW86917   1.992   1.578   1.093 -0.0828  0.4877  0.2820
27710SOL    HW186918   1.902   1.611   1.101 -0.4067 -0.3120  0.0099
27710SOL    HW286919   1.982   1.492   1.052  0.7014 -0.2174  1.5283
27711SOL     OW86920   6.070   6.783   4.509  1.0571  0.2861  0.5235
27711SOL    HW186921   6.008   6.844   4.550  0.4976  0.2644 -0.2807
27711SOL    HW286922   6.015   6.722   4.460  1.7214  0.4370 -0.4347
27712SOL     OW86923   1.203   0.984   2.945 -0.1083 -0.5290 -0.0176
27712SOL    HW186924   1.288   1.022   2.925 -0.7060  0.7759 -0.1709
27712SOL    HW286925   1.221   0.891   2.960  1.4721 -0.0929  0.9421
27713SOL     OW86926   0.885   5.874   5.920 -0.2946 -0.5923 -0.2135
27713SOL    HW186927   0.881   5.967   5.896 -1.1266 -0.6730 -0.3929
27713SOL    HW286928   0.974   5.863   5.954 -0.5474  0.5442  0.9112
27714SOL     OW86929   7.444   0.011   2.741 -0.3084  0.5345  0.0850
27714SOL    HW186930   7.367   0.065   2.755  0.5088  2.0223 -0.9246
27714SOL    HW286931   7.422  -0.043   2.665  0.1991  2.1513 -1.2745
27715SOL     OW86932   1.585   2.307   2.258 -0.1239 -0.3037 -0.0873
27715SOL    HW186933   1.603   2.378   2.196 -0.8667  1.4344  1.5854
27715SOL    HW286934   1.495   2.279   2.238 -1.1207  1.6159  1.3603
27716SOL     OW86935  10.338   7.049   1.086  0.0013 -0.9239  0.1330
27716SOL    HW186936  10.417   7.058   1.139  0.9724  2.6214 -1.5742
27716SOL    HW286937  10.370   7.033   0.998 -1.0594  0.9209 -0.6553
27717SOL     OW86938   6.412   3.425   5.833  0.7922 -0.2420  0.0063
27717SOL    HW186939   6.458   3.500   5.871 -0.4091 -0.4752  2.0196
27717SOL    HW286940   6.322   3.434   5.862 -0.0428 -0.9507 -2.1255
27718SOL     OW86941   0.961   1.876   2.443  0.7748  0.2422  0.2639
27718SOL    HW186942   0.951   1.921   2.359 -0.4986 -1.4808 -0.5627
27718SOL    HW286943   1.055   1.881   2.461  1.3056 -0.5211 -1.9675
27719SOL     OW86944   1.624   6.731   9.288 -0.4658  0.0769  0.1279
27719SOL    HW186945   1.656   6.662   9.346 -0.0219  0.4953  0.3766
27719SOL    HW286946   1.703   6.776   9.258 -0.8131  1.0347  0.6439
27720SOL     OW86947   0.682   8.909   3.288 -0.5120 -0.2423  0.2759
27720SOL    HW186948   0.659   8.994   3.325 -0.7805 -0.7069  1.1866
27720SOL    HW286949   0.605   8.883   3.237  0.0542  0.6355 -1.0971
27721SOL     OW86950   5.401   9.363   9.488 -0.5590 -0.3586  0.1298
27721SOL    HW186951   5.321   9.312   9.474  0.1311 -1.7578  1.0050
27721SOL    HW286952   5.427   9.342   9.577 -0.6180  2.1629  0.7933
27722SOL     OW86953   0.556   0.489   0.223  0.0678  0.0475  0.0982
27722SOL    HW186954   0.641   0.534   0.228  0.3310 -0.5363  1.3898
27722SOL    HW286955   0.526   0.486   0.314 -1.1557 -0.1251 -0.2958
27723SOL     OW86956   6.794   2.886   7.987  0.0168  0.1217  0.2123
27723SOL    HW186957   6.718   2.853   7.940 -0.7501  0.9526  0.8112
27723SOL    HW286958   6.775   2.868   8.079  0.5828  0.2701  0.3657
27724SOL     OW86959   4.967   0.881   2.105  0.1020  0.1877  0.8648
27724SOL    HW186960   4.932   0.968   2.086  0.0761  0.2464  1.1717
27724SOL    HW286961   4.960   0.833   2.023  1.8452  1.0594  0.1461
27725SOL     OW86962   9.488   3.117   9.836  0.3517 -0.0420 -0.8128
27725SOL    HW186963   9.522   3.207   9.832 -0.5701  0.3125 -1.0649
27725SOL    HW286964   9.535   3.071   9.767  0.0611  0.5457 -1.4288
27726SOL     OW86965   5.963   3.942   4.238  0.3560  0.2466  0.2142
27726SOL    HW186966   5.909   4.021   4.241  0.1829  0.2700 -1.8886
27726SOL    HW286967   6.020   3.954   4.162  2.9376 -0.0736  1.9609
27727SOL     OW86968   1.911   2.635   8.066  0.4330 -0.4914  0.2402
27727SOL    HW186969   1.894   2.602   8.154  1.2774  0.4266  0.7755
27727SOL    HW286970   1.839   2.602   8.013 -0.4272 -0.5337  1.4092
27728SOL     OW86971   6.941   3.624   2.724 -0.2386  0.0258  0.1920
27728SOL    HW186972   6.942   3.700   2.781 -0.4808 -0.9150  1.5167
27728SOL    HW286973   6.983   3.652   2.643 -2.4680  2.2656 -0.3135
27729SOL     OW86974   3.101   0.950  10.275 -0.3115  0.4798 -0.6479
27729SOL    HW186975   3.016   0.967  10.235 -1.8188 -2.1520  1.1531
27729SOL    HW286976   3.085   0.955  10.369  0.5405 -3.4187 -0.1152
27730SOL     OW86977   5.870   9.945   2.876 -0.3042 -0.3947 -0.0979
27730SOL    HW186978   5.931   9.894   2.822 -0.1957 -0.4051  0.0361
27730SOL    HW286979   5.789   9.946   2.824 -0.4199 -1.0055  0.0604
27731SOL     OW86980   9.746   3.976   0.222 -0.1730 -0.1933  0.6228
27731SOL    HW186981   9.816   3.958   0.159 -1.5395 -0.9133 -0.7528
27731SOL    HW286982   9.785   4.038   0.284  1.3009  0.3287 -0.7683
27732SOL     OW86983   6.531   2.357   1.897 -0.5513  0.1771 -0.3314
27732SOL    HW186984   6.553   2.440   1.854  0.0195  0.6889  0.9032
27732SOL    HW286985   6.436   2.356   1.899 -0.5969  0.1356 -1.5905
27733SOL     OW86986   3.485   9.122   0.503 -0.2012 -0.3627 -0.5010
27733SOL    HW186987   3.544   9.135   0.429  1.2282  1.2998  0.8497
27733SOL    HW286988   3.446   9.036   0.488  0.9127 -0.5561 -2.5681
27734SOL     OW86989   9.247   3.223   4.124  0.2678  0.3221  1.0324
27734SOL    HW186990   9.311   3.163   4.162  0.9977  0.1146 -0.4496
27734SOL    HW286991   9.163   3.194   4.159  0.7309 -0.8810  1.1836
27735SOL     OW86992   9.957  10.290   5.935  0.9754 -0.3401  0.5314
27735SOL    HW186993   9.903  10.331   5.867  2.3966 -0.3779 -0.6659
27735SOL    HW286994  10.001  10.364   5.978  0.8964 -0.3910  0.7010
27736SOL     OW86995   1.909   4.362   0.877  0.3544  0.2888 -0.6522
27736SOL    HW186996   1.916   4.330   0.787 -2.0323  0.7898 -1.1011
27736SOL    HW286997   1.980   4.319   0.924  1.8829  0.2773 -2.8363
27737SOL     OW86998   8.568   8.336   6.359  0.4656  0.0746  0.5741
27737SOL    HW186999   8.506   8.317   6.429 -0.3158 -1.3461 -0.4563
27737SOL    HW287000   8.516   8.333   6.279  1.6207  0.1544 -0.2031
27738SOL     OW87001   4.555   4.249   6.921  0.4527  0.0659 -0.2318
27738SOL    HW187002   4.532   4.173   6.868  0.4567 -0.9824  1.2059
27738SOL    HW287003   4.518   4.323   6.873  0.1325 -0.8631 -1.4916
27739SOL     OW87004   2.676   5.885   9.102  0.5869  0.3337  0.2271
27739SOL    HW187005   2.631   5.952   9.050  1.2650  0.3257 -0.3821
27739SOL    HW287006   2.715   5.826   9.037 -0.3633 -0.9237  0.7402
27740SOL     OW87007   0.761   9.866   7.707 -0.2222  0.4569 -0.0626
27740SOL    HW187008   0.794   9.915   7.782 -0.6384  0.7196 -0.0461
27740SOL    HW287009   0.676   9.832   7.735  0.4711 -1.0908  0.2599
27741SOL     OW87010   0.670   6.917   8.977  0.1596 -0.4527  0.5133
27741SOL    HW187011   0.590   6.967   8.992  1.5260  1.8072  0.8721
27741SOL    HW287012   0.698   6.890   9.065 -0.5142 -1.8142  0.3298
27742SOL     OW87013   2.266   3.827   5.348  0.1968  0.4380  0.4221
27742SOL    HW187014   2.206   3.789   5.284  0.8639  0.4997 -0.2520
27742SOL    HW287015   2.347   3.778   5.337  1.5303  2.7995 -1.4131
27743SOL     OW87016   6.307   6.277   0.987 -0.4831 -0.3777  0.5092
27743SOL    HW187017   6.383   6.235   1.028  0.1304 -0.4479 -0.6466
27743SOL    HW287018   6.232   6.232   1.024  0.1436 -2.3255 -0.4628
27744SOL     OW87019   6.901   1.841   6.056 -0.1522 -0.0136 -0.2191
27744SOL    HW187020   6.824   1.882   6.017 -0.2345 -1.1515 -1.3007
27744SOL    HW287021   6.956   1.818   5.982  0.3993 -0.8405  0.4300
27745SOL     OW87022   5.706   5.626   2.739  0.1479  0.4850 -0.0503
27745SOL    HW187023   5.792   5.636   2.699  0.0404 -1.6784 -0.9672
27745SOL    HW287024   5.647   5.677   2.684  0.8158  2.1118  0.6763
27746SOL     OW87025   2.735   3.647   1.157  0.2422 -0.3892 -0.3689
27746SOL    HW187026   2.737   3.670   1.250  0.6109 -0.3119 -0.3974
27746SOL    HW287027   2.655   3.689   1.125  1.3272  1.6508 -0.6109
27747SOL     OW87028   4.680   1.773   8.448 -0.1627  0.2524 -0.3609
27747SOL    HW187029   4.760   1.732   8.414 -0.3368 -0.5473  0.1436
27747SOL    HW287030   4.698   1.786   8.541 -0.3514  0.7350 -0.3928
27748SOL     OW87031   4.690   9.939   3.353  0.1444 -0.0709 -0.1074
27748SOL    HW187032   4.668  10.021   3.309  1.4442 -0.2076 -1.0578
27748SOL    HW287033   4.614   9.882   3.337 -0.3138  0.5908 -0.3300
27749SOL     OW87034  10.236   3.300   7.611 -0.0952 -0.6199  0.6577
27749SOL    HW187035  10.158   3.354   7.603  0.1235 -0.5448 -1.4168
27749SOL    HW287036  10.270   3.321   7.698 -0.7382  1.6154  0.4451
27750SOL     OW87037   6.199   5.446   0.911 -0.0029 -0.6817  0.0012
27750SOL    HW187038   6.210   5.376   0.847  1.7744 -0.1954 -0.2923
27750SOL    HW287039   6.142   5.509   0.869 -0.7682 -1.4547 -0.1443
27751SOL     OW87040   3.490   8.641   9.859 -0.2974  0.7022  0.0158
27751SOL    HW187041   3.579   8.611   9.878  0.3340  3.1934  1.4543
27751SOL    HW287042   3.462   8.589   9.784  2.3961 -0.1041 -0.5173
27752SOL     OW87043   0.616   9.282   3.672  0.2075  0.1058 -0.5225
27752SOL    HW187044   0.574   9.307   3.755  1.2241 -0.6136  0.2218
27752SOL    HW287045   0.647   9.365   3.636 -0.4085  0.4512 -0.2933
27753SOL     OW87046   1.204   0.746   9.421  0.4274  0.0893  0.8007
27753SOL    HW187047   1.142   0.678   9.447 -1.0891  1.0293 -0.1704
27753SOL    HW287048   1.171   0.826   9.462  1.6633  0.4278  1.1862
27754SOL     OW87049   8.417   0.355   4.515 -0.5324  0.4153 -0.3889
27754SOL    HW187050   8.376   0.269   4.525  1.7826 -0.7354 -0.2225
27754SOL    HW287051   8.467   0.349   4.434  1.6786  0.6807  0.8799
27755SOL     OW87052   0.514   7.373   8.632  0.2413 -0.4908 -0.0281
27755SOL    HW187053   0.440   7.312   8.634  0.3113 -0.5638  0.3276
27755SOL    HW287054   0.589   7.319   8.609  0.3633 -0.6057  0.6170
27756SOL     OW87055   4.678   2.119   5.605 -0.4440  0.1961 -0.5777
27756SOL    HW187056   4.596   2.168   5.592  0.3516  1.4467 -1.0585
27756SOL    HW287057   4.702   2.135   5.696 -0.8849 -0.4455 -0.3376
27757SOL     OW87058   2.515   3.515   0.473 -0.0625 -0.2331 -0.7170
27757SOL    HW187059   2.442   3.513   0.412 -1.4078  1.7984  0.6836
27757SOL    HW287060   2.527   3.608   0.494 -0.0606 -0.8312  2.4812
27758SOL     OW87061  10.081   4.538   6.182 -0.2620  0.1018 -0.6447
27758SOL    HW187062  10.124   4.463   6.222 -1.0305  0.0025  0.0184
27758SOL    HW287063  10.118   4.543   6.094 -2.3227 -2.9318 -1.8685
27759SOL     OW87064   7.523   1.089   2.681  0.1897  0.3108 -0.0522
27759SOL    HW187065   7.603   1.140   2.670  0.4927 -0.2205 -0.3372
27759SOL    HW287066   7.537   1.039   2.761  1.1382 -1.5587 -1.3181
27760SOL     OW87067   5.064   1.853   0.344 -0.4553  0.6199  0.4184
27760SOL    HW187068   5.136   1.804   0.384 -0.6664  0.3115  0.4302
27760SOL    HW287069   4.987   1.797   0.358 -0.7305  1.0370  0.5826
27761SOL     OW87070   0.237   1.234   8.145  0.4614 -0.5473 -0.1386
27761SOL    HW187071   0.155   1.259   8.103  0.3092  0.2732  0.6115
27761SOL    HW287072   0.243   1.140   8.133 -1.2785 -0.8327  0.9594
27762SOL     OW87073   2.004   5.074   3.085 -0.2052 -0.0697 -0.0340
27762SOL    HW187074   2.084   5.125   3.070 -1.3236  1.7354 -0.1286
27762SOL    HW287075   2.034   4.994   3.128  1.7211  0.2221 -0.7307
27763SOL     OW87076   5.379   6.377   9.215 -0.8287 -0.6948  0.2582
27763SOL    HW187077   5.440   6.358   9.286  1.3733 -0.7665 -1.5604
27763SOL    HW287078   5.344   6.464   9.236  2.5333  0.9625 -0.2780
27764SOL     OW87079   7.097   4.000   3.740  0.1681 -0.5038 -0.0190
27764SOL    HW187080   7.061   4.071   3.793  0.4268  0.4699 -1.1080
27764SOL    HW287081   7.157   3.953   3.799  0.2029  0.3585  0.6364
27765SOL     OW87082   0.536   8.982   8.819 -0.5199 -0.1987 -0.1813
27765SOL    HW187083   0.583   8.922   8.761  0.3355 -0.3247  0.6120
27765SOL    HW287084   0.485   8.925   8.876  0.6656 -0.2464  0.8941
27766SOL     OW87085   2.812   3.103   0.247 -0.1773 -0.5031  0.0260
27766SOL    HW187086   2.758   3.178   0.272  1.2477  0.4830  0.2677
27766SOL    HW287087   2.784   3.033   0.305  0.0870  0.5392  1.4826
27767SOL     OW87088   7.119   0.149   9.395  0.4171  0.0827  0.1164
27767SOL    HW187089   7.082   0.181   9.312  0.5580  0.7530  0.3080
27767SOL    HW287090   7.051   0.092   9.431 -0.1348  0.7195  0.1097
27768SOL     OW87091   9.053   9.277   6.107  0.6974  0.3765  0.3067
27768SOL    HW187092   9.074   9.229   6.187 -2.5257 -0.3482  0.8583
27768SOL    HW287093   8.980   9.334   6.132  0.7188  1.3671 -1.7336
27769SOL     OW87094   7.091   8.622   9.500  0.6563  0.4755 -0.2768
27769SOL    HW187095   7.117   8.694   9.442 -0.5037  1.3848  0.2825
27769SOL    HW287096   7.010   8.653   9.542 -1.8687 -2.4691 -2.5218
27770SOL     OW87097   2.444   5.137   4.495  0.1126 -0.0509  0.4245
27770SOL    HW187098   2.369   5.079   4.488 -0.8702  1.2664 -0.6827
27770SOL    HW287099   2.467   5.156   4.404  1.1868  0.3077  0.7602
27771SOL     OW87100   8.140   7.168   4.759  0.3964  0.0904 -0.5623
27771SOL    HW187101   8.189   7.148   4.839 -0.1273  0.2743 -0.1883
27771SOL    HW287102   8.195   7.135   4.688  1.1674  0.5009 -0.1669
27772SOL     OW87103   3.161   9.045   2.351 -0.4423  0.6016  0.0798
27772SOL    HW187104   3.189   9.125   2.306  0.9677  1.7183  2.7713
27772SOL    HW287105   3.165   8.977   2.283  2.7622  1.9513 -1.2624
27773SOL     OW87106   0.094   9.296   8.133 -0.3083 -0.1598 -0.0550
27773SOL    HW187107   0.001   9.278   8.117 -0.5270 -0.1268  1.1290
27773SOL    HW287108   0.140   9.237   8.072 -1.0933  0.2540 -1.0762
27774SOL     OW87109   3.105   3.221   4.884 -0.6630 -0.2826  0.0961
27774SOL    HW187110   3.061   3.165   4.820 -0.6624  0.0370 -0.1921
27774SOL    HW287111   3.158   3.161   4.936  1.6511 -0.2991 -2.0737
27775SOL     OW87112  10.097   4.305   1.016 -0.2675  0.0441  0.3380
27775SOL    HW187113  10.006   4.284   0.993 -0.4995 -0.0701  1.3319
27775SOL    HW287114  10.139   4.220   1.027 -0.0746  0.0994  0.0629
27776SOL     OW87115   1.074   4.420   8.077  0.3216 -0.4989 -0.0900
27776SOL    HW187116   0.992   4.467   8.092  0.3826 -0.0272 -1.1340
27776SOL    HW287117   1.142   4.477   8.115  0.6216  1.3365 -3.0600
27777SOL     OW87118   1.750  10.246   9.982  0.1340 -0.3429  0.1073
27777SOL    HW187119   1.673  10.192  10.000  1.2222 -1.3516  1.9846
27777SOL    HW287120   1.725  10.297   9.904 -2.6847 -0.0891  1.0434
27778SOL     OW87121   4.033   3.431   1.709  0.0696  0.3951 -0.4091
27778SOL    HW187122   3.967   3.500   1.714 -0.1115  0.1310  1.0018
27778SOL    HW287123   4.109   3.467   1.754  0.5234  0.2725 -1.0641
27779SOL     OW87124   4.681   4.327   0.186  0.0770  0.0393  0.5879
27779SOL    HW187125   4.653   4.264   0.120  2.5963 -0.8059  0.2311
27779SOL    HW287126   4.723   4.397   0.137 -1.4408  1.3494  1.0868
27780SOL     OW87127   6.384   4.179   4.478  0.4130 -0.0352  0.3294
27780SOL    HW187128   6.450   4.151   4.541 -0.7489 -1.6251  0.9053
27780SOL    HW287129   6.432   4.190   4.396  1.3087 -1.8696  0.5637
27781SOL     OW87130   1.807   1.907   5.150  0.3812 -0.3067 -0.0351
27781SOL    HW187131   1.864   1.927   5.224  0.6446 -0.3322 -0.2286
27781SOL    HW287132   1.776   1.993   5.121  0.3321 -0.2913  0.0623
27782SOL     OW87133   4.012   7.366   1.752  0.0153 -0.2215 -0.2900
27782SOL    HW187134   3.945   7.357   1.684  2.5180  1.3342 -3.2215
27782SOL    HW287135   3.998   7.455   1.787  1.0732  0.5014 -1.6237
27783SOL     OW87136   0.544   1.647   4.145 -0.2937  0.0506 -0.8204
27783SOL    HW187137   0.565   1.558   4.175 -0.6979  0.2711  0.1226
27783SOL    HW287138   0.487   1.633   4.069 -2.2073 -0.5205  0.6374
27784SOL     OW87139   6.409   1.299   4.645 -0.4651  0.0809 -0.3073
27784SOL    HW187140   6.354   1.234   4.601 -1.0157  0.3727 -0.0597
27784SOL    HW287141   6.355   1.378   4.650  0.2935  0.6412 -0.8296
27785SOL     OW87142   4.576   6.836   1.294  0.1807  0.1791  0.0268
27785SOL    HW187143   4.509   6.797   1.350  0.3544  0.4313  0.4072
27785SOL    HW287144   4.569   6.930   1.309  0.0777  0.2674 -0.5441
27786SOL     OW87145  10.161   9.767   6.056  0.1366 -0.3261 -0.2413
27786SOL    HW187146  10.158   9.863   6.057  0.2843 -0.3110  1.6031
27786SOL    HW287147  10.117   9.743   5.974 -0.0246  1.3009 -0.6758
27787SOL     OW87148   2.496   6.077   4.725  0.1960 -0.4037  0.1823
27787SOL    HW187149   2.514   6.153   4.780  0.3364 -0.9211  0.8613
27787SOL    HW287150   2.408   6.092   4.692  0.5545  0.4860 -0.4183
27788SOL     OW87151   1.030   1.216   6.792 -0.3440 -0.3716 -0.0672
27788SOL    HW187152   1.028   1.232   6.697 -1.7591 -0.8048 -0.1226
27788SOL    HW287153   0.939   1.199   6.816 -0.3460  1.7848  1.7475
27789SOL     OW87154   2.541   6.125   9.825  0.0693  0.0359 -0.4112
27789SOL    HW187155   2.447   6.129   9.842  0.2569  1.8189  0.4525
27789SOL    HW287156   2.549   6.146   9.732 -0.3853 -0.2471 -0.5185
27790SOL     OW87157   2.332   7.810   5.066  0.0555  0.2481 -0.8983
27790SOL    HW187158   2.243   7.812   5.101 -1.0167 -1.9085 -3.1709
27790SOL    HW287159   2.378   7.748   5.121 -0.6960 -0.7455 -1.3596
27791SOL     OW87160   6.451   9.490   9.542  0.0918 -0.1239  0.2540
27791SOL    HW187161   6.510   9.523   9.474  0.3554 -0.3891  0.3548
27791SOL    HW287162   6.393   9.564   9.562  0.0126 -0.0455 -0.2593
27792SOL     OW87163   5.694   2.071   9.178  0.2572  0.2997 -0.5804
27792SOL    HW187164   5.651   1.986   9.187  0.6651  0.2264  1.0954
27792SOL    HW287165   5.628   2.128   9.138 -0.1905 -0.6603 -1.2305
27793SOL     OW87166   3.450   9.108   3.216 -0.2583 -0.5667  0.5024
27793SOL    HW187167   3.414   9.124   3.303 -1.1457 -3.0951  0.6866
27793SOL    HW287168   3.411   9.175   3.160 -1.5164 -0.3421  1.6124
27794SOL     OW87169   3.326   1.841   2.291 -0.1504 -0.1827 -0.2449
27794SOL    HW187170   3.347   1.747   2.293  0.1307 -0.1135  1.3830
27794SOL    HW287171   3.404   1.882   2.254 -0.0849 -0.5427 -0.5152
27795SOL     OW87172  10.320   6.506   7.902 -0.0662 -0.3215 -0.6688
27795SOL    HW187173  10.317   6.457   7.984 -2.9409 -0.8673 -0.9785
27795SOL    HW287174  10.367   6.449   7.841  2.1918  0.1345  0.5323
27796SOL     OW87175   7.022   2.760   5.489 -0.3190 -0.5557  0.1096
27796SOL    HW187176   6.959   2.689   5.479 -2.3094  0.6502  3.0284
27796SOL    HW287177   7.063   2.745   5.574 -0.6207  1.6216  0.6977
27797SOL     OW87178   8.795   1.435   4.004 -0.1689 -0.0757  0.3307
27797SOL    HW187179   8.720   1.406   3.951  1.1602 -1.3435 -0.9451
27797SOL    HW287180   8.787   1.530   4.007 -0.8159 -0.0412 -1.3937
27798SOL     OW87181   4.190   2.759   5.595 -0.0493 -0.4413 -0.1400
27798SOL    HW187182   4.231   2.839   5.564  0.2643 -0.4292  0.2998
27798SOL    HW287183   4.225   2.746   5.683  0.1197 -1.2133 -0.3122
27799SOL     OW87184   1.547   0.764   1.880 -0.1546 -0.1622  0.3149
27799SOL    HW187185   1.539   0.671   1.856 -1.1103 -0.2175  0.8248
27799SOL    HW287186   1.625   0.767   1.935 -0.4358 -0.7637  0.7616
27800SOL     OW87187   6.525   8.134   6.929 -0.0003  0.3878 -0.1215
27800SOL    HW187188   6.488   8.088   7.005  0.7590  0.3759  0.2534
27800SOL    HW287189   6.511   8.227   6.948 -0.8669  0.3444 -0.5268
27801SOL     OW87190   3.691   0.048   7.181  0.1960  0.3064  0.3464
27801SOL    HW187191   3.661   0.064   7.092  0.4338 -2.3506 -0.2898
27801SOL    HW287192   3.682   0.132   7.225 -1.8909  1.2061 -1.6089
27802SOL     OW87193   6.351   6.949   2.326  0.1737  0.1588 -0.4381
27802SOL    HW187194   6.438   6.920   2.298  0.9054  0.7332  1.1617
27802SOL    HW287195   6.351   7.043   2.310 -0.5388  0.0315 -1.3293
27803SOL     OW87196  10.149   2.507   0.367  1.1223 -0.1056 -0.4511
27803SOL    HW187197  10.056   2.523   0.380  1.3126 -1.4498  4.5827
27803SOL    HW287198  10.152   2.427   0.314 -0.6151 -0.3291 -0.2710
27804SOL     OW87199   3.928   0.036   1.925 -1.2123  0.8375  0.1639
27804SOL    HW187200   3.921   0.067   1.834 -3.2190 -1.2630 -0.4809
27804SOL    HW287201   4.013   0.069   1.954  0.5018 -0.1651 -3.1791
27805SOL     OW87202   0.407   8.977   5.141  0.1737  0.2299  0.1848
27805SOL    HW187203   0.433   9.069   5.142 -1.9372  0.8598  0.1338
27805SOL    HW287204   0.486   8.931   5.114  1.4240  1.9569  0.7027
27806SOL     OW87205   4.673   4.557   5.269  0.2675 -0.5780  0.1165
27806SOL    HW187206   4.653   4.463   5.275  0.2471 -0.5682  0.2164
27806SOL    HW287207   4.610   4.598   5.329 -0.4331 -0.3971 -0.7220
27807SOL     OW87208   7.559   4.337   7.170  0.0673  0.9684  0.3017
27807SOL    HW187209   7.531   4.408   7.111  0.6844  1.9419  1.1359
27807SOL    HW287210   7.480   4.313   7.217 -0.7639 -0.7908 -1.8389
27808SOL     OW87211   9.314   4.527   4.001 -0.6641 -0.0874  0.0513
27808SOL    HW187212   9.390   4.583   3.986  0.6956 -1.4030  1.6121
27808SOL    HW287213   9.340   4.441   3.967 -0.6509 -1.0336  2.2829
27809SOL     OW87214   0.150   4.621   0.663 -0.2616  0.4536  0.0387
27809SOL    HW187215   0.102   4.542   0.641  1.8520 -0.5102 -1.4137
27809SOL    HW287216   0.126   4.640   0.754 -0.2302 -2.3100  0.7022
27810SOL     OW87217   3.223   1.489   2.586  0.2604  0.0243 -0.4047
27810SOL    HW187218   3.279   1.556   2.626 -0.9661  0.0138  1.4247
27810SOL    HW287219   3.263   1.406   2.613  0.1963  0.0160 -0.3362
27811SOL     OW87220   5.102   1.155   6.181 -0.0980  0.6467  0.0213
27811SOL    HW187221   5.171   1.105   6.137 -1.1834 -0.4463 -0.5083
27811SOL    HW287222   5.131   1.163   6.271  1.0729  0.8749 -0.3636
27812SOL     OW87223   7.231   3.559   2.650  0.2608  0.3221 -0.1473
27812SOL    HW187224   7.166   3.490   2.639 -0.1572  0.5908  0.5748
27812SOL    HW287225   7.246   3.564   2.745  0.4009  1.1130 -0.2012
27813SOL     OW87226  10.177   7.026   8.685  0.3012 -0.3193 -0.2795
27813SOL    HW187227  10.183   6.931   8.696  0.3489 -0.3233 -0.3435
27813SOL    HW287228  10.252   7.049   8.630  0.4985 -0.1928  0.0453
27814SOL     OW87229   3.318   0.012   0.076  0.0994 -0.4324 -0.7251
27814SOL    HW187230   3.294  -0.068   0.124  2.3471 -1.0364 -0.4644
27814SOL    HW287231   3.241   0.067   0.081 -1.4595 -2.4773 -0.6810
27815SOL     OW87232   9.437   4.613   8.273  0.3829 -0.5320 -0.2350
27815SOL    HW187233   9.423   4.519   8.276 -0.6322 -0.4431 -1.3309
27815SOL    HW287234   9.350   4.650   8.286  0.5924  0.2215 -0.8863
27816SOL     OW87235   7.367   6.872   2.635 -0.2363 -0.3187  0.4084
27816SOL    HW187236   7.339   6.803   2.696 -0.4796  0.0328  0.6982
27816SOL    HW287237   7.307   6.864   2.561 -0.8179  0.1344  0.8227
27817SOL     OW87238   1.891   0.746   0.039 -0.2706  0.4726  0.5726
27817SOL    HW187239   1.908   0.704  -0.046  0.7851 -0.9117  1.4287
27817SOL    HW287240   1.915   0.838   0.025  1.6739 -0.1015 -0.1482
27818SOL     OW87241   8.842   7.280   0.442 -0.2239 -0.1509  0.2515
27818SOL    HW187242   8.806   7.245   0.524 -0.4047 -0.6825 -0.0535
27818SOL    HW287243   8.911   7.340   0.470  0.2381 -0.9165  0.7763
27819SOL     OW87244   4.069   2.760   2.340 -0.1966  0.4144  0.0330
27819SOL    HW187245   4.119   2.823   2.288 -0.4440  0.7063  0.1414
27819SOL    HW287246   4.085   2.676   2.298 -1.9841  0.8937 -1.8109
27820SOL     OW87247   4.332   9.626   3.066 -0.1165  0.4493 -0.3694
27820SOL    HW187248   4.412   9.667   3.034  0.0309  2.2775  2.0816
27820SOL    HW287249   4.338   9.631   3.161 -1.7570 -2.1998 -0.0316
27821SOL     OW87250   9.024   5.203   6.903  0.0959 -0.1504  0.1307
27821SOL    HW187251   8.938   5.191   6.862 -0.2615  1.4735  0.3333
27821SOL    HW287252   9.013   5.281   6.958  1.0368 -1.2930  2.0168
27822SOL     OW87253   3.932   2.627   1.893  0.5422 -0.3002 -0.1763
27822SOL    HW187254   4.007   2.684   1.909  0.4241  0.1834 -1.2682
27822SOL    HW287255   3.928   2.571   1.971  2.7795 -1.1741 -0.6073
27823SOL     OW87256   7.530   1.508   0.577  0.4696  0.1647  0.2370
27823SOL    HW187257   7.558   1.432   0.629  3.0316 -1.2915 -2.9094
27823SOL    HW287258   7.468   1.471   0.514 -0.9156  1.4457  0.8047
27824SOL     OW87259   0.914   6.781   8.428 -0.2594  0.9029 -0.3416
27824SOL    HW187260   0.861   6.769   8.350  0.6945  0.1392 -0.8973
27824SOL    HW287261   0.887   6.710   8.487 -0.8720  1.3896 -0.0225
27825SOL     OW87262   3.797   1.701   4.967  0.7208  0.3588  0.2505
27825SOL    HW187263   3.822   1.614   4.999  2.5125  0.9807  0.6562
27825SOL    HW287264   3.753   1.683   4.884  2.3800 -0.8817 -0.4267
27826SOL     OW87265   7.303  10.116   9.855 -0.1318  0.4102 -0.1623
27826SOL    HW187266   7.223  10.135   9.904  0.1443  0.2790  0.3473
27826SOL    HW287267   7.273  10.073   9.775 -0.4602 -1.6051  0.9796
27827SOL     OW87268   8.942   6.777   0.631 -0.1966 -0.2293  0.2349
27827SOL    HW187269   8.936   6.800   0.538 -0.7729 -1.0860  0.0453
27827SOL    HW287270   9.029   6.737   0.640 -1.0227 -2.3325 -0.4790
27828SOL     OW87271   3.244   4.706   7.136  0.4564  0.1248  0.2061
27828SOL    HW187272   3.174   4.693   7.200  1.0933 -0.5111  0.8059
27828SOL    HW287273   3.227   4.641   7.068 -0.5626  1.2011 -0.6004
27829SOL     OW87274   3.065  10.165   9.542  0.2633  0.2319  0.0001
27829SOL    HW187275   3.068  10.149   9.448 -2.7208  0.5154 -0.2348
27829SOL    HW287276   3.044  10.081   9.581  1.1060  0.1976  0.4080
27830SOL     OW87277   7.818   4.336   4.255  0.4250 -0.8009 -0.0049
27830SOL    HW187278   7.723   4.346   4.265  0.3681 -1.7563  0.5157
27830SOL    HW287279   7.841   4.397   4.185 -0.4033  0.2499  0.5990
27831SOL     OW87280   8.378   9.446   9.816  0.3270 -0.4618 -0.4655
27831SOL    HW187281   8.290   9.445   9.853  0.4873 -0.9105 -0.0914
27831SOL    HW287282   8.371   9.396   9.734  0.0793  0.1318 -0.8151
27832SOL     OW87283   3.128   4.792   5.773  0.1385  0.3580  0.2622
27832SOL    HW187284   3.060   4.807   5.839  1.2775  1.1970  1.2873
27832SOL    HW287285   3.203   4.843   5.804  1.2338 -0.5217 -0.8595
27833SOL     OW87286   8.141   7.048   6.807  0.2882 -0.5148  0.3012
27833SOL    HW187287   8.170   7.087   6.725  0.1728  0.6916  0.8094
27833SOL    HW287288   8.220   7.040   6.860  0.1620 -0.0453  0.5640
27834SOL     OW87289   3.520   8.408   0.774  0.1489  0.5148 -0.0862
27834SOL    HW187290   3.586   8.367   0.718 -0.3853  0.3045 -0.5632
27834SOL    HW287291   3.437   8.377   0.740 -0.2721  1.9994 -0.4655
27835SOL     OW87292   6.790   8.014   9.437  0.1379  0.0686 -0.2866
27835SOL    HW187293   6.838   7.963   9.372  2.3057  2.2294 -0.5369
27835SOL    HW287294   6.807   7.970   9.521  1.0520 -0.2115 -0.6177
27836SOL     OW87295   9.847   0.066   4.967  0.4714 -0.0047  0.0779
27836SOL    HW187296   9.761   0.056   4.925  0.3741 -1.4718  0.5584
27836SOL    HW287297   9.870   0.158   4.953 -0.2987 -0.0449 -1.7246
27837SOL     OW87298   8.789   8.161   5.531 -0.5656  0.5531 -0.0850
27837SOL    HW187299   8.797   8.198   5.443 -0.3466 -0.4534 -0.5048
27837SOL    HW287300   8.821   8.071   5.522 -1.9527 -0.0408  0.6999
27838SOL     OW87301   3.756   5.120   2.315  0.1147  0.2192  0.0149
27838SOL    HW187302   3.755   5.152   2.225  0.8808 -1.0311 -0.4744
27838SOL    HW287303   3.756   5.025   2.307  0.4707  0.0775  1.3307
27839SOL     OW87304   1.003   4.258   2.253  0.4054 -0.0502 -0.2377
27839SOL    HW187305   0.981   4.275   2.162 -0.6447 -0.1441 -0.0141
27839SOL    HW287306   0.924   4.219   2.290  0.9807 -0.4551  0.5953
27840SOL     OW87307   4.322   3.781   9.962 -0.4110 -0.2591  0.0912
27840SOL    HW187308   4.337   3.846  10.030 -2.6869  0.6870 -0.2303
27840SOL    HW287309   4.292   3.831   9.886  1.9064 -1.3059 -1.6476
27841SOL     OW87310   9.617   3.944   6.601 -0.7985 -0.1437  0.0793
27841SOL    HW187311   9.685   4.009   6.617 -0.9165  0.9635 -3.1384
27841SOL    HW287312   9.656   3.883   6.538 -1.8775 -1.1353  0.3251
27842SOL     OW87313   1.899   4.351   4.593 -0.0354  0.3907 -0.0599
27842SOL    HW187314   1.994   4.352   4.583 -0.1205 -2.5133 -2.9197
27842SOL    HW287315   1.870   4.433   4.552  1.2062  1.5882  1.3686
27843SOL     OW87316   2.293   6.122   4.251  0.2652 -1.0220 -0.3042
27843SOL    HW187317   2.284   6.031   4.223  0.3299 -1.7823  1.9103
27843SOL    HW287318   2.367   6.121   4.312 -0.3437  0.3084  0.5013
27844SOL     OW87319   2.109   2.807   0.390  0.0949 -0.9837  0.1113
27844SOL    HW187320   2.204   2.801   0.380  0.1065 -0.9336  0.1841
27844SOL    HW287321   2.088   2.740   0.455  0.0302 -1.2572 -0.1943
27845SOL     OW87322   5.440   8.622   0.039 -0.2011  0.0667  0.3323
27845SOL    HW187323   5.492   8.623   0.120 -1.6299  0.1084  1.2890
27845SOL    HW287324   5.391   8.704   0.041 -2.8657 -1.4073  1.2446
27846SOL     OW87325   0.154   8.017   8.343  0.1228 -0.4903  0.0930
27846SOL    HW187326   0.108   8.100   8.360 -0.1075 -0.6895  0.4419
27846SOL    HW287327   0.097   7.970   8.283 -1.5098 -1.9153  2.6108
27847SOL     OW87328   3.137   1.713   0.318  0.7410  0.5811  0.3124
27847SOL    HW187329   3.099   1.753   0.396 -0.3790 -0.4699  0.3295
27847SOL    HW287330   3.133   1.781   0.251 -0.6969  0.6760  0.4721
27848SOL     OW87331   0.065   0.691   1.321  0.2768  0.1696 -0.1005
27848SOL    HW187332   0.085   0.775   1.363  1.6786  0.5595 -1.4417
27848SOL    HW287333   0.067   0.710   1.227  0.1145 -1.2607 -0.4220
27849SOL     OW87334   3.815   7.130   8.351 -0.3614 -0.2043  0.1578
27849SOL    HW187335   3.873   7.142   8.276 -1.4514 -0.3837 -0.7312
27849SOL    HW287336   3.735   7.093   8.314 -1.3614  0.8194  1.2397
27850SOL     OW87337   4.044   2.137   9.928  0.6568 -0.1408  0.3324
27850SOL    HW187338   4.033   2.045   9.905 -0.7803  0.4365 -1.6611
27850SOL    HW287339   4.132   2.159   9.897  0.0110 -0.2384 -1.7248
27851SOL     OW87340   8.376   5.021   3.316  0.1993  0.2721  0.5110
27851SOL    HW187341   8.283   5.036   3.302  0.4321  1.4378  0.0500
27851SOL    HW287342   8.382   4.931   3.347 -1.0388  0.0516  0.1567
27852SOL     OW87343   5.242   9.964   3.284 -0.4256 -0.1681 -0.1830
27852SOL    HW187344   5.249   9.946   3.378 -1.7805 -0.5584 -0.1332
27852SOL    HW287345   5.243  10.060   3.278  1.7053 -0.1302  0.0147
27853SOL     OW87346   0.918   6.675   0.802  0.2020  0.0448 -0.3928
27853SOL    HW187347   0.898   6.664   0.709  1.9295 -0.8618 -0.7068
27853SOL    HW287348   1.010   6.704   0.804  1.3954 -3.2851  1.0293
27854SOL     OW87349   3.949   2.987   8.067 -0.2394 -0.3198  0.3680
27854SOL    HW187350   3.940   3.058   8.130  0.5294  0.1694 -0.0634
27854SOL    HW287351   3.919   3.024   7.984 -1.6438 -1.0828  0.4884
27855SOL     OW87352   1.829   1.365   9.453 -0.1728 -0.3607 -0.0517
27855SOL    HW187353   1.736   1.386   9.456 -0.3717 -0.4855 -2.9392
27855SOL    HW287354   1.873   1.445   9.482 -1.1492  0.3577 -0.5142
27856SOL     OW87355   9.524   7.949   2.895  0.5587 -0.4234 -0.2871
27856SOL    HW187356   9.550   8.015   2.831  0.5274 -0.7068 -0.5943
27856SOL    HW287357   9.566   7.868   2.865  0.9706 -0.4519  0.3355
27857SOL     OW87358   6.400   1.962   5.557 -0.0566  0.2453 -0.1594
27857SOL    HW187359   6.320   1.968   5.504  0.0019 -0.4659 -0.3368
27857SOL    HW287360   6.373   1.991   5.645 -1.2672 -2.7108  0.5553
27858SOL     OW87361  10.087   2.841   2.123 -0.3217  0.2185 -0.1060
27858SOL    HW187362  10.093   2.920   2.069  1.3403 -1.1994 -2.1208
27858SOL    HW287363  10.161   2.847   2.183 -0.5317  0.4544  0.1312
27859SOL     OW87364   0.346   8.097   8.522 -0.1753 -0.0499  0.5154
27859SOL    HW187365   0.392   8.165   8.472  0.1318  0.3929  1.3700
27859SOL    HW287366   0.284   8.059   8.460  1.2381 -0.5653 -0.6392
27860SOL     OW87367   9.024   2.572   8.395  0.5415  0.2081 -0.2840
27860SOL    HW187368   8.993   2.562   8.305  0.3820  0.7524 -0.2926
27860SOL    HW287369   8.978   2.649   8.428  1.9782  1.1333 -0.3450
27861SOL     OW87370   7.058   1.542   3.450  0.0094  0.1708 -0.1226
27861SOL    HW187371   6.970   1.554   3.486 -0.7332  2.1006 -2.3647
27861SOL    HW287372   7.066   1.608   3.381  2.8692 -0.5963 -0.6732
27862SOL     OW87373   4.406   4.416   5.880 -0.3975  0.0527 -0.0202
27862SOL    HW187374   4.354   4.337   5.864  2.4697 -2.0242  0.1361
27862SOL    HW287375   4.497   4.387   5.869  0.9049  2.7313  2.4861
27863SOL     OW87376   7.836   5.849   5.999  0.0306 -0.4311  0.5792
27863SOL    HW187377   7.868   5.805   6.077 -1.2474 -2.7507 -0.1216
27863SOL    HW287378   7.749   5.882   6.024 -0.6443 -1.7167 -0.0006
27864SOL     OW87379   5.125   2.190   6.934 -0.1142  0.0998  0.2930
27864SOL    HW187380   5.125   2.279   6.899  0.4033 -0.2051 -0.5047
27864SOL    HW287381   5.044   2.185   6.985  0.6066  1.5200  1.6676
27865SOL     OW87382   2.465  10.140   0.970  0.6172 -0.2106 -0.0696
27865SOL    HW187383   2.499  10.050   0.967  1.6252  0.1646 -0.3624
27865SOL    HW287384   2.426  10.152   0.883 -1.5533 -1.0929  0.7075
27866SOL     OW87385   9.831   0.037   9.332  0.8197  0.0312  0.0563
27866SOL    HW187386   9.892  -0.034   9.353  0.0560 -0.4498  0.6636
27866SOL    HW287387   9.748  -0.006   9.316  0.6214  0.6930 -0.7461
27867SOL     OW87388   1.599   6.918   7.240  0.4350  0.0770  0.1314
27867SOL    HW187389   1.525   6.881   7.287  0.0036  1.4086  0.5584
27867SOL    HW287390   1.640   6.978   7.303  1.5864 -0.2753 -0.2576
27868SOL     OW87391   8.077   7.777   7.303 -0.0305  0.6829  0.6312
27868SOL    HW187392   8.039   7.697   7.266 -1.9923  1.4643  0.8594
27868SOL    HW287393   8.159   7.789   7.255  0.5704 -1.7164  0.9310
27869SOL     OW87394   2.195   9.472   2.090  0.2248  0.2100 -0.1432
27869SOL    HW187395   2.222   9.514   2.171 -0.9553 -1.6369  1.2781
27869SOL    HW287396   2.103   9.496   2.079 -0.8314 -2.7085  1.3138
27870SOL     OW87397   9.694   9.699   5.277  0.3419  0.7119 -0.1160
27870SOL    HW187398   9.774   9.752   5.278  0.5057  0.4720 -0.4717
27870SOL    HW287399   9.625   9.760   5.249  0.3736  0.9485  0.3048
27871SOL     OW87400   6.307   6.479   6.908 -0.2010 -0.2031  0.0791
27871SOL    HW187401   6.392   6.450   6.877  0.1604  1.6416 -0.8199
27871SOL    HW287402   6.289   6.559   6.858 -2.3128 -0.3614  0.4725
27872SOL     OW87403   4.890   4.820   7.207  0.2436 -0.5210  0.5333
27872SOL    HW187404   4.912   4.762   7.134 -0.7476  0.1223 -0.2958
27872SOL    HW287405   4.836   4.765   7.265 -4.1142  0.4646 -2.1394
27873SOL     OW87406   0.261   2.985   9.104  0.6850 -0.1582  0.3134
27873SOL    HW187407   0.323   3.056   9.087 -0.6466  0.7840 -0.8203
27873SOL    HW287408   0.229   3.002   9.193 -1.1028  1.9304 -0.6271
27874SOL     OW87409   6.551   7.001   9.522  0.3068 -0.6988  0.6341
27874SOL    HW187410   6.588   7.036   9.441 -2.5022 -1.2760 -1.0373
27874SOL    HW287411   6.548   7.075   9.582  0.8495  0.1704 -0.3921
27875SOL     OW87412   1.990   2.338   4.931 -0.4912 -0.0045  0.5534
27875SOL    HW187413   2.053   2.357   5.001  0.6522  1.5708 -0.8369
27875SOL    HW287414   1.907   2.374   4.963  0.0785  0.9574  0.9876
27876SOL     OW87415   2.906   1.528   3.769 -0.6275 -0.0356  0.0089
27876SOL    HW187416   2.839   1.492   3.711 -0.3856 -0.1166 -0.2227
27876SOL    HW287417   2.943   1.601   3.719 -1.4966  0.9022  0.6916
27877SOL     OW87418   6.346   3.845   5.606 -1.1305  0.0528  0.0703
27877SOL    HW187419   6.355   3.861   5.699  0.2003  0.5241 -0.1200
27877SOL    HW287420   6.376   3.754   5.594 -1.7671 -0.1741  0.1575
27878SOL     OW87421   3.071   8.785   3.990  0.6241  0.2581  0.0671
27878SOL    HW187422   3.142   8.724   3.971  1.0804  1.0505 -0.8674
27878SOL    HW287423   3.113   8.870   3.996 -0.3449  0.9110 -1.5955
27879SOL     OW87424   1.089   0.201   8.838  0.1751 -0.1328 -0.7039
27879SOL    HW187425   1.032   0.190   8.762  2.4345 -0.2444 -2.5086
27879SOL    HW287426   1.141   0.279   8.817  1.1977 -0.4647  0.4809
27880SOL     OW87427   5.723   2.812   0.070  0.4531  0.0584  0.2540
27880SOL    HW187428   5.781   2.737   0.085  0.4246 -0.2998 -1.2413
27880SOL    HW287429   5.694   2.802  -0.021  0.9133  2.1877 -0.1968
27881SOL     OW87430   2.487   0.809   5.475 -0.0873 -0.4076  0.1355
27881SOL    HW187431   2.537   0.851   5.404 -0.6011  2.1722  1.1896
27881SOL    HW287432   2.409   0.774   5.432  0.2503 -0.0785 -0.7723
27882SOL     OW87433   8.403   3.205   1.960  0.5060 -0.2743  0.3764
27882SOL    HW187434   8.459   3.250   2.023  0.5648 -1.9872  1.6274
27882SOL    HW287435   8.325   3.260   1.953  1.5791  1.2336 -0.0214
27883SOL     OW87436   7.040   5.518   0.918 -0.0706  0.2462  0.0566
27883SOL    HW187437   7.094   5.457   0.967 -2.3844 -0.0908  2.3900
27883SOL    HW287438   7.009   5.467   0.843  1.9881  0.1790 -0.8086
27884SOL     OW87439   6.044   4.848   8.852 -0.2761 -0.0464 -0.5774
27884SOL    HW187440   6.114   4.788   8.876  1.8440  2.7266  0.6379
27884SOL    HW287441   6.060   4.868   8.760 -0.5267 -0.7067 -0.7710
27885SOL     OW87442   9.929   0.221   7.506 -0.5461  0.4398  0.1068
27885SOL    HW187443   9.984   0.156   7.549  1.4053  0.6322 -1.8846
27885SOL    HW287444   9.965   0.306   7.533  1.1979  0.5689 -2.2461
27886SOL     OW87445   0.837   8.994   5.996  0.0459 -0.3644 -0.4488
27886SOL    HW187446   0.863   9.067   5.939  0.7554 -1.7442 -1.9762
27886SOL    HW287447   0.741   9.001   6.000  0.2194  1.9481  1.3141
27887SOL     OW87448   7.481   2.429   8.468 -0.8015  0.1378 -0.0196
27887SOL    HW187449   7.476   2.486   8.544  0.8804 -1.8904  1.7161
27887SOL    HW287450   7.530   2.353   8.498 -2.6592 -2.1166 -2.3057
27888SOL     OW87451   7.624   0.538  10.087 -0.0252  1.0106 -0.2240
27888SOL    HW187452   7.656   0.527   9.997  1.2776 -0.8354  0.3927
27888SOL    HW287453   7.529   0.540  10.078  0.0852  1.0689 -1.6626
27889SOL     OW87454   2.718   8.841   5.665  0.8464  0.0526 -0.5482
27889SOL    HW187455   2.802   8.860   5.623  0.9217 -0.0171 -0.4321
27889SOL    HW287456   2.660   8.817   5.593  1.3392 -1.3937 -0.5146
27890SOL     OW87457   1.214   9.187   4.984 -0.2274 -0.3854 -0.2872
27890SOL    HW187458   1.296   9.147   4.957  1.1164  1.6890  0.4619
27890SOL    HW287459   1.229   9.213   5.075 -2.2168 -1.1345  0.3248
27891SOL     OW87460   1.095   7.481   0.232 -1.0520 -0.2683 -0.5737
27891SOL    HW187461   1.184   7.449   0.245 -1.0406 -0.2191 -0.5292
27891SOL    HW287462   1.040   7.402   0.241 -1.0562 -0.2133 -0.0713
27892SOL     OW87463   2.303   3.080   2.532  0.4713  0.5375 -0.0188
27892SOL    HW187464   2.252   3.146   2.485  0.4700  0.8067  0.3563
27892SOL    HW287465   2.364   3.131   2.586 -0.6315  0.2844  1.5295
27893SOL     OW87466   8.459   3.397   2.841 -1.0869  0.1188  0.1409
27893SOL    HW187467   8.534   3.350   2.806 -1.4038  0.7577 -1.5163
27893SOL    HW287468   8.383   3.356   2.800 -1.8855 -1.6240  3.0455
27894SOL     OW87469   4.234   4.543   2.519  0.3020 -0.6466  0.4906
27894SOL    HW187470   4.289   4.541   2.598  0.4139  1.7680  0.5693
27894SOL    HW287471   4.145   4.532   2.551  0.3511  0.2643  0.9765
27895SOL     OW87472   7.893   8.836   0.311  0.0903 -0.2081  0.2890
27895SOL    HW187473   7.900   8.783   0.391 -1.7054 -0.3335  0.3960
27895SOL    HW287474   7.833   8.786   0.255  0.4254  0.4541 -0.6738
27896SOL     OW87475   6.430   4.492   4.409  0.8700 -0.0984 -0.2019
27896SOL    HW187476   6.414   4.476   4.502  2.0008  0.5919  0.1413
27896SOL    HW287477   6.511   4.544   4.408 -0.7450  2.6280 -1.3712
27897SOL     OW87478   2.998   7.477   8.691  0.0350 -0.2460 -0.5897
27897SOL    HW187479   3.025   7.477   8.783 -1.6638 -0.8260 -0.0665
27897SOL    HW287480   3.027   7.563   8.659 -0.1455  0.3490  0.7385
27898SOL     OW87481   3.732   0.788   4.881  0.8796  0.0811 -0.0540
27898SOL    HW187482   3.779   0.869   4.864  0.3595  0.4877  0.3995
27898SOL    HW287483   3.643   0.804   4.848  0.4372  0.1417  1.1056
27899SOL     OW87484   9.983   7.723   3.484 -0.0273  0.2119 -0.3362
27899SOL    HW187485  10.024   7.649   3.441  1.1320  0.8293 -0.3419
27899SOL    HW287486   9.906   7.744   3.429  0.1065 -0.4581 -0.7844
27900SOL     OW87487   7.022   5.780   8.732 -0.4983 -0.0319 -0.0793
27900SOL    HW187488   7.026   5.841   8.659  0.5311 -0.0046 -0.0150
27900SOL    HW287489   7.100   5.726   8.722 -0.4281 -0.1289  0.9119
27901SOL     OW87490   7.581   3.199   0.233 -0.1242 -0.0176  0.8816
27901SOL    HW187491   7.553   3.286   0.204 -1.0249 -0.6970 -0.3343
27901SOL    HW287492   7.521   3.138   0.191 -0.3022 -1.1928  2.7058
27902SOL     OW87493   8.955   2.673   8.730  0.0915 -0.3884  0.0729
27902SOL    HW187494   8.888   2.681   8.662 -1.5592 -0.6712  1.5994
27902SOL    HW287495   8.973   2.579   8.734 -1.1217 -0.6100  1.1701
27903SOL     OW87496   2.997   9.508   8.641  0.0822 -0.1449 -0.9063
27903SOL    HW187497   3.005   9.415   8.664 -3.1080 -0.2366  0.3857
27903SOL    HW287498   2.942   9.545   8.710  1.3554  2.8031 -1.2970
27904SOL     OW87499   4.946   0.824   0.657 -0.2311 -0.2944  0.2003
27904SOL    HW187500   4.919   0.895   0.599  0.8852  0.3402  0.4294
27904SOL    HW287501   4.964   0.867   0.741 -0.5867 -1.0187  0.6684
27905SOL     OW87502   9.366   3.461   7.306 -0.1983 -0.1261  0.3662
27905SOL    HW187503   9.331   3.386   7.258  0.1218  0.3089 -0.5510
27905SOL    HW287504   9.389   3.525   7.239  0.6008  0.3486  1.0717
27906SOL     OW87505   4.160   1.408   3.851 -0.0653 -0.0882  0.0044
27906SOL    HW187506   4.142   1.437   3.762  1.0959 -0.4073 -0.3501
27906SOL    HW287507   4.125   1.319   3.855  0.5833 -0.3660 -0.3891
27907SOL     OW87508   8.554   6.757   3.596  0.4095 -0.0902  0.2411
27907SOL    HW187509   8.487   6.805   3.644  0.1775  1.8097 -1.8138
27907SOL    HW287510   8.595   6.823   3.540  1.0535 -2.0211 -1.7027
27908SOL     OW87511   8.490   6.384   8.384 -0.9503 -0.2099 -0.0947
27908SOL    HW187512   8.483   6.351   8.294  0.3065  1.3436 -0.8207
27908SOL    HW287513   8.527   6.311   8.434  2.3156  0.1384 -1.7464
27909SOL     OW87514   5.814   6.336   3.734  0.8817 -0.1293  0.0846
27909SOL    HW187515   5.881   6.274   3.704  0.4579 -1.3348  1.5072
27909SOL    HW287516   5.802   6.396   3.660  0.4468 -2.4710 -1.8946
27910SOL     OW87517   2.159   4.604   3.155  0.5856  0.1377 -0.5195
27910SOL    HW187518   2.139   4.697   3.169 -0.1106 -0.1632  0.6495
27910SOL    HW287519   2.075   4.560   3.165  0.7231 -0.5384 -2.0937
27911SOL     OW87520   1.766  10.104   6.424  0.2847 -0.0703 -0.0441
27911SOL    HW187521   1.704  10.117   6.352 -0.7448 -0.3319  0.7789
27911SOL    HW287522   1.742  10.170   6.489  0.1429 -0.8836  0.7555
27912SOL     OW87523   9.382   1.777   9.112 -0.0398  0.3303 -0.0066
27912SOL    HW187524   9.433   1.824   9.046  1.0348 -2.1570 -1.0289
27912SOL    HW287525   9.340   1.705   9.064 -2.0281  0.4524  1.4167
27913SOL     OW87526   0.886   1.142   4.205  0.4083  0.6144 -0.0386
27913SOL    HW187527   0.820   1.081   4.175  1.7117 -0.9010  0.0431
27913SOL    HW287528   0.838   1.222   4.225 -1.4141 -0.5047  0.2539
27914SOL     OW87529   8.935   8.359   3.720  0.3764 -0.1819  0.1292
27914SOL    HW187530   8.869   8.341   3.786  1.8323 -2.8196  1.0027
27914SOL    HW287531   8.961   8.450   3.737 -1.6097  0.2734  1.0007
27915SOL     OW87532   9.716   4.988   8.934  0.2835  0.0176 -0.1043
27915SOL    HW187533   9.697   5.023   8.847  2.0220  3.6719  0.7816
27915SOL    HW287534   9.655   5.032   8.993  0.0180 -1.3994  0.7523
27916SOL     OW87535   9.598   2.718   6.132  0.0583  0.5336 -0.2346
27916SOL    HW187536   9.590   2.680   6.044 -0.3441  0.1004 -0.0143
27916SOL    HW287537   9.682   2.686   6.165  0.3521  0.9384 -0.5687
27917SOL     OW87538   4.317   5.623   2.376  0.1889  0.2283  0.3256
27917SOL    HW187539   4.397   5.650   2.331 -0.8527  1.3331 -0.9508
27917SOL    HW287540   4.263   5.583   2.308 -0.4643 -0.2485  1.1038
27918SOL     OW87541   0.753   2.845   1.731 -0.4930 -0.0850 -0.0572
27918SOL    HW187542   0.773   2.752   1.740  0.9430  0.3301  1.6521
27918SOL    HW287543   0.785   2.869   1.644  0.6906 -0.8531  0.1443
27919SOL     OW87544   0.347   2.324   1.942  0.7183  0.1905  0.3036
27919SOL    HW187545   0.282   2.339   2.010  0.2842  0.9598 -0.2569
27919SOL    HW287546   0.331   2.234   1.913 -3.1495  1.5423 -2.8217
27920SOL     OW87547   8.448   1.119   7.634 -0.6032 -0.1818 -0.1142
27920SOL    HW187548   8.375   1.155   7.584  0.0699 -1.0455 -1.7851
27920SOL    HW287549   8.516   1.186   7.629 -0.4176 -0.4095 -0.6525
27921SOL     OW87550   1.082   7.856   7.459 -0.8000  0.1148  0.1841
27921SOL    HW187551   1.118   7.775   7.422 -1.4288 -0.3031  0.4628
27921SOL    HW287552   1.131   7.926   7.416  0.8906 -0.4351  1.1329
27922SOL     OW87553   9.149   4.458   4.569 -0.5241 -0.0058  0.2805
27922SOL    HW187554   9.164   4.472   4.475  0.2127 -1.9266  0.0848
27922SOL    HW287555   9.053   4.456   4.577 -0.6026  0.6659 -0.3384
27923SOL     OW87556   6.405   5.886   2.435  0.1344  0.3208  0.6132
27923SOL    HW187557   6.416   5.917   2.525 -3.9640  0.9015  1.1030
27923SOL    HW287558   6.400   5.965   2.382 -0.4990  0.1220  0.3642
27924SOL     OW87559   5.464   5.622   0.940 -0.0743  0.5610 -0.1486
27924SOL    HW187560   5.424   5.536   0.934 -2.6652  1.7694 -1.5048
27924SOL    HW287561   5.546   5.614   0.891  0.4698 -1.4483  0.9695
27925SOL     OW87562   0.773   1.713   8.380  0.5257  0.4647 -0.0670
27925SOL    HW187563   0.791   1.785   8.320  0.4483  1.2889  0.8648
27925SOL    HW287564   0.782   1.752   8.467 -0.0228 -0.5307  0.4528
27926SOL     OW87565   3.015   0.469   5.490  0.4349  0.0686  0.0033
27926SOL    HW187566   3.096   0.461   5.540  0.6765  0.3079 -0.3479
27926SOL    HW287567   2.969   0.386   5.506 -0.4201  0.8974  2.2202
27927SOL     OW87568   7.428   5.356  10.105  0.1135 -0.3466  0.4693
27927SOL    HW187569   7.405   5.448  10.120 -0.1971  0.0688 -1.9991
27927SOL    HW287570   7.411   5.313  10.188 -0.3572  1.7176  1.5130
27928SOL     OW87571   0.206   0.355   3.347 -0.2561 -0.2071 -0.8299
27928SOL    HW187572   0.127   0.347   3.402 -0.2740  1.3727 -0.5747
27928SOL    HW287573   0.250   0.271   3.356 -1.2043 -0.6278  0.1527
27929SOL     OW87574   8.177   1.450   5.711  0.1020  0.4506  0.1428
27929SOL    HW187575   8.189   1.470   5.804 -0.1804  2.5365 -0.2280
27929SOL    HW287576   8.082   1.440   5.701  0.2041 -0.7808  0.2349
27930SOL     OW87577   5.782   0.098   0.929 -0.4309  1.3957  0.0671
27930SOL    HW187578   5.857   0.056   0.888  0.2632  3.4458 -0.8899
27930SOL    HW287579   5.721   0.026   0.947  0.0327  0.1318 -2.8352
27931SOL     OW87580  10.299   9.043   3.490  1.0397 -0.2684 -0.5457
27931SOL    HW187581  10.242   9.029   3.566  1.6930  2.1459  0.4585
27931SOL    HW287582  10.264   9.121   3.448  2.1193 -0.2205 -1.3925
27932SOL     OW87583   8.665   2.480   0.774  0.0829  0.0472  0.3831
27932SOL    HW187584   8.728   2.416   0.806  0.3419 -1.0133 -2.0593
27932SOL    HW287585   8.621   2.512   0.854  1.2438 -1.7683  1.8337
27933SOL     OW87586   3.874   0.169   7.455 -0.3259 -0.0795 -0.5196
27933SOL    HW187587   3.788   0.198   7.424  0.0990  0.2436 -1.4226
27933SOL    HW287588   3.860   0.078   7.479 -0.5429 -0.5815 -2.3476
27934SOL     OW87589   0.747   1.632   9.177  0.1641  0.1248 -0.2495
27934SOL    HW187590   0.811   1.562   9.187  2.4270  1.7370 -2.1690
27934SOL    HW287591   0.788   1.708   9.218 -1.2155  0.8797 -0.2099
27935SOL     OW87592   7.216   3.939   8.527  0.9186 -0.5010 -0.3028
27935SOL    HW187593   7.262   3.974   8.451 -1.3382 -0.6615 -1.8449
27935SOL    HW287594   7.233   3.844   8.524  0.0475 -0.6398 -1.2195
27936SOL     OW87595   7.786   1.532   6.264  0.1147  0.1538 -0.1391
27936SOL    HW187596   7.858   1.570   6.315 -0.3081  2.1679 -0.9448
27936SOL    HW287597   7.823   1.519   6.177  0.0925 -0.8442 -0.0114
27937SOL     OW87598   9.249   2.800   2.954  0.1387 -0.1114 -0.0837
27937SOL    HW187599   9.246   2.746   2.875  0.6574 -1.9603  1.0904
27937SOL    HW287600   9.245   2.890   2.922 -0.1189 -0.8108 -2.1726
27938SOL     OW87601   9.231   6.413   6.112  0.1303 -0.4670  0.0602
27938SOL    HW187602   9.176   6.371   6.046 -0.9103 -1.9566  1.7600
27938SOL    HW287603   9.230   6.351   6.185  2.1892  0.5692  1.0343
27939SOL     OW87604   0.764   2.557   1.676 -0.0192  0.6921  0.2860
27939SOL    HW187605   0.834   2.495   1.657 -1.2191 -0.7096  0.2789
27939SOL    HW287606   0.727   2.577   1.590 -0.3218  0.5744  0.3886
27940SOL     OW87607   2.562   2.330   7.583  0.6287  0.5893 -0.1736
27940SOL    HW187608   2.559   2.421   7.609 -1.7418  1.5233 -3.1161
27940SOL    HW287609   2.651   2.317   7.550  1.2751  1.5159  1.1345
27941SOL     OW87610   9.568   3.111   1.833 -0.1182  0.1830  0.1808
27941SOL    HW187611   9.585   3.196   1.792 -0.8253  0.6438  0.8060
27941SOL    HW287612   9.651   3.065   1.828  0.1644  0.7439 -0.5564
27942SOL     OW87613   7.285  10.326   6.262  0.1527  0.1897 -0.1245
27942SOL    HW187614   7.270  10.420   6.252  0.2078  0.1145 -0.9482
27942SOL    HW287615   7.358  10.306   6.204  1.1445 -0.0979  1.1780
27943SOL     OW87616   6.699   9.069   3.989 -0.8235  0.2333 -0.6396
27943SOL    HW187617   6.652   8.986   3.979  0.9123 -0.7470 -1.0885
27943SOL    HW287618   6.779   9.057   3.939  0.2812  1.5416  0.7177
27944SOL     OW87619   7.289   8.541   1.230 -0.6011 -0.0706  0.1101
27944SOL    HW187620   7.377   8.577   1.238 -0.6295  0.0604 -0.1657
27944SOL    HW287621   7.261   8.527   1.321 -1.1409  1.9778  0.3030
27945SOL     OW87622   6.355   7.992   8.145  0.3592 -0.0307  0.5712
27945SOL    HW187623   6.317   7.966   8.229 -1.7650 -0.1745 -0.3509
27945SOL    HW287624   6.327   8.083   8.133  0.7746  0.0357  0.0935
27946SOL     OW87625   4.204   5.365   5.762  0.3618 -0.1083  0.0492
27946SOL    HW187626   4.246   5.446   5.791 -0.3357 -0.5183  2.4204
27946SOL    HW287627   4.199   5.373   5.667  3.1810  1.2031 -0.0746
27947SOL     OW87628   2.221   0.177   4.834  0.4435  0.1020 -0.3953
27947SOL    HW187629   2.132   0.180   4.871  0.7799  0.8282  0.3896
27947SOL    HW287630   2.241   0.269   4.815  0.3433 -0.2206 -2.2967
27948SOL     OW87631   4.446  10.076   0.434 -0.0912 -0.6518 -0.1735
27948SOL    HW187632   4.457  10.105   0.343  1.1825  0.4856  0.3045
27948SOL    HW287633   4.430  10.156   0.483 -1.5306 -1.3334  0.5260
27949SOL     OW87634  10.043   3.369   5.195 -1.5215 -0.6850 -0.3303
27949SOL    HW187635   9.975   3.340   5.135 -0.2304  0.5254 -2.5221
27949SOL    HW287636  10.109   3.300   5.192 -1.3226 -0.4882 -0.5633
27950SOL     OW87637   3.121   7.347   4.475 -0.1879  0.1143  0.2430
27950SOL    HW187638   3.067   7.299   4.412 -0.0203  0.9929 -0.5984
27950SOL    HW287639   3.081   7.433   4.480  0.0513  0.1869  1.0301
27951SOL     OW87640   0.893   3.549   9.682  0.3837 -0.7025 -0.5059
27951SOL    HW187641   0.804   3.519   9.663  0.4117 -0.3423 -1.2399
27951SOL    HW287642   0.898   3.636   9.642  0.2119  0.4528  1.8121
27952SOL     OW87643   6.615   3.062   1.983  0.3698 -0.0429 -0.1179
27952SOL    HW187644   6.558   3.031   2.053  2.0800  0.1986  1.4267
27952SOL    HW287645   6.663   3.135   2.021  1.4496  0.0107 -1.4931
27953SOL     OW87646   1.782   1.095   5.295  0.4508  0.2033 -0.1206
27953SOL    HW187647   1.733   1.123   5.217  0.5800 -0.8369 -0.5895
27953SOL    HW287648   1.716   1.066   5.356  0.3506  0.9907  0.1637
27954SOL     OW87649   1.537   3.583   6.768 -0.5032  0.1288  0.1123
27954SOL    HW187650   1.508   3.526   6.697 -1.4511  0.4001  0.2604
27954SOL    HW287651   1.513   3.535   6.848  1.1108 -0.4523  0.2676
27955SOL     OW87652   6.456   4.713   5.031 -0.1730  0.0759  0.6895
27955SOL    HW187653   6.408   4.686   5.109 -0.0568 -2.6820 -0.0842
27955SOL    HW287654   6.403   4.682   4.957  1.3454 -0.4475 -0.2364
27956SOL     OW87655   0.247   9.256   4.835 -0.4394  0.0892  0.9261
27956SOL    HW187656   0.240   9.266   4.740  0.7034 -0.8162  0.7278
27956SOL    HW287657   0.199   9.175   4.855  0.8685 -0.7324  0.8531
27957SOL     OW87658   3.867   6.949   7.180 -0.0794  0.3645  0.0578
27957SOL    HW187659   3.884   6.881   7.246  0.3176 -0.6365 -1.0375
27957SOL    HW287660   3.932   7.017   7.199  2.0686 -1.2359 -1.0612
27958SOL     OW87661   3.112   2.868   5.246  0.3631 -0.4890  0.5516
27958SOL    HW187662   3.180   2.807   5.273  0.2183  0.0437  2.2016
27958SOL    HW287663   3.113   2.938   5.312 -1.0070  0.1230 -0.0159
27959SOL     OW87664   4.573   3.945   5.068 -0.3078  0.2520  0.0339
27959SOL    HW187665   4.605   4.028   5.103  0.0660  1.4869 -2.9863
27959SOL    HW287666   4.625   3.930   4.989 -1.9752 -1.6459 -0.7959
27960SOL     OW87667   1.011   1.518   2.756  0.0371 -0.3146 -0.1993
27960SOL    HW187668   1.056   1.603   2.764 -1.2716  0.2881  1.3535
27960SOL    HW287669   1.081   1.453   2.762  0.8491  0.6171  1.0146
27961SOL     OW87670   1.430   8.056   2.331  0.5907 -0.2100 -0.2274
27961SOL    HW187671   1.480   8.092   2.404  0.2367  1.4946 -0.7967
27961SOL    HW287672   1.367   7.996   2.373 -0.5257  1.7456  1.0523
27962SOL     OW87673   5.195   0.665   1.059 -0.2377  0.3040  0.5134
27962SOL    HW187674   5.188   0.655   1.153 -0.8446  0.8848  0.5403
27962SOL    HW287675   5.274   0.617   1.035 -0.3453 -0.2461  1.2480
27963SOL     OW87676   6.424   3.615   5.547  0.6386 -0.3567 -0.2355
27963SOL    HW187677   6.392   3.525   5.543 -0.1226 -0.0375 -2.2354
27963SOL    HW287678   6.510   3.608   5.590  0.3474 -1.9350  0.1565
27964SOL     OW87679   7.066   2.928   5.264 -0.1058 -0.8596  0.6757
27964SOL    HW187680   7.041   2.876   5.341 -0.4619  0.6330  1.6003
27964SOL    HW287681   7.088   3.014   5.299 -2.3785  0.5522 -1.0702
27965SOL     OW87682   4.727   5.716   0.761 -0.2443 -0.1510 -0.0237
27965SOL    HW187683   4.675   5.748   0.834 -0.8665  0.2835 -0.6393
27965SOL    HW287684   4.689   5.631   0.740  0.1620 -0.4372  0.3727
27966SOL     OW87685   3.496   9.999   8.026  0.2432  0.3426  0.1193
27966SOL    HW187686   3.559  10.009   7.955  1.5929  2.0878  1.4505
27966SOL    HW287687   3.423   9.952   7.987  1.7140 -0.4086 -1.9052
27967SOL     OW87688   0.549   4.049   4.441  0.2635  0.3745 -0.4555
27967SOL    HW187689   0.578   4.111   4.375  0.5830  0.4835 -0.2187
27967SOL    HW287690   0.608   3.974   4.431  1.1964  0.9311  0.5682
27968SOL     OW87691   9.840   1.809  10.120 -0.0490  0.0292  0.2226
27968SOL    HW187692   9.792   1.762  10.188  0.9527 -0.5521  0.5374
27968SOL    HW287693   9.927   1.822  10.156  1.4481 -2.7991 -1.9596
27969SOL     OW87694   7.273   5.742   8.473  0.3320 -0.2814 -0.1290
27969SOL    HW187695   7.255   5.655   8.438  1.9028 -1.0107  0.8324
27969SOL    HW287696   7.366   5.756   8.459  0.4634  0.5084  1.3566
27970SOL     OW87697   8.395   2.669   5.524  0.5005  0.0816 -0.1300
27970SOL    HW187698   8.384   2.608   5.450 -1.2336 -1.4938  1.3137
27970SOL    HW287699   8.387   2.756   5.485 -0.5905 -0.7034 -1.7843
27971SOL     OW87700   9.916   7.673   2.784 -0.1068 -0.5332  0.5446
27971SOL    HW187701   9.947   7.753   2.741 -2.1067 -0.4537 -0.8780
27971SOL    HW287702   9.994   7.618   2.792  0.7442  0.3051 -1.3225
27972SOL     OW87703   7.173   4.036   3.244  0.1864  0.1455 -0.2284
27972SOL    HW187704   7.215   4.026   3.159  1.7804 -2.3672  0.7279
27972SOL    HW287705   7.222   4.106   3.288  0.9761 -0.2267 -0.5007
27973SOL     OW87706   1.707   8.294   4.248  0.3919 -0.1745 -0.5002
27973SOL    HW187707   1.685   8.280   4.340  0.5518  0.1176 -0.4181
27973SOL    HW287708   1.799   8.272   4.242  0.4800  0.1921 -0.5086
27974SOL     OW87709   4.325   9.296   9.109 -0.0950  0.1008 -0.0559
27974SOL    HW187710   4.253   9.337   9.061  0.5050  0.1453 -0.9374
27974SOL    HW287711   4.372   9.245   9.044  1.8241  1.6275  0.0381
27975SOL     OW87712   0.521   5.799   9.413 -0.0479 -0.1601 -1.2065
27975SOL    HW187713   0.557   5.885   9.432 -0.0916  0.0963 -2.2262
27975SOL    HW287714   0.517   5.755   9.498  3.0979 -0.3768 -1.0605
27976SOL     OW87715   5.675   3.607   1.992  0.3884 -0.0953 -0.1143
27976SOL    HW187716   5.739   3.617   2.063  0.1395 -2.2285  0.4868
27976SOL    HW287717   5.592   3.595   2.038 -0.1000  0.4759 -0.8411
27977SOL     OW87718   1.377   1.043   4.353  0.0241  0.1378 -0.0924
27977SOL    HW187719   1.286   1.069   4.337  0.5773  1.3574 -1.5494
27977SOL    HW287720   1.372   0.949   4.369 -1.6310  0.3916  1.2822
27978SOL     OW87721   7.936   8.450   1.432 -0.2982 -0.4036 -0.2074
27978SOL    HW187722   7.955   8.397   1.354 -0.4602 -1.0583  0.1927
27978SOL    HW287723   8.021   8.487   1.456 -0.0918 -0.8483 -0.2314
27979SOL     OW87724   3.159   7.174   1.359  0.0448 -0.1642  0.9031
27979SOL    HW187725   3.223   7.112   1.324 -0.7681 -0.6000  0.1525
27979SOL    HW287726   3.074   7.130   1.348 -0.3993  0.4467  1.7830
27980SOL     OW87727   8.568   5.312  10.074 -0.0202  0.6147 -0.4317
27980SOL    HW187728   8.481   5.352  10.082 -0.2158  0.2432 -0.7072
27980SOL    HW287729   8.561   5.254   9.999 -0.5454 -2.0303  1.5327
27981SOL     OW87730   0.672   4.103  10.127  0.0455 -0.2045  0.0775
27981SOL    HW187731   0.698   4.010  10.128  1.9936  0.2891  0.5845
27981SOL    HW287732   0.655   4.123  10.219  0.8877  0.2505  0.1380
27982SOL     OW87733   9.537   2.261   9.590  0.0905 -0.1104  0.3294
27982SOL    HW187734   9.479   2.186   9.575  0.3282 -0.3299  0.5108
27982SOL    HW287735   9.481   2.326   9.632  0.1469 -0.5886  1.1681
27983SOL     OW87736   4.837   3.203   4.721 -0.5367  0.0018 -0.3988
27983SOL    HW187737   4.899   3.258   4.674 -2.0639  2.2600  0.0425
27983SOL    HW287738   4.793   3.152   4.652 -1.5557  1.9969 -1.2883
27984SOL     OW87739   5.646   2.962   4.235 -0.4913 -0.0563  0.6761
27984SOL    HW187740   5.647   2.870   4.209 -0.0596 -0.4771  2.0807
27984SOL    HW287741   5.661   2.960   4.330 -0.6360  1.4544  0.7513
27985SOL     OW87742   7.467   2.427   9.351  0.3252 -0.4414  0.0502
27985SOL    HW187743   7.381   2.466   9.369  1.5502  2.9668 -0.6875
27985SOL    HW287744   7.450   2.364   9.281 -1.6289 -0.1100  0.1772
27986SOL     OW87745   8.256   3.760   4.417  0.4332 -0.1577  0.0486
27986SOL    HW187746   8.265   3.702   4.492 -0.1817  0.7282  0.8296
27986SOL    HW287747   8.162   3.772   4.407  0.5569  1.6095  0.6392
27987SOL     OW87748   9.778   1.463   8.501 -0.1863  0.3740 -0.7481
27987SOL    HW187749   9.798   1.426   8.587 -1.4878  1.2736 -0.0108
27987SOL    HW287750   9.807   1.397   8.438 -1.3247 -1.3506  0.4603
27988SOL     OW87751   0.429   2.396   6.442 -0.0688  0.2323  0.1997
27988SOL    HW187752   0.476   2.477   6.461 -0.3124  0.4571 -0.1375
27988SOL    HW287753   0.347   2.404   6.491  0.6417 -0.5874  1.5641
27989SOL     OW87754   1.276   0.739   2.298  0.4876 -0.3072 -0.0902
27989SOL    HW187755   1.219   0.775   2.230 -2.2344 -0.5658  1.8905
27989SOL    HW287756   1.305   0.816   2.348  1.9045 -0.1821 -1.0560
27990SOL     OW87757   9.454   2.606   9.115 -0.5571  0.5656  0.4208
27990SOL    HW187758   9.393   2.659   9.064  1.1049  1.3132 -0.8909
27990SOL    HW287759   9.436   2.516   9.088  0.8198  0.9987 -2.2092
27991SOL     OW87760   6.595   1.375   8.224 -0.4497 -0.6190 -0.4472
27991SOL    HW187761   6.615   1.457   8.270 -0.6924 -1.0332  0.4147
27991SOL    HW287762   6.581   1.402   8.133 -0.5895  0.3059 -0.1678
27992SOL     OW87763   0.678  10.069   1.766  0.0626 -0.2528 -0.0083
27992SOL    HW187764   0.752  10.016   1.795  1.1187  1.2491  0.1880
27992SOL    HW287765   0.704  10.101   1.679 -0.8451 -0.5726 -0.4185
27993SOL     OW87766   4.869   0.966   6.091 -0.3389  0.1655 -0.4048
27993SOL    HW187767   4.954   1.009   6.084 -0.1560 -0.2011 -0.4762
27993SOL    HW287768   4.805   1.036   6.080 -0.0455  0.3370 -1.0359
27994SOL     OW87769   8.510   5.490   9.408  0.4953  0.1920 -0.1791
27994SOL    HW187770   8.418   5.490   9.381  0.2571 -0.5123  0.5822
27994SOL    HW287771   8.556   5.444   9.338  0.1871  0.0992 -0.3208
27995SOL     OW87772   3.632   3.620   0.224  0.0489  0.0531  0.1433
27995SOL    HW187773   3.707   3.604   0.166  0.8180  2.1955  0.4774
27995SOL    HW287774   3.662   3.591   0.310  0.4747  0.7951  0.2531
27996SOL     OW87775   3.911   6.477   2.734 -0.4286 -0.5040  0.1889
27996SOL    HW187776   3.906   6.568   2.704  2.7840 -0.1887  0.1895
27996SOL    HW287777   4.005   6.460   2.739 -0.8594 -2.7905  3.3869
27997SOL     OW87778   4.461   5.226   7.291 -0.5499 -0.4381 -0.1905
27997SOL    HW187779   4.445   5.203   7.383 -0.2153 -1.4646 -0.3833
27997SOL    HW287780   4.539   5.177   7.267 -0.0225  0.6230 -0.7362
27998SOL     OW87781   6.311   0.209   2.788  0.3616  0.2617  0.3712
27998SOL    HW187782   6.317   0.116   2.811  0.6650  0.7278  2.3694
27998SOL    HW287783   6.260   0.248   2.858 -0.4353  1.5064 -0.8534
27999SOL     OW87784   7.954   7.984   0.467  0.2875  0.2167  0.7142
27999SOL    HW187785   7.978   7.998   0.375 -0.9901  2.8508  0.6809
27999SOL    HW287786   8.031   7.943   0.506  1.3190  0.1449 -1.2705
28000SOL     OW87787   3.781   8.155   0.138  0.0799 -0.2239 -0.3213
28000SOL    HW187788   3.866   8.197   0.150  0.3134 -0.8928  0.4097
28000SOL    HW287789   3.758   8.173   0.046  0.6281  0.6389 -0.2937
28001SOL     OW87790   8.978   7.489   4.114 -0.6992  0.2850  0.7615
28001SOL    HW187791   9.058   7.539   4.128  0.0077 -0.8516  0.9814
28001SOL    HW287792   8.908   7.544   4.150 -0.2535  2.0120 -0.8952
28002SOL     OW87793   5.218   0.215   7.681  0.0714 -0.3777  0.2209
28002SOL    HW187794   5.309   0.233   7.705 -0.2123  1.6846 -0.0601
28002SOL    HW287795   5.176   0.301   7.681 -2.1423 -1.3919  1.3185
28003SOL     OW87796   8.833   6.041   6.638 -0.4655 -0.4883  0.3466
28003SOL    HW187797   8.807   6.099   6.709 -1.2058 -0.8223  0.3586
28003SOL    HW287798   8.751   6.011   6.600 -0.2271 -3.3381  1.7939
28004SOL     OW87799   6.851   7.891   4.783 -0.6085  0.6279 -0.2429
28004SOL    HW187800   6.866   7.803   4.747  2.1015 -0.1164  2.3044
28004SOL    HW287801   6.939   7.923   4.805 -1.6312  3.4933  0.0998
28005SOL     OW87802   2.986   0.023   2.266 -0.4939  0.3601 -0.1588
28005SOL    HW187803   3.073   0.054   2.241  0.2379  1.8475  3.4864
28005SOL    HW287804   2.999  -0.069   2.288  0.2919  0.6493  0.6626
28006SOL     OW87805   2.371   0.266   7.225  0.3037  0.4890 -0.4778
28006SOL    HW187806   2.295   0.262   7.167 -1.0186 -0.0636  1.2014
28006SOL    HW287807   2.392   0.359   7.232 -1.1277  0.7879  0.1278
28007SOL     OW87808   5.549   2.352   9.571 -0.1102 -0.0398  0.0892
28007SOL    HW187809   5.577   2.272   9.526 -0.5621  1.4504 -3.1649
28007SOL    HW287810   5.509   2.405   9.502 -0.3187  2.8014  2.2195
28008SOL     OW87811   3.739   0.161   5.829  0.3382 -0.4042 -0.0467
28008SOL    HW187812   3.830   0.131   5.837 -0.0277 -1.5471 -0.0225
28008SOL    HW287813   3.709   0.169   5.920 -0.0895 -1.6607 -0.0601
28009SOL     OW87814   1.917   6.137   3.260  0.5214 -0.2974  0.2421
28009SOL    HW187815   1.912   6.088   3.178  0.5981  1.7624 -1.0602
28009SOL    HW287816   1.945   6.072   3.325  0.6610 -1.9383 -1.3812
28010SOL     OW87817   3.122   6.354   6.760 -0.0356  0.4784  0.0457
28010SOL    HW187818   3.177   6.356   6.682 -0.4860 -1.0147 -0.3420
28010SOL    HW287819   3.178   6.314   6.827 -0.0829  0.5588  0.1329
28011SOL     OW87820   0.024   3.707   2.084  0.5323 -0.2036  0.5930
28011SOL    HW187821   0.041   3.644   2.015 -1.4530 -1.4087  1.1311
28011SOL    HW287822   0.093   3.774   2.074  0.1778 -0.2040 -2.6274
28012SOL     OW87823   1.608   1.304   5.418  0.1291 -0.0919 -0.8850
28012SOL    HW187824   1.702   1.289   5.419  0.3068  0.9346  0.3481
28012SOL    HW287825   1.579   1.287   5.507 -0.7789  0.0691 -1.1300
28013SOL     OW87826   5.750   1.218   0.278 -0.1299 -0.0169 -0.2038
28013SOL    HW187827   5.783   1.269   0.204 -0.6540 -0.4164 -0.7250
28013SOL    HW287828   5.828   1.187   0.322  0.2306  1.8372  0.5786
28014SOL     OW87829   2.779   1.434   0.670 -0.7548 -0.3281 -0.1976
28014SOL    HW187830   2.832   1.396   0.740 -2.3170  1.2014  1.9384
28014SOL    HW287831   2.781   1.369   0.600  2.5246 -1.0302  0.4175
28015SOL     OW87832   6.056   9.981   1.846 -0.2822  0.1598  0.1909
28015SOL    HW187833   6.108   9.912   1.886  1.7482  1.1734 -0.5255
28015SOL    HW287834   6.095   9.993   1.759 -0.5160  2.1941  0.3103
28016SOL     OW87835   5.333   1.160   7.849 -0.0491  0.8868 -0.0728
28016SOL    HW187836   5.389   1.230   7.815  0.2615  1.5486  1.7115
28016SOL    HW287837   5.289   1.198   7.924 -1.7174 -0.1214 -0.4875
28017SOL     OW87838   5.147   0.274   2.973 -0.1486  0.6837  0.2784
28017SOL    HW187839   5.098   0.321   2.905 -1.7748  0.3794  1.1930
28017SOL    HW287840   5.149   0.183   2.943  0.8408  0.8794 -0.2872
28018SOL     OW87841   8.238   2.740   8.363  0.1198  0.1028  0.3149
28018SOL    HW187842   8.271   2.724   8.451 -0.4015 -0.8169  0.3467
28018SOL    HW287843   8.151   2.701   8.362  0.9245 -1.8270 -1.2500
28019SOL     OW87844   4.986  10.335   6.584  0.2831 -0.0356 -0.7587
28019SOL    HW187845   5.069  10.290   6.567  0.2011  0.0665 -1.4644
28019SOL    HW287846   4.957  10.301   6.669  1.0278 -0.0926 -0.5217
28020SOL     OW87847   5.956   4.596   6.612  0.2502  0.1792 -0.6243
28020SOL    HW187848   5.979   4.504   6.612  0.4918  0.2382 -1.5855
28020SOL    HW287849   6.019   4.638   6.554 -1.7052  0.4586 -2.6787
28021SOL     OW87850   4.244   1.999  10.208 -0.0729  0.0939  0.2822
28021SOL    HW187851   4.238   1.978  10.301  0.4811  1.5318  0.6818
28021SOL    HW287852   4.219   2.092  10.203 -1.3808 -0.2980 -1.1969
28022SOL     OW87853   8.757   9.901   1.286 -0.7821  0.1184 -0.3677
28022SOL    HW187854   8.736   9.895   1.380 -0.7776 -0.8510 -0.4260
28022SOL    HW287855   8.749   9.812   1.254 -0.5401  0.4109 -1.2486
28023SOL     OW87856   5.117   0.452   9.307 -0.4722 -0.0116  0.2591
28023SOL    HW187857   5.113   0.542   9.340  1.7823  0.3004 -0.1198
28023SOL    HW287858   5.091   0.398   9.381 -1.4796  0.9193  0.6144
28024SOL     OW87859   6.738   7.605   6.120  0.0854 -0.2376  0.3576
28024SOL    HW187860   6.737   7.699   6.100  0.1664 -0.5089 -1.0537
28024SOL    HW287861   6.688   7.566   6.048 -0.6124 -1.2035  1.3563
28025SOL     OW87862   3.454   9.420   0.282 -0.3014  0.2232  0.5393
28025SOL    HW187863   3.517   9.446   0.216 -1.3232  1.2007 -0.0810
28025SOL    HW287864   3.458   9.324   0.282  1.1840  0.2696  0.5486
28026SOL     OW87865   7.705   7.613   2.083  0.2074  0.3174  0.2910
28026SOL    HW187866   7.610   7.603   2.094  0.0857  1.1085 -0.0259
28026SOL    HW287867   7.715   7.657   1.998  0.8603  0.2450  0.3241
28027SOL     OW87868   3.369   8.622   8.949 -0.4997  0.2440 -0.1020
28027SOL    HW187869   3.431   8.554   8.973 -1.5655 -0.3410  1.1132
28027SOL    HW287870   3.283   8.584   8.966 -1.2018  1.1137 -1.5197
28028SOL     OW87871   7.715   8.379   9.927 -0.6034 -0.0535 -0.4429
28028SOL    HW187872   7.686   8.466   9.955  2.0951  1.4513 -1.8107
28028SOL    HW287873   7.686   8.373   9.836 -1.7729 -1.1189 -0.0145
28029SOL     OW87874   0.718   2.057   0.897 -0.1027  0.0752  0.8619
28029SOL    HW187875   0.627   2.085   0.890 -0.1567 -0.0046  1.2185
28029SOL    HW287876   0.754   2.071   0.810 -0.2004  1.0144  0.9580
28030SOL     OW87877   3.882   4.933   7.601 -0.2489 -0.1071 -0.4890
28030SOL    HW187878   3.794   4.920   7.636  0.5273  1.2324  2.2848
28030SOL    HW287879   3.912   4.845   7.578 -1.8110 -0.7450 -0.2036
28031SOL     OW87880   7.684   7.185   1.844 -0.3988  0.3616 -0.2563
28031SOL    HW187881   7.599   7.225   1.831 -0.4080  0.4270  0.0191
28031SOL    HW287882   7.736   7.251   1.889 -0.1711  0.3610 -0.5120
28032SOL     OW87883   3.483   3.981   3.682 -0.6042  0.1951  0.1832
28032SOL    HW187884   3.570   4.008   3.654  1.1136 -1.7598  3.0590
28032SOL    HW287885   3.467   4.030   3.763 -2.1684  0.4572 -0.2574
28033SOL     OW87886  10.023   6.994   5.216 -0.4234  0.0439 -0.3661
28033SOL    HW187887   9.928   6.989   5.213 -0.4538  0.5020 -0.0557
28033SOL    HW287888  10.051   6.945   5.138 -0.9010 -0.2417 -0.3657
28034SOL     OW87889   1.412   6.718   3.616 -0.2968  0.0304 -0.6720
28034SOL    HW187890   1.454   6.717   3.702 -0.9139  1.2239 -0.3385
28034SOL    HW287891   1.482   6.693   3.555 -0.0192 -1.4816  0.2184
28035SOL     OW87892  10.085   7.553   0.855 -0.3387  0.3205 -0.0327
28035SOL    HW187893  10.151   7.524   0.919 -2.1510 -1.4884  1.1649
28035SOL    HW287894  10.099   7.647   0.846  2.5889 -0.0532 -0.1060
28036SOL     OW87895   0.119   6.500   4.180 -0.1740 -0.5298  0.7708
28036SOL    HW187896   0.133   6.468   4.091 -1.2417  1.8346 -0.3689
28036SOL    HW287897   0.025   6.519   4.184  0.1563  1.1338  1.7241
28037SOL     OW87898   8.206   6.848   4.514 -0.2331  0.4456 -0.7081
28037SOL    HW187899   8.272   6.779   4.520 -0.4620  0.2432 -0.4978
28037SOL    HW287900   8.171   6.839   4.425 -1.0757 -0.4705 -0.3104
28038SOL     OW87901   1.919   4.110   7.132  0.0631  0.1896 -0.8751
28038SOL    HW187902   1.866   4.031   7.119 -1.2191  1.2003 -2.0720
28038SOL    HW287903   1.871   4.160   7.198 -0.3156  0.9541 -1.7131
28039SOL     OW87904   8.772   7.610   2.996 -0.4227  0.0583 -0.1961
28039SOL    HW187905   8.853   7.577   3.033  1.7507 -0.3894 -4.7194
28039SOL    HW287906   8.736   7.535   2.948 -2.6017  0.7777  0.2066
28040SOL     OW87907   5.444   9.537   2.505  0.1118 -0.0092  0.3375
28040SOL    HW187908   5.516   9.580   2.550 -0.4074  0.6448  0.5594
28040SOL    HW287909   5.437   9.451   2.547  0.4692  0.0984  0.6193
28041SOL     OW87910   2.981   9.367   1.640  0.6210  0.6866  0.5211
28041SOL    HW187911   2.971   9.273   1.652 -0.2233  0.2068 -2.8057
28041SOL    HW287912   3.075   9.381   1.631  0.6188 -0.3499 -1.6483
28042SOL     OW87913   6.180   6.360  10.082  1.1960  0.1522  0.1211
28042SOL    HW187914   6.113   6.318  10.027  1.7311 -0.0761 -0.3625
28042SOL    HW287915   6.248   6.294  10.091  1.3342  0.3667  0.6636
28043SOL     OW87916   4.817   2.220   9.753 -0.4153 -0.4967  0.0299
28043SOL    HW187917   4.869   2.288   9.797 -1.2027  1.7819 -2.2691
28043SOL    HW287918   4.879   2.148   9.740  1.4939  1.0857 -0.3017
28044SOL     OW87919   3.755   5.578   2.609  0.0427 -0.1613  0.3191
28044SOL    HW187920   3.677   5.557   2.557  0.3139 -0.2489 -0.0526
28044SOL    HW287921   3.774   5.669   2.587 -1.6201  0.8292  2.5431
28045SOL     OW87922   0.418   4.451   5.340 -0.2953  0.6420 -0.1399
28045SOL    HW187923   0.345   4.427   5.284 -1.7929  1.6197  1.3164
28045SOL    HW287924   0.447   4.536   5.306 -1.4534  1.4203  0.7630
28046SOL     OW87925   4.253   6.746   0.425  0.3942  0.1467 -0.8165
28046SOL    HW187926   4.159   6.757   0.413  0.0672 -2.3700 -1.2625
28046SOL    HW287927   4.271   6.784   0.511 -1.0458  0.6041 -0.6926
28047SOL     OW87928   5.732   9.144   1.362 -0.1991  0.1043 -0.6716
28047SOL    HW187929   5.650   9.096   1.349 -1.1344  1.9238 -1.8143
28047SOL    HW287930   5.743   9.195   1.282  1.2286  1.1222  0.1271
28048SOL     OW87931   6.561   5.842   3.429 -0.2350  0.1252  0.1791
28048SOL    HW187932   6.523   5.755   3.414  2.0066 -0.6544 -1.3919
28048SOL    HW287933   6.545   5.889   3.347  1.0585  0.1806 -0.0601
28049SOL     OW87934  10.125   8.939   8.575  0.0096 -0.0419  0.3508
28049SOL    HW187935  10.216   8.948   8.606 -0.2891  1.6605  0.8324
28049SOL    HW287936  10.120   8.997   8.499  0.1265 -2.5120 -1.6608
28050SOL     OW87937   1.478   8.286   5.946  0.4822 -0.4387 -0.0786
28050SOL    HW187938   1.572   8.295   5.934  0.5708 -2.2745 -1.0099
28050SOL    HW287939   1.465   8.198   5.981 -0.9806 -1.0589 -1.9598
28051SOL     OW87940   6.513   2.977   4.404  0.2881  0.2678 -0.2672
28051SOL    HW187941   6.551   2.890   4.415 -0.9777 -0.1836  0.8061
28051SOL    HW287942   6.587   3.033   4.379  1.5171 -0.7065  1.0465
28052SOL     OW87943   1.740   8.508   4.907  0.6317 -0.2571  0.0123
28052SOL    HW187944   1.661   8.490   4.856  0.6402 -2.9670  0.7730
28052SOL    HW287945   1.713   8.497   4.998  1.3568  1.3097  0.4531
28053SOL     OW87946   5.649   4.807   1.813  0.0159 -0.7660 -0.1150
28053SOL    HW187947   5.725   4.797   1.755  0.7164 -1.6866  0.9106
28053SOL    HW287948   5.615   4.718   1.824 -0.3393 -0.5572  0.5622
28054SOL     OW87949   8.207   7.370   6.924 -0.4908 -0.1460  0.0698
28054SOL    HW187950   8.188   7.340   7.013 -1.5814  0.1901 -0.0300
28054SOL    HW287951   8.298   7.344   6.908 -0.3726 -0.4472  1.1780
28055SOL     OW87952   6.010   8.036   4.897 -0.3032  0.0033 -0.3726
28055SOL    HW187953   5.992   7.981   4.974 -0.4549 -0.9046 -1.0327
28055SOL    HW287954   6.091   8.000   4.860  0.3982  1.1537 -0.0155
28056SOL     OW87955   9.158   4.404   3.753  0.0850  0.1716  0.1633
28056SOL    HW187956   9.172   4.492   3.790  1.2348 -0.6433  1.8072
28056SOL    HW287957   9.246   4.369   3.741 -0.2021  0.2478 -3.2937
28057SOL     OW87958   1.285   6.280   5.461 -0.1960  0.0675 -1.0190
28057SOL    HW187959   1.359   6.313   5.512  0.3925  1.8013 -2.8166
28057SOL    HW287960   1.212   6.279   5.522  0.7489  0.8361  0.1764
28058SOL     OW87961   4.239   3.543   9.352 -0.2329  0.3919  0.0492
28058SOL    HW187962   4.160   3.520   9.303  0.9629 -1.0223 -1.3218
28058SOL    HW287963   4.285   3.460   9.365  1.0386  1.1789  0.7923
28059SOL     OW87964   8.187   5.593   6.087 -0.2063  0.1282  0.6404
28059SOL    HW187965   8.118   5.584   6.153  0.2665  2.3115  1.5213
28059SOL    HW287966   8.268   5.575   6.135 -0.0196 -0.9513 -0.0369
28060SOL     OW87967   5.613   2.718   6.756  0.7604 -0.3765 -0.1770
28060SOL    HW187968   5.650   2.710   6.845  0.2040 -0.3884  0.0548
28060SOL    HW287969   5.568   2.635   6.741 -1.3909  0.6040  0.5685
28061SOL     OW87970   7.319   6.096   2.870  0.1554  0.0180 -0.4178
28061SOL    HW187971   7.406   6.084   2.908 -0.4873 -0.3329  1.0194
28061SOL    HW287972   7.321   6.047   2.788  1.6142  0.8396 -0.9030
28062SOL     OW87973   6.776   6.445   6.994  0.6468  0.5373 -0.1778
28062SOL    HW187974   6.737   6.446   7.081 -1.4208 -1.0206 -1.0140
28062SOL    HW287975   6.854   6.391   7.004  0.4499  0.3942  0.7009
28063SOL     OW87976   9.904   2.731  10.049  0.2628  0.0956  0.0237
28063SOL    HW187977   9.846   2.756   9.977 -1.3606  1.2488  1.6373
28063SOL    HW287978   9.847   2.685  10.111  1.5825 -0.7777  0.6411
28064SOL     OW87979   0.899   3.779   3.367  0.1953  0.2722 -0.4359
28064SOL    HW187980   0.908   3.870   3.395 -0.6030  0.2664 -0.1236
28064SOL    HW287981   0.841   3.740   3.433 -1.1701  0.0742 -1.7049
28065SOL     OW87982   5.330   0.100   1.648  0.2139 -0.1349 -0.7388
28065SOL    HW187983   5.286   0.062   1.725  2.0543 -2.4249 -0.7257
28065SOL    HW287984   5.379   0.174   1.683  1.9400 -1.8167  0.6084
28066SOL     OW87985   5.614   0.665   8.934  0.1621  0.2454 -0.0941
28066SOL    HW187986   5.611   0.569   8.935 -2.1641  0.2674 -0.3349
28066SOL    HW287987   5.591   0.691   9.023 -1.2467  0.5669 -0.5306
28067SOL     OW87988   8.352   3.833   4.749  0.1022  0.0714 -0.3653
28067SOL    HW187989   8.323   3.745   4.725  0.9841 -0.2653 -0.2399
28067SOL    HW287990   8.291   3.861   4.817  0.1357 -0.6553 -0.0317
28068SOL     OW87991   3.916   2.069   2.701 -0.2959  0.6186 -0.1058
28068SOL    HW187992   3.937   2.050   2.792  1.3617 -0.9026 -0.7555
28068SOL    HW287993   3.832   2.026   2.686 -0.1821  0.1838  0.4898
28069SOL     OW87994   6.355   0.743   6.539 -0.3423 -0.1746 -0.2415
28069SOL    HW187995   6.426   0.734   6.476 -0.6943  1.2425 -0.8662
28069SOL    HW287996   6.342   0.837   6.549  1.7996 -0.0915  4.3539
28070SOL     OW87997   5.449   9.902   8.960 -0.0600 -0.3826 -0.0153
28070SOL    HW187998   5.386   9.967   8.930 -2.0202 -3.1571 -2.4876
28070SOL    HW287999   5.396   9.828   8.989  2.0059 -2.3616 -0.9552
28071SOL     OW88000   7.826   2.663   5.761  0.8158  0.5757 -0.3290
28071SOL    HW188001   7.760   2.721   5.800 -0.4716  0.9563 -2.8913
28071SOL    HW288002   7.806   2.577   5.799 -1.1763  0.6963 -0.9909
28072SOL     OW88003   1.114   0.630   6.285  0.0424  0.1612  0.1355
28072SOL    HW188004   1.048   0.649   6.351 -0.2674  0.9964 -0.4025
28072SOL    HW288005   1.129   0.535   6.292 -2.2973 -0.3269 -0.7331
28073SOL     OW88006   4.991   5.519   6.161 -0.4238  0.7203 -0.0177
28073SOL    HW188007   5.054   5.591   6.162 -0.3958  0.7613  2.4398
28073SOL    HW288008   5.044   5.440   6.167 -0.4953  0.4861 -1.8664
28074SOL     OW88009   6.729   6.214   7.235  0.1363  0.1701  0.0109
28074SOL    HW188010   6.671   6.139   7.250 -0.8556  0.7491 -0.7881
28074SOL    HW288011   6.813   6.176   7.211  0.2370 -0.7043  1.6132
28075SOL     OW88012   3.693   4.156   3.337 -0.2812 -0.2464  0.2438
28075SOL    HW188013   3.735   4.176   3.421 -0.2148  0.1274  0.1246
28075SOL    HW288014   3.672   4.063   3.342 -0.4912 -0.1750  0.7695
28076SOL     OW88015   5.959   3.026   3.782 -0.0774 -0.0689  0.4837
28076SOL    HW188016   5.961   3.119   3.760  1.5359 -0.4307 -1.1365
28076SOL    HW288017   5.925   3.023   3.872  1.3767  2.2227  1.1978
28077SOL     OW88018   7.105   5.595   1.263 -0.7044  0.2317  0.3760
28077SOL    HW188019   7.044   5.657   1.303  1.5569  3.8441 -1.2547
28077SOL    HW288020   7.133   5.637   1.182  0.4767 -3.3860 -1.3219
28078SOL     OW88021   8.839   1.134   2.159  0.3778  0.0096 -0.1347
28078SOL    HW188022   8.772   1.068   2.177 -0.0810  0.5673  0.2489
28078SOL    HW288023   8.886   1.142   2.242 -0.4558  1.1485  0.2480
28079SOL     OW88024   9.961   9.442   2.882  0.1590  0.4405 -0.4623
28079SOL    HW188025   9.915   9.498   2.820  0.9110  1.5782 -0.0179
28079SOL    HW288026   9.924   9.465   2.967 -1.1499 -1.3895 -0.4832
28080SOL     OW88027   4.089   9.893   4.304  0.1926  0.1618 -0.2111
28080SOL    HW188028   4.178   9.903   4.268  0.7827 -2.2027  0.4368
28080SOL    HW288029   4.094   9.814   4.358 -2.1806  0.3119  0.3109
28081SOL     OW88030   9.916   1.855   9.081  0.6517 -0.0931 -0.3668
28081SOL    HW188031   9.920   1.793   9.008  1.4845 -0.2017 -0.2302
28081SOL    HW288032   9.974   1.926   9.056 -0.6724  0.9060 -0.7506
28082SOL     OW88033   3.712   4.241   2.589 -0.3023  0.1866  0.3834
28082SOL    HW188034   3.725   4.148   2.609 -2.0119 -0.5183 -1.4229
28082SOL    HW288035   3.694   4.281   2.674 -3.3203 -1.8855  0.8988
28083SOL     OW88036   1.121   5.913   3.359  0.1304  0.2632 -0.4975
28083SOL    HW188037   1.028   5.891   3.353 -0.4734  2.5283 -0.2665
28083SOL    HW288038   1.138   5.923   3.452  0.4580  0.4084 -0.5715
28084SOL     OW88039   0.499   7.199   9.351 -0.2500 -0.2113  0.4702
28084SOL    HW188040   0.407   7.178   9.337  0.3677 -1.6247 -2.2757
28084SOL    HW288041   0.506   7.292   9.330 -0.7518 -0.5707 -1.4971
28085SOL     OW88042   9.668   1.607   3.071  0.1067 -0.2754 -0.4210
28085SOL    HW188043   9.658   1.632   2.980  0.6534 -1.2556 -0.7644
28085SOL    HW288044   9.697   1.516   3.068 -1.0231 -0.7019  0.7648
28086SOL     OW88045   9.400   2.247   1.416 -0.5474 -0.2336  0.3197
28086SOL    HW188046   9.457   2.254   1.340 -2.0338  3.1885 -0.6548
28086SOL    HW288047   9.460   2.240   1.491  0.9683 -1.5304 -0.9559
28087SOL     OW88048   2.388   6.767  10.032 -0.5182 -0.0401 -0.0186
28087SOL    HW188049   2.410   6.676  10.054  0.0652 -0.3465 -1.7072
28087SOL    HW288050   2.372   6.765   9.938 -1.1566  1.5020  0.0382
28088SOL     OW88051   7.094   9.885   4.427 -0.1435 -0.1256  0.5864
28088SOL    HW188052   7.123   9.815   4.369 -2.9737  1.2986 -2.9033
28088SOL    HW288053   7.148   9.960   4.404 -0.8947  0.2919  0.1300
28089SOL     OW88054   4.416   0.447   3.864  0.3926  0.2930 -0.0329
28089SOL    HW188055   4.445   0.520   3.809  1.6911  0.0046  0.2490
28089SOL    HW288056   4.487   0.433   3.925  0.1396 -1.1851 -0.0421
28090SOL     OW88057   5.100   3.322   7.606  0.4437  0.6406 -0.2774
28090SOL    HW188058   5.008   3.307   7.584  0.7708 -0.7600 -0.8408
28090SOL    HW288059   5.148   3.294   7.528  1.3426  1.6172 -0.0917
28091SOL     OW88060   0.069   9.761   7.719 -0.3166 -0.2311 -0.2997
28091SOL    HW188061   0.053   9.849   7.753 -2.9656 -1.4757  1.9746
28091SOL    HW288062   0.006   9.751   7.648 -0.2127 -0.4308 -0.3658
28092SOL     OW88063   9.746   5.519   1.331  0.3109  0.0292 -0.4301
28092SOL    HW188064   9.778   5.460   1.263 -0.9112 -1.4955  0.2510
28092SOL    HW288065   9.650   5.513   1.324  0.1669  1.0507  0.4144
28093SOL     OW88066   7.306   2.922   8.494 -0.4537 -0.7410  0.2064
28093SOL    HW188067   7.372   2.898   8.428 -0.1070 -0.0882  0.3062
28093SOL    HW288068   7.256   2.992   8.453  0.8212  0.8407  1.2217
28094SOL     OW88069   6.736   0.851   2.917 -0.2995  0.1906 -0.4344
28094SOL    HW188070   6.757   0.927   2.862  0.1710  0.8227  0.5703
28094SOL    HW288071   6.713   0.890   3.002 -2.0932 -0.6921 -0.4752
28095SOL     OW88072   3.532   9.290   1.834  0.1908  0.1053  0.5390
28095SOL    HW188073   3.486   9.222   1.785  0.6533 -0.8529  1.3989
28095SOL    HW288074   3.621   9.256   1.844  0.9374  1.6398 -0.5290
28096SOL     OW88075   6.855   7.365   9.467  0.2417 -0.6800  0.3798
28096SOL    HW188076   6.830   7.445   9.421 -0.4920 -0.8528  0.4592
28096SOL    HW288077   6.949   7.356   9.451  0.1590 -0.2797 -0.3715
28097SOL     OW88078   3.377   2.242   3.775 -0.1284 -0.2239 -0.1076
28097SOL    HW188079   3.358   2.151   3.798 -0.7137 -0.4060 -1.2132
28097SOL    HW288080   3.298   2.272   3.728 -0.6090  1.3713  1.6074
28098SOL     OW88081   9.625   2.293   2.058  0.5436 -0.3371 -0.6793
28098SOL    HW188082   9.557   2.293   1.992  1.3515 -0.4330 -1.5310
28098SOL    HW288083   9.683   2.365   2.033  0.5602 -0.0023  0.2556
28099SOL     OW88084   4.217   9.816   0.895 -0.2037  0.0125 -0.0274
28099SOL    HW188085   4.258   9.735   0.926  0.7410  0.0637 -1.0828
28099SOL    HW288086   4.283   9.856   0.839 -2.1768 -0.6732 -3.0705
28100SOL     OW88087   0.795   0.188   8.328  0.2834  0.5540  0.4945
28100SOL    HW188088   0.760   0.112   8.280  0.4116  2.1547 -2.3814
28100SOL    HW288089   0.889   0.173   8.329  0.3177  0.6730 -0.1474
28101SOL     OW88090   9.182   1.214   1.307 -0.6224  0.0732  0.0729
28101SOL    HW188091   9.234   1.170   1.374  0.8257 -0.5711 -1.4068
28101SOL    HW288092   9.092   1.187   1.325 -0.1814 -0.6875  1.2815
28102SOL     OW88093   1.747   9.727   6.540 -0.4808  0.3228  0.0737
28102SOL    HW188094   1.736   9.642   6.498  0.7871  0.9040 -1.5651
28102SOL    HW288095   1.826   9.763   6.500 -0.8038  2.1429  0.9662
28103SOL     OW88096   4.189   2.014   6.280 -0.1716 -0.6736  0.0055
28103SOL    HW188097   4.241   1.974   6.349 -2.1340  0.4729  2.3139
28103SOL    HW288098   4.226   2.102   6.272  1.1893 -1.3529 -1.7706
28104SOL     OW88099   6.873   0.699   8.529  0.3414 -0.0900  0.5027
28104SOL    HW188100   6.948   0.753   8.507 -0.1036  0.4416  0.2840
28104SOL    HW288101   6.825   0.749   8.595  0.8402 -0.9830  1.5872
28105SOL     OW88102   9.765   3.595   4.406  0.0589  0.1892  0.6352
28105SOL    HW188103   9.784   3.517   4.457  1.0139  0.4823  0.7618
28105SOL    HW288104   9.847   3.613   4.359 -0.8873 -0.2463 -1.2379
28106SOL     OW88105   8.042   1.100   5.254 -0.2470 -0.7691  0.3061
28106SOL    HW188106   7.953   1.133   5.260 -0.4199 -1.2348  0.3377
28106SOL    HW288107   8.089   1.142   5.325  0.0040  0.8561 -0.7694
28107SOL     OW88108   8.040   2.557   0.085  0.0788 -0.1313 -0.1302
28107SOL    HW188109   7.994   2.626   0.132  1.2030  0.5782 -0.0401
28107SOL    HW288110   8.081   2.601   0.010  0.2534 -0.8228 -0.4536
28108SOL     OW88111   7.626   6.939   3.476  0.3532  0.3128 -0.1713
28108SOL    HW188112   7.652   7.031   3.480 -1.4223  0.8409 -0.0677
28108SOL    HW288113   7.670   6.905   3.398  0.9153  1.2800 -0.2898
28109SOL     OW88114   2.815  10.091   0.402 -0.0702  0.5920  0.1314
28109SOL    HW188115   2.901  10.126   0.425  0.0885  0.1848  0.1736
28109SOL    HW288116   2.808  10.105   0.308  0.7621 -0.8641 -0.1866
28110SOL     OW88117   8.683   2.543   2.524 -0.5171 -0.2297  0.1656
28110SOL    HW188118   8.692   2.480   2.453  0.9562  0.4822 -0.3375
28110SOL    HW288119   8.698   2.628   2.482  1.1274  0.1551  1.4003
28111SOL     OW88120   4.991   7.041   3.189  0.3176 -0.1085 -0.1436
28111SOL    HW188121   4.999   6.946   3.202  1.3826  0.1195  0.9815
28111SOL    HW288122   4.904   7.062   3.223  0.2150 -0.6317 -0.0756
28112SOL     OW88123   9.336   4.323   9.178  0.1227 -0.7652  0.0705
28112SOL    HW188124   9.350   4.290   9.266 -2.2371 -1.1836  0.3305
28112SOL    HW288125   9.410   4.383   9.163  1.4762 -1.9496  1.6501
28113SOL     OW88126   6.727   7.169   9.027 -0.9731 -1.3779 -0.6881
28113SOL    HW188127   6.752   7.092   9.078 -1.5340 -1.3902 -0.4276
28113SOL    HW288128   6.635   7.183   9.048 -0.4660  0.3579  0.5370
28114SOL     OW88129   0.227   1.374   2.605 -0.5265  0.3982 -0.3438
28114SOL    HW188130   0.239   1.286   2.569  0.0023  1.5057 -3.1479
28114SOL    HW288131   0.300   1.384   2.667  0.3546 -0.6094 -1.1683
28115SOL     OW88132   9.965   0.107   5.200  0.2509 -0.2062 -0.4331
28115SOL    HW188133   9.916   0.188   5.216 -2.6195 -1.9055  0.0543
28115SOL    HW288134   9.919   0.064   5.128  0.5330 -2.2459  0.5331
28116SOL     OW88135   8.667   6.831   4.961  0.4038  0.0027  0.0905
28116SOL    HW188136   8.645   6.745   4.998 -0.1676  0.5229  0.9929
28116SOL    HW288137   8.631   6.894   5.023 -0.3336  0.9144 -1.2277
28117SOL     OW88138   8.124   1.043   7.238 -0.0758  0.0460 -0.1432
28117SOL    HW188139   8.117   0.947   7.235 -1.8557  0.1438 -0.2774
28117SOL    HW288140   8.054   1.074   7.180 -0.1004  1.4370  0.5783
28118SOL     OW88141   5.625   0.662   4.072  0.3748 -0.3314  0.7904
28118SOL    HW188142   5.602   0.718   3.998  1.8507 -1.6771 -0.7665
28118SOL    HW288143   5.680   0.717   4.127  3.0437 -0.5538 -1.4592
28119SOL     OW88144   8.291   2.788   5.168  0.5698  0.2797 -0.1950
28119SOL    HW188145   8.326   2.713   5.217  1.5371  0.4791 -0.5566
28119SOL    HW288146   8.251   2.844   5.235  2.5294  0.9174  0.5159
28120SOL     OW88147   3.590   7.181   1.181  0.0166 -0.1884 -0.0911
28120SOL    HW188148   3.621   7.271   1.173 -1.2205  0.2209 -0.5082
28120SOL    HW288149   3.670   7.128   1.174  0.8046  0.8684  0.4891
28121SOL     OW88150   7.991   1.398   5.216 -0.2975  0.0035  0.7044
28121SOL    HW188151   8.085   1.415   5.230 -0.3512 -1.0618  2.7870
28121SOL    HW288152   7.979   1.406   5.122  1.7097  1.0313  0.4683
28122SOL     OW88153   7.497   2.175   7.582 -0.1630  0.1934  0.1014
28122SOL    HW188154   7.464   2.238   7.518  1.0354 -0.5400 -1.3145
28122SOL    HW288155   7.590   2.196   7.590  0.6170 -2.1876 -1.4955
28123SOL     OW88156   2.616   2.600   3.037  0.0848  0.0603 -0.3995
28123SOL    HW188157   2.621   2.646   2.953 -0.2731  1.0764  0.1151
28123SOL    HW288158   2.608   2.508   3.014  0.6379  0.2691 -1.4723
28124SOL     OW88159   1.225  10.345   0.272 -0.1928  0.1897 -0.1681
28124SOL    HW188160   1.298  10.286   0.253 -1.1513 -0.8639 -0.7051
28124SOL    HW288161   1.177  10.302   0.342 -0.1159  1.0596  0.4398
28125SOL     OW88162   5.219   8.773   0.800  0.0975 -0.0489 -0.1765
28125SOL    HW188163   5.276   8.815   0.736  2.6365 -1.6851  0.8794
28125SOL    HW288164   5.158   8.842   0.826  2.2654  2.1722 -0.5992
28126SOL     OW88165   5.017   3.018   3.694  0.0485  0.4890  0.3133
28126SOL    HW188166   5.096   2.998   3.643 -0.6947 -0.9614 -0.3351
28126SOL    HW288167   5.049   3.065   3.770  1.8756 -2.0324  1.2617
28127SOL     OW88168   5.138   9.318   9.466  0.7194 -0.3327  0.5499
28127SOL    HW188169   5.135   9.353   9.555 -1.3653  2.2387 -0.3872
28127SOL    HW288170   5.078   9.244   9.467 -0.1128  0.3228  1.0970
28128SOL     OW88171  10.232   3.114   8.652 -0.3111 -0.6216  0.4044
28128SOL    HW188172  10.207   3.183   8.712 -1.0654 -0.3823 -0.1655
28128SOL    HW288173  10.321   3.137   8.624 -0.9220  0.6860 -0.5581
28129SOL     OW88174   6.869   7.885   7.760  0.1502  0.0431 -0.1369
28129SOL    HW188175   6.880   7.829   7.837 -3.1475  1.1148  1.2775
28129SOL    HW288176   6.927   7.959   7.776  0.0544 -0.0999  0.9615
28130SOL     OW88177   4.591   4.491   4.744  0.7150 -0.2024  0.0296
28130SOL    HW188178   4.640   4.545   4.682 -0.7952  0.9624 -0.2206
28130SOL    HW288179   4.616   4.525   4.830  1.0592 -0.2433 -0.0538
28131SOL     OW88180   7.966   3.986   9.592  0.0389  0.0684  0.1885
28131SOL    HW188181   7.890   3.930   9.576 -0.9872  1.2424  0.7253
28131SOL    HW288182   8.041   3.929   9.581 -0.9494 -1.3127  0.3545
28132SOL     OW88183   3.765   7.480   8.755 -0.2786 -0.3113 -0.4989
28132SOL    HW188184   3.735   7.559   8.710 -3.7215 -1.1984 -0.0243
28132SOL    HW288185   3.780   7.417   8.685  2.6502  0.6510 -0.8954
28133SOL     OW88186   8.896   3.346   7.994  0.4362 -0.5099  0.4234
28133SOL    HW188187   8.921   3.414   8.056  0.7150 -0.1386 -0.0846
28133SOL    HW288188   8.923   3.380   7.909 -1.4499 -0.2674 -0.1166
28134SOL     OW88189   5.993   7.022   2.045 -0.1201  0.4867 -0.2465
28134SOL    HW188190   5.961   7.111   2.062  0.7296  0.8585 -0.5353
28134SOL    HW288191   6.018   7.024   1.952  1.1079  0.3369  0.0678
28135SOL     OW88192   1.124   3.797   9.696 -0.2319  0.3089  0.2003
28135SOL    HW188193   1.204   3.772   9.743 -1.5269 -1.9576  1.3146
28135SOL    HW288194   1.127   3.745   9.616 -1.9063 -2.0671  1.5642
28136SOL     OW88195   2.886   2.760   5.106 -0.4761  0.2076  0.0190
28136SOL    HW188196   2.930   2.709   5.038 -0.7319 -1.1466  0.8314
28136SOL    HW288197   2.957   2.800   5.156 -0.2920  1.3950 -1.1576
28137SOL     OW88198   9.986   3.311   7.469 -0.3203  0.0847 -0.5089
28137SOL    HW188199   9.897   3.311   7.434  0.4255 -2.8364 -2.7786
28137SOL    HW288200  10.042   3.331   7.394  1.1372 -2.8107 -0.3395
28138SOL     OW88201   4.836   1.689   4.745  0.4336  0.0563 -0.3972
28138SOL    HW188202   4.918   1.639   4.747  0.1732 -0.3595 -0.0967
28138SOL    HW288203   4.822   1.714   4.837 -0.1924 -0.5503 -0.3230
28139SOL     OW88204   9.202   4.289   6.415  0.4529  0.2716  0.2428
28139SOL    HW188205   9.268   4.284   6.484  0.7206  1.0907  0.0540
28139SOL    HW288206   9.118   4.275   6.461  0.5834  1.3005  0.8138
28140SOL     OW88207   7.610   2.146   4.774  0.0133  0.3775  0.0214
28140SOL    HW188208   7.562   2.148   4.856 -0.6123  0.3673 -0.3334
28140SOL    HW288209   7.580   2.223   4.727 -0.7880 -0.4276 -0.8280
28141SOL     OW88210   3.065   6.816   9.068  0.3992 -0.9899 -0.5966
28141SOL    HW188211   3.054   6.780   8.980  0.3352  0.2529 -1.1193
28141SOL    HW288212   2.976   6.839   9.096  0.5607 -0.1401 -0.7637
28142SOL     OW88213   7.834   5.744   1.900  0.4204 -0.5079  0.3927
28142SOL    HW188214   7.873   5.724   1.815 -0.6197  0.7596 -0.4155
28142SOL    HW288215   7.741   5.724   1.889  0.1012  0.6433  0.8925
28143SOL     OW88216   4.954   6.190   3.762  0.0798  0.4940 -0.0977
28143SOL    HW188217   4.939   6.202   3.856 -0.4238  1.3017 -0.2652
28143SOL    HW288218   4.891   6.122   3.736 -0.1715  0.6691  0.0478
28144SOL     OW88219   7.915   1.635   4.214  0.4006 -0.3474 -0.1127
28144SOL    HW188220   7.916   1.598   4.126  0.5341  0.7692 -0.5924
28144SOL    HW288221   7.999   1.608   4.252  0.7196 -0.1042 -0.6409
28145SOL     OW88222   0.867   4.121   9.912 -0.0479 -0.4658 -0.4384
28145SOL    HW188223   0.792   4.133   9.970 -0.8432  1.3033 -1.7580
28145SOL    HW288224   0.847   4.042   9.862 -1.2224  0.1666 -1.0047
28146SOL     OW88225   7.107   1.920   9.764 -0.2106 -0.5319  0.1627
28146SOL    HW188226   7.153   1.885   9.840  0.7111  0.8404  0.2631
28146SOL    HW288227   7.109   2.015   9.776  0.6967 -0.2213 -1.9775
28147SOL     OW88228   1.679   7.857   2.345  0.2619 -0.1202  0.3991
28147SOL    HW188229   1.730   7.855   2.265  1.9855  2.6823  1.2628
28147SOL    HW288230   1.600   7.906   2.323  1.0645  1.2688  0.5208
28148SOL     OW88231   9.701   5.239   3.107 -0.2248 -0.2471  0.2411
28148SOL    HW188232   9.688   5.196   3.192  3.1751 -1.2015  0.4082
28148SOL    HW288233   9.768   5.305   3.123 -1.4403  1.4492 -1.2217
28149SOL     OW88234   6.723   3.111   2.367 -0.1389  0.1376  0.5635
28149SOL    HW188235   6.680   3.089   2.449 -1.9147 -3.0505 -1.0368
28149SOL    HW288236   6.663   3.172   2.324 -0.0878  0.3904  0.8451
28150SOL     OW88237   3.906  10.268   1.559  0.5112  0.6088  0.2794
28150SOL    HW188238   3.862  10.225   1.633  3.4527 -1.3245  1.0796
28150SOL    HW288239   3.853  10.345   1.541 -1.4724  0.0456  3.0558
28151SOL     OW88240   1.880   2.053   1.245  0.4020  0.0509  0.0284
28151SOL    HW188241   1.944   1.985   1.268 -0.0116 -0.6412 -0.8042
28151SOL    HW288242   1.875   2.108   1.323  1.5546 -0.2341  0.3299
28152SOL     OW88243   2.075   4.868   5.157 -0.2556 -0.1500 -0.4774
28152SOL    HW188244   2.077   4.927   5.233 -0.8951  0.1278 -0.6753
28152SOL    HW288245   1.996   4.893   5.109 -0.0095 -0.5241 -1.0806
28153SOL     OW88246   2.437   4.535   1.420 -0.0110 -0.0555  0.3800
28153SOL    HW188247   2.448   4.498   1.332  1.9277 -0.5858  0.7899
28153SOL    HW288248   2.348   4.569   1.421 -0.0237  0.1289 -1.8549
28154SOL     OW88249   1.209   9.916   2.939  0.3159 -0.0415  0.9961
28154SOL    HW188250   1.290   9.869   2.918  0.8883  0.7863  1.2926
28154SOL    HW288251   1.226   9.955   3.025  0.0357  1.1056  0.5482
28155SOL     OW88252   5.036   2.999   1.074  0.6163  0.1362 -0.3772
28155SOL    HW188253   5.035   3.058   1.150  2.6629 -0.5792  0.2692
28155SOL    HW288254   5.086   3.047   1.008 -0.7213  0.5407 -1.1403
28156SOL     OW88255   1.498   0.006   6.670  0.2363 -0.1987  0.1011
28156SOL    HW188256   1.526   0.082   6.618  2.3154 -0.6860  0.4536
28156SOL    HW288257   1.438  -0.041   6.612 -0.6583  1.3920 -0.3276
28157SOL     OW88258   8.685   9.950   0.999  0.1463 -0.0291  0.0602
28157SOL    HW188259   8.774   9.956   0.963 -0.2846  0.8011 -0.9096
28157SOL    HW288260   8.697   9.954   1.094  1.3969 -3.1422  0.1596
28158SOL     OW88261   2.414   6.253   2.037 -0.5795 -0.0493 -0.3034
28158SOL    HW188262   2.345   6.203   2.080  1.9481 -2.4495  1.3681
28158SOL    HW288263   2.406   6.342   2.074 -0.8660 -1.0825  2.3768
28159SOL     OW88264   1.615   6.724   2.743 -0.4444 -0.2489  0.2731
28159SOL    HW188265   1.649   6.769   2.666 -0.8209 -0.1888  0.1379
28159SOL    HW288266   1.572   6.793   2.794  0.2617 -0.1888  0.8070
28160SOL     OW88267   0.864   9.801   5.110  0.2058 -0.5944 -0.0386
28160SOL    HW188268   0.819   9.809   5.194 -1.3839  1.0535 -0.9457
28160SOL    HW288269   0.955   9.785   5.132 -0.3482 -1.2313  1.9670
28161SOL     OW88270   8.108   6.857   1.417  0.1359  0.2903 -0.1310
28161SOL    HW188271   8.158   6.846   1.336  0.1255  3.3285 -0.6799
28161SOL    HW288272   8.017   6.842   1.392 -0.1002  2.9621 -1.2629
28162SOL     OW88273   3.596   4.408   6.135 -0.6452 -0.7844 -0.1914
28162SOL    HW188274   3.664   4.340   6.130  1.0237  0.6663  1.4870
28162SOL    HW288275   3.564   4.403   6.225 -0.3762  0.7327  0.0080
28163SOL     OW88276   0.584   1.667   1.972  0.0190 -0.0622 -0.5734
28163SOL    HW188277   0.599   1.691   1.880 -0.4470 -1.1006 -0.9371
28163SOL    HW288278   0.499   1.706   1.992  1.2011  2.3124  0.2278
28164SOL     OW88279   3.973   4.164   5.220 -0.2120 -0.6175  0.3539
28164SOL    HW188280   3.948   4.140   5.131  2.1702  1.2643 -0.9536
28164SOL    HW288281   4.045   4.106   5.242  0.4340  0.1335  0.2736
28165SOL     OW88282   0.617   3.969   8.966  0.4486  0.3340  0.6221
28165SOL    HW188283   0.605   4.034   8.897  2.2369  1.0024  0.8715
28165SOL    HW288284   0.539   3.914   8.962  0.5523  0.2568 -2.0317
28166SOL     OW88285   3.315   2.658   2.213 -0.1042 -0.1557  0.5068
28166SOL    HW188286   3.377   2.611   2.157  0.9300  2.7657 -1.0379
28166SOL    HW288287   3.369   2.697   2.282 -0.7296 -0.2794  1.0744
28167SOL     OW88288   3.615   6.045  10.337 -0.6562  0.4617 -0.2509
28167SOL    HW188289   3.613   5.975  10.402  0.4113  0.6127 -0.0416
28167SOL    HW288290   3.593   6.001  10.255 -0.3218 -0.0698 -0.0649
28168SOL     OW88291   0.075   8.293   8.291 -0.0720 -0.5117  0.2447
28168SOL    HW188292   0.034   8.309   8.206 -0.9386 -0.4815  0.6559
28168SOL    HW288293   0.003   8.300   8.354  0.7229  0.3808  1.0770
28169SOL     OW88294  10.217   1.588   3.861 -0.0525 -0.2217  0.0296
28169SOL    HW188295  10.212   1.533   3.940 -2.5457 -3.5730 -2.1979
28169SOL    HW288296  10.142   1.647   3.868  1.3119  1.4600  1.3380
28170SOL     OW88297   8.744   6.693   1.078  0.0686  0.5443  0.4781
28170SOL    HW188298   8.723   6.786   1.066  0.0649  0.7920  2.2503
28170SOL    HW288299   8.801   6.672   1.004 -2.4605  1.0924 -1.8040
28171SOL     OW88300   7.058   7.163   9.395 -0.4630 -0.4539  0.7353
28171SOL    HW188301   6.996   7.108   9.348 -0.9614  0.5377  0.1900
28171SOL    HW288302   7.121   7.192   9.328 -0.0154 -0.6258  1.0762
28172SOL     OW88303   8.628   0.436   5.348 -0.0946 -0.0161 -0.1599
28172SOL    HW188304   8.571   0.394   5.412  1.3422 -2.6096 -0.4427
28172SOL    HW288305   8.594   0.407   5.263 -0.5512  1.4903 -0.5344
28173SOL     OW88306   1.584   6.780   8.128 -0.3710  0.3348 -0.2842
28173SOL    HW188307   1.649   6.712   8.113  1.3176  1.4722  1.4223
28173SOL    HW288308   1.561   6.811   8.041  0.2312 -1.1123 -0.9909
28174SOL     OW88309   4.287   0.083   9.761  0.1782 -0.1468 -0.0436
28174SOL    HW188310   4.292   0.007   9.703  0.0328  0.6795 -1.1711
28174SOL    HW288311   4.276   0.046   9.848 -0.3960 -1.4175 -0.6307
28175SOL     OW88312   1.554   2.605   1.107 -0.0350 -0.4771 -0.0037
28175SOL    HW188313   1.597   2.622   1.191  0.3483  0.1397 -0.3159
28175SOL    HW288314   1.500   2.528   1.123  0.3416 -0.6059  0.7009
28176SOL     OW88315   0.891   5.661   2.387 -0.3508 -0.4230 -0.4022
28176SOL    HW188316   0.971   5.653   2.335  0.1496  0.7390  0.1357
28176SOL    HW288317   0.855   5.747   2.363  1.1484  1.2696  2.7162
28177SOL     OW88318   6.256   7.843   1.160 -0.4446  0.2805  0.3275
28177SOL    HW188319   6.244   7.872   1.070 -1.9452  1.5141  0.8802
28177SOL    HW288320   6.236   7.749   1.158 -1.6435  0.5344 -0.4286
28178SOL     OW88321   7.331   4.669   8.364  0.4181  0.0136  0.2931
28178SOL    HW188322   7.402   4.724   8.332  0.2659 -0.5853 -1.1556
28178SOL    HW288323   7.374   4.601   8.415  0.8855 -0.2966 -0.5094
28179SOL     OW88324   3.725   8.398   9.306 -0.0947  0.1638  0.2228
28179SOL    HW188325   3.820   8.409   9.312  0.0977 -1.7481  1.5042
28179SOL    HW288326   3.692   8.488   9.300  1.8339  0.8507 -2.2174
28180SOL     OW88327   0.287   2.869   6.674 -0.3226 -0.2390 -0.0849
28180SOL    HW188328   0.316   2.791   6.722 -0.6808 -1.2030 -1.3881
28180SOL    HW288329   0.201   2.845   6.639 -0.2062  0.5457 -0.9433
28181SOL     OW88330   8.556   7.807   8.842 -0.1863  0.0098  0.1805
28181SOL    HW188331   8.621   7.845   8.783 -0.2037 -0.1063  0.0836
28181SOL    HW288332   8.529   7.726   8.797 -0.6255  0.2177  0.0709
28182SOL     OW88333   4.358   1.233   8.599  0.2921 -0.1010 -0.5130
28182SOL    HW188334   4.394   1.261   8.515  0.6748  0.4472 -0.1802
28182SOL    HW288335   4.279   1.185   8.577 -0.2117  0.9730 -1.1371
28183SOL     OW88336   2.519   6.642   7.336  0.3740 -0.0408  0.4858
28183SOL    HW188337   2.614   6.644   7.344  0.3327  1.1272  0.7691
28183SOL    HW288338   2.493   6.565   7.387  1.1946 -0.7421 -0.1050
28184SOL     OW88339   5.487   3.135   2.749 -0.1737 -0.3519  0.5660
28184SOL    HW188340   5.463   3.096   2.665  1.1263  1.5001 -0.7471
28184SOL    HW288341   5.408   3.180   2.778 -0.6380 -1.0201  0.3735
28185SOL     OW88342   1.211   2.983   3.833 -0.0452 -0.7305 -0.1682
28185SOL    HW188343   1.274   2.987   3.760 -1.2110 -0.6400 -1.1988
28185SOL    HW288344   1.258   2.938   3.902  1.8677  1.0557 -0.1884
28186SOL     OW88345   6.787   9.242   8.486  0.3258  0.2496  0.7339
28186SOL    HW188346   6.798   9.336   8.474  0.4692  0.2419  0.8119
28186SOL    HW288347   6.835   9.221   8.566 -1.2054  0.4263  1.7543
28187SOL     OW88348   3.782   8.696   3.946  0.5283  0.0419  0.2714
28187SOL    HW188349   3.815   8.719   3.859 -0.6009 -3.5947 -1.2981
28187SOL    HW288350   3.860   8.682   3.999  1.3246 -0.3847 -0.9692
28188SOL     OW88351   6.516   7.062   4.388  0.3933  0.8882 -0.6214
28188SOL    HW188352   6.600   7.021   4.368  1.0594  2.1426 -0.4943
28188SOL    HW288353   6.470   7.063   4.304  0.7504  0.7422 -0.8228
28189SOL     OW88354   8.040   3.082   7.031 -0.2889  0.3941 -0.8539
28189SOL    HW188355   8.057   3.091   7.125 -1.3938  0.6160 -0.6557
28189SOL    HW288356   8.052   2.989   7.013  0.8770  0.5041 -0.7044
28190SOL     OW88357   1.361   0.085   6.004 -0.2370  0.5389  0.0015
28190SOL    HW188358   1.348   0.009   6.060 -1.6915  0.1182 -0.8415
28190SOL    HW288359   1.302   0.152   6.040  1.5251  1.5551  1.1528
28191SOL     OW88360   1.491   7.796   8.219 -0.3914 -0.2348  0.2242
28191SOL    HW188361   1.562   7.798   8.155 -0.2812  0.6189  0.3647
28191SOL    HW288362   1.414   7.826   8.171 -1.4876 -4.1927 -0.8571
28192SOL     OW88363   8.409   7.516   5.925  0.3999  0.2277 -0.0475
28192SOL    HW188364   8.414   7.435   5.874 -0.3901  0.7609 -1.0036
28192SOL    HW288365   8.483   7.569   5.894  0.8669 -0.0806  0.5185
28193SOL     OW88366   0.707   7.689   3.501  0.1800  0.3145 -0.2040
28193SOL    HW188367   0.677   7.756   3.563  1.2657  0.7977 -0.1862
28193SOL    HW288368   0.800   7.679   3.520  0.0834 -1.0556 -0.3576
28194SOL     OW88369   6.455   9.978   9.106 -0.3514  0.5190 -0.2074
28194SOL    HW188370   6.494  10.054   9.149  1.0985 -0.7614  0.8412
28194SOL    HW288371   6.372  10.011   9.071  0.3076  2.6128  0.0415
28195SOL     OW88372   1.224   9.266  10.112  0.5584 -0.1457 -0.0975
28195SOL    HW188373   1.260   9.243  10.197 -1.2623 -0.1340  0.7284
28195SOL    HW288374   1.139   9.305  10.132 -0.3006 -0.9520 -1.9445
28196SOL     OW88375   8.312   1.344   1.091  0.4599 -0.2237 -0.1705
28196SOL    HW188376   8.246   1.392   1.143 -0.1817  1.0022 -2.0068
28196SOL    HW288377   8.302   1.253   1.119 -0.8778  0.1730  0.7941
28197SOL     OW88378   9.754  10.171   5.309  0.1695  0.5271  0.5589
28197SOL    HW188379   9.727  10.097   5.364 -0.3550  0.7762  0.6438
28197SOL    HW288380   9.793  10.130   5.231  0.7802  0.1726  1.0402
28198SOL     OW88381   9.594   4.751   2.511 -0.4249  0.2520 -0.2789
28198SOL    HW188382   9.518   4.772   2.566 -0.3320  2.2771 -0.8265
28198SOL    HW288383   9.573   4.666   2.472 -1.0056 -0.6907  1.9274
28199SOL     OW88384   2.348   9.874   7.691 -0.0593  0.0164  0.5931
28199SOL    HW188385   2.367   9.967   7.693 -1.6843  0.4750 -1.2951
28199SOL    HW288386   2.276   9.862   7.752 -2.1912  0.7407 -1.5966
28200SOL     OW88387   2.021   7.483   5.637  0.6034 -0.1352 -0.5035
28200SOL    HW188388   2.023   7.574   5.607  1.9481 -0.5404 -1.7105
28200SOL    HW288389   2.065   7.485   5.722 -0.3754  0.4924  0.0195
28201SOL     OW88390   0.721   7.549   4.863 -0.4753  0.1352 -0.5452
28201SOL    HW188391   0.680   7.565   4.947  2.1434  0.0669  0.8726
28201SOL    HW288392   0.768   7.630   4.843  0.1454 -0.3625 -1.1751
28202SOL     OW88393   5.594   5.837   9.940  0.0141  0.2701  0.1858
28202SOL    HW188394   5.654   5.843   9.866 -2.4715  0.8713 -1.9576
28202SOL    HW288395   5.537   5.762   9.918 -2.4061  2.0115  0.0497
28203SOL     OW88396   1.663   4.512   0.567 -0.0198 -0.2306 -0.1975
28203SOL    HW188397   1.638   4.589   0.617  0.2613 -0.5934  0.5223
28203SOL    HW288398   1.629   4.528   0.479 -0.0966  0.6377 -0.0187
28204SOL     OW88399   2.905   4.052   5.644  0.2251 -0.2092 -0.6078
28204SOL    HW188400   2.995   4.075   5.622 -0.1552  1.1435 -0.8670
28204SOL    HW288401   2.858   4.062   5.561 -0.1608 -0.9161 -0.4771
28205SOL     OW88402   4.023   8.259   0.184 -0.1908  0.1466  0.4097
28205SOL    HW188403   4.082   8.333   0.166 -0.1502 -0.1235 -0.6329
28205SOL    HW288404   4.079   8.193   0.224 -0.4078  1.0009  2.1949
28206SOL     OW88405   4.917   6.695   2.672  0.0403 -0.5439  0.4197
28206SOL    HW188406   4.986   6.753   2.639 -0.1456 -0.1256  0.7609
28206SOL    HW288407   4.905   6.630   2.602  1.6326 -1.3581  0.8666
28207SOL     OW88408   7.107   9.511   1.095  0.2499 -0.4306  0.5246
28207SOL    HW188409   7.198   9.514   1.067  0.3532 -1.2410  0.7499
28207SOL    HW288410   7.065   9.451   1.035 -0.2138  0.1692  0.2358
28208SOL     OW88411   1.631   2.919   2.064 -0.3195  0.2488  0.2170
28208SOL    HW188412   1.694   2.905   2.135  0.1440  0.2596 -0.1850
28208SOL    HW288413   1.594   3.005   2.081  1.8016  1.4858 -1.0496
28209SOL     OW88414   9.557   0.943   6.013  0.1596  0.5580  0.0435
28209SOL    HW188415   9.484   0.910   5.960 -0.4037  1.2238  0.3798
28209SOL    HW288416   9.583   0.870   6.068 -0.8801  0.5765  0.5785
28210SOL     OW88417   3.151   5.688   2.143 -0.2932  0.0862 -0.8639
28210SOL    HW188418   3.070   5.694   2.093  0.5325  1.5649 -2.0961
28210SOL    HW288419   3.130   5.729   2.227 -1.1295 -0.6266 -0.7038
28211SOL     OW88420   2.803   6.313   5.959  0.1422 -0.0371  0.3308
28211SOL    HW188421   2.832   6.403   5.973 -0.6965 -0.0172  2.3365
28211SOL    HW288422   2.795   6.277   6.047 -1.1456 -1.5591 -0.3638
28212SOL     OW88423   3.070   8.221   1.985  0.0340 -0.2091  0.5725
28212SOL    HW188424   2.988   8.271   1.979 -0.1168 -0.4749  0.3897
28212SOL    HW288425   3.042   8.130   1.990  0.3255 -0.3153  0.3169
28213SOL     OW88426   2.820   6.704   6.666  0.2903 -0.4040 -0.3204
28213SOL    HW188427   2.800   6.778   6.722 -0.0557 -2.3584  2.3224
28213SOL    HW288428   2.915   6.704   6.659  0.3441 -0.1908  0.3622
28214SOL     OW88429   9.922   8.538   3.331  0.5686  0.3293 -0.0092
28214SOL    HW188430   9.913   8.578   3.418  0.7832 -0.0651  0.1950
28214SOL    HW288431   9.878   8.599   3.272 -0.5081  0.0842  0.5139
28215SOL     OW88432   3.449   0.638   2.680  0.6348  0.1846  0.5214
28215SOL    HW188433   3.528   0.640   2.733  0.0084  1.4293  1.4638
28215SOL    HW288434   3.389   0.699   2.723 -0.5888 -0.1893 -0.5630
28216SOL     OW88435   1.514  10.346   0.423 -0.3419  0.0285  0.2111
28216SOL    HW188436   1.527  10.335   0.329 -1.2355 -2.2952  0.3040
28216SOL    HW288437   1.501  10.440   0.434  2.5087  0.7731 -1.5745
28217SOL     OW88438   6.081   5.876   8.954 -0.6939  0.6567 -0.2302
28217SOL    HW188439   6.095   5.788   8.921 -2.1179  0.2267  0.2617
28217SOL    HW288440   6.108   5.933   8.882 -1.8157 -0.2176 -1.3976
28218SOL     OW88441   8.987   2.790   1.150 -0.1689 -0.2542  0.5470
28218SOL    HW188442   8.901   2.749   1.146 -1.2845  1.9820  0.2954
28218SOL    HW288443   9.006   2.817   1.060  0.5249 -0.1996  0.7036
28219SOL     OW88444   0.761   0.282   5.109  0.3020  0.8563  0.1359
28219SOL    HW188445   0.732   0.283   5.200 -0.7464 -1.7785 -0.1041
28219SOL    HW288446   0.682   0.296   5.057  0.4908  0.0667 -0.3966
28220SOL     OW88447   0.404   7.234   6.924  0.1842 -0.0851 -0.1025
28220SOL    HW188448   0.362   7.298   6.866 -2.0650 -1.1067  0.3229
28220SOL    HW288449   0.371   7.254   7.011 -0.7401 -1.9249  0.0081
28221SOL     OW88450   5.065   4.703   6.753 -0.1188 -0.2359  0.4669
28221SOL    HW188451   5.100   4.728   6.667  0.5712  1.1835  1.1227
28221SOL    HW288452   5.121   4.750   6.815 -2.9471  1.9084  1.5930
28222SOL     OW88453   0.581  10.088   9.001  0.3675  0.1106  0.0975
28222SOL    HW188454   0.492  10.061   9.022  0.6264  0.2470  1.4164
28222SOL    HW288455   0.577  10.183   8.995  0.3955  0.1055 -0.0175
28223SOL     OW88456   7.307   2.406   3.940  0.0751 -0.0494 -0.2986
28223SOL    HW188457   7.249   2.429   4.013 -1.6520 -0.3154 -1.5444
28223SOL    HW288458   7.375   2.352   3.980  0.0500  1.0653  1.3723
28224SOL     OW88459   4.064   2.364   6.481  0.1946 -0.2696  0.1112
28224SOL    HW188460   4.153   2.335   6.461  0.5931  0.8996  0.1152
28224SOL    HW288461   4.057   2.356   6.576 -0.2332 -1.7765 -0.0255
28225SOL     OW88462   9.624   5.118   3.331  0.1308 -0.6031  0.1123
28225SOL    HW188463   9.622   5.024   3.351  2.9721 -0.3471  2.1104
28225SOL    HW288464   9.539   5.151   3.362 -1.7305 -2.7013 -2.3496
28226SOL     OW88465   0.411   9.246   5.433  0.6254 -0.1545  0.1290
28226SOL    HW188466   0.504   9.241   5.412  0.4256 -2.1325 -0.5632
28226SOL    HW288467   0.402   9.325   5.485  2.8729 -0.4610  1.1245
28227SOL     OW88468   3.167   1.536   4.568  0.3115 -0.1563  0.3590
28227SOL    HW188469   3.133   1.494   4.488  2.3726 -3.7082  1.1314
28227SOL    HW288470   3.235   1.596   4.536 -1.7360  1.7302 -0.7139
28228SOL     OW88471   0.130   2.407   2.945 -0.1419  1.1108  0.8100
28228SOL    HW188472   0.149   2.478   2.883 -0.2776 -0.5896 -1.2916
28228SOL    HW288473   0.214   2.363   2.957 -0.5956 -0.1205 -0.2670
28229SOL     OW88474   5.881   6.128   3.115  0.0242 -0.1152 -0.2978
28229SOL    HW188475   5.850   6.187   3.184  0.0722 -1.9931  1.4409
28229SOL    HW288476   5.824   6.051   3.123 -0.3186 -0.1737 -2.7602
28230SOL     OW88477   5.912   2.913   1.016 -0.0500 -0.4128  0.1054
28230SOL    HW188478   5.819   2.902   1.038 -0.4992  1.5606 -0.6107
28230SOL    HW288479   5.915   2.907   0.921  0.1556  1.8382 -0.0718
28231SOL     OW88480   0.757   8.466   9.733  0.3450  0.7240  0.1762
28231SOL    HW188481   0.846   8.495   9.714  1.0901 -0.3767  1.6928
28231SOL    HW288482   0.755   8.459   9.829 -0.5222 -1.7402  0.0477
28232SOL     OW88483   3.369   0.105   0.702  0.4607 -0.2043  0.2665
28232SOL    HW188484   3.450   0.068   0.668  0.3373 -0.9740  0.7846
28232SOL    HW288485   3.357   0.063   0.787  0.4658  1.2566  1.0139
28233SOL     OW88486   1.462   4.806   4.897  0.1933  0.1256 -0.1189
28233SOL    HW188487   1.400   4.738   4.872  0.0564  0.5943 -1.1077
28233SOL    HW288488   1.474   4.858   4.817  2.7331 -0.6289 -0.3199
28234SOL     OW88489   7.589   3.231   3.377  0.2103 -0.4547 -0.0082
28234SOL    HW188490   7.643   3.302   3.342 -0.8237  0.7393  0.7295
28234SOL    HW288491   7.645   3.188   3.443  0.3810  0.5786  0.5392
28235SOL     OW88492   1.179   6.802   0.134  0.3722  0.1277 -0.2687
28235SOL    HW188493   1.175   6.783   0.040 -1.5342 -1.5987  0.0966
28235SOL    HW288494   1.273   6.802   0.154  0.8093 -3.2386 -1.5534
28236SOL     OW88495   7.996   2.230   2.809  0.1916 -0.1615  0.2134
28236SOL    HW188496   7.960   2.149   2.845 -2.5573  0.6649 -0.4200
28236SOL    HW288497   7.920   2.285   2.792  1.9160  2.3634  0.0586
28237SOL     OW88498   7.142   8.345   2.932  0.2706  0.2856  0.1367
28237SOL    HW188499   7.082   8.272   2.950 -1.5146  1.4418 -0.8288
28237SOL    HW288500   7.205   8.309   2.869  1.7267 -1.4390  2.3838
28238SOL     OW88501   5.103   3.351   8.779 -0.3526 -0.1732  0.2958
28238SOL    HW188502   5.041   3.291   8.820 -2.1231  1.4319  0.1280
28238SOL    HW288503   5.060   3.380   8.699  1.4103 -0.3352 -0.7644
28239SOL     OW88504   7.104  10.024   8.627 -0.0823  0.5887  0.1795
28239SOL    HW188505   7.124   9.961   8.696 -0.5564  0.0089 -0.2006
28239SOL    HW288506   7.189  10.055   8.597  0.2687 -1.3205 -0.9387
28240SOL     OW88507   6.311   7.800  10.136  0.3221  0.2507 -0.0075
28240SOL    HW188508   6.345   7.879  10.178  0.0695  0.7693 -0.7746
28240SOL    HW288509   6.221   7.822  10.111  0.6276  0.1297 -1.2795
28241SOL     OW88510   0.531   1.500   3.254  0.9653 -0.0049 -0.2445
28241SOL    HW188511   0.524   1.476   3.161  1.6732 -0.2850 -0.2330
28241SOL    HW288512   0.544   1.595   3.253  1.4209 -0.0639 -0.4644
28242SOL     OW88513   4.783   5.917   6.568 -0.6369  0.4539 -0.3206
28242SOL    HW188514   4.690   5.912   6.544 -0.5135  0.6701 -0.8623
28242SOL    HW288515   4.825   5.851   6.514 -0.3105  1.1506 -0.9432
28243SOL     OW88516   5.431   3.545   3.155 -0.0635 -0.0628  0.0968
28243SOL    HW188517   5.355   3.603   3.154 -0.9979 -1.2310  0.8746
28243SOL    HW288518   5.504   3.603   3.134 -1.0591  1.2350  0.0017
28244SOL     OW88519   6.376   0.343   8.812 -0.2153 -0.3055  0.4957
28244SOL    HW188520   6.377   0.254   8.777  1.2266 -0.1709  0.1459
28244SOL    HW288521   6.418   0.336   8.897  1.2640  0.2574 -0.1547
28245SOL     OW88522   2.508   5.205   3.171  0.2622  0.2429 -0.4832
28245SOL    HW188523   2.519   5.185   3.264 -0.6130 -1.0882 -0.6342
28245SOL    HW288524   2.595   5.228   3.141  0.5400  0.7845  0.6874
28246SOL     OW88525   4.700   3.860   1.082  1.1164 -0.0997  0.1921
28246SOL    HW188526   4.654   3.944   1.087  0.5155 -0.4708  1.0921
28246SOL    HW288527   4.680   3.826   0.995  0.0173 -0.0660  0.4230
28247SOL     OW88528   7.201   7.777   9.333  0.0314  0.0421  0.2421
28247SOL    HW188529   7.141   7.795   9.405 -0.0093  2.0774 -0.2511
28247SOL    HW288530   7.286   7.765   9.375 -0.2354 -0.1789  0.7230
28248SOL     OW88531   7.351   4.212   6.358  0.3494 -0.1390  0.8680
28248SOL    HW188532   7.305   4.154   6.298 -1.9470 -0.0567  2.4143
28248SOL    HW288533   7.444   4.202   6.335 -0.3497 -0.4077 -2.3351
28249SOL     OW88534   2.409   9.560   4.909  0.3612 -0.1105  0.0445
28249SOL    HW188535   2.389   9.473   4.875 -5.1375  0.8704 -0.0547
28249SOL    HW288536   2.345   9.574   4.979  1.6967  3.4877  0.7585
28250SOL     OW88537   0.786   7.584   9.826 -0.0831  0.5728  0.1496
28250SOL    HW188538   0.822   7.509   9.778  1.2604  0.3805  1.3641
28250SOL    HW288539   0.751   7.546   9.906 -0.6478  1.0872  0.1462
28251SOL     OW88540   8.392   7.761   8.183 -0.2127 -0.0986  0.2394
28251SOL    HW188541   8.401   7.849   8.146  0.1406  0.3352  1.3186
28251SOL    HW288542   8.299   7.752   8.201 -0.0274  0.7685  1.7737
28252SOL     OW88543   8.923   5.328   2.636 -0.0570  0.4659 -0.3292
28252SOL    HW188544   8.992   5.387   2.606 -0.6268  0.6370 -1.3315
28252SOL    HW288545   8.861   5.324   2.563  0.8108 -2.7661 -1.0186
28253SOL     OW88546   9.577   2.083   3.584 -0.1348 -0.2556 -0.0718
28253SOL    HW188547   9.553   1.993   3.560  1.5378 -0.5697 -0.7296
28253SOL    HW288548   9.619   2.074   3.670 -0.8390  0.0555  0.3162
28254SOL     OW88549   5.189   1.880   2.807  0.2037  0.5879 -0.4871
28254SOL    HW188550   5.140   1.851   2.731  1.1321 -0.6905 -0.6343
28254SOL    HW288551   5.140   1.847   2.882  0.4165 -0.0098 -0.6074
28255SOL     OW88552   8.643   6.269   5.968 -0.0274 -0.1413  0.1834
28255SOL    HW188553   8.663   6.218   5.889  0.6064  1.5702 -0.8363
28255SOL    HW288554   8.685   6.221   6.039  1.2832 -0.6082 -0.8561
28256SOL     OW88555   8.218   8.869   6.991 -0.0089 -0.0089 -0.2651
28256SOL    HW188556   8.247   8.881   6.900 -0.0876  0.8384 -0.1849
28256SOL    HW288557   8.299   8.873   7.042  0.0326 -0.4622 -0.2922
28257SOL     OW88558   0.637   8.979   5.734  0.1726 -0.2905  0.5577
28257SOL    HW188559   0.697   9.052   5.720  0.6184 -0.4512  1.5237
28257SOL    HW288560   0.607   8.990   5.824  0.8797 -1.7355  0.9958
28258SOL     OW88561   8.666   4.541   9.884 -0.2638  0.0616  0.0643
28258SOL    HW188562   8.640   4.592   9.807 -1.9678 -1.4961 -0.4617
28258SOL    HW288563   8.665   4.450   9.853  0.6833 -0.4653  1.5032
28259SOL     OW88564  10.194   4.327   8.275 -0.4676 -0.1046 -0.0233
28259SOL    HW188565  10.100   4.342   8.284 -1.4463 -3.8665 -2.0386
28259SOL    HW288566  10.221   4.389   8.207 -1.2794  1.3798  0.9436
28260SOL     OW88567   4.519   8.089   5.046 -0.2032 -0.2479  0.0603
28260SOL    HW188568   4.443   8.032   5.055  1.0333 -2.1161 -0.7411
28260SOL    HW288569   4.564   8.082   5.130  0.0965 -0.6999 -0.1341
28261SOL     OW88570   2.630   1.519  10.041 -0.4360  0.0357 -0.4563
28261SOL    HW188571   2.683   1.582  10.090  0.6798 -0.4117 -1.0456
28261SOL    HW288572   2.611   1.449  10.103 -1.0467  0.5876 -0.0107
28262SOL     OW88573   7.091   8.013   4.091 -0.2996  0.3335  0.3043
28262SOL    HW188574   7.093   7.989   4.184 -1.6021  0.6494  0.4333
28262SOL    HW288575   7.116   8.106   4.090 -1.0930  0.5599  0.4468
28263SOL     OW88576   2.094   3.349   1.003  0.0746 -0.2558  0.2586
28263SOL    HW188577   2.122   3.419   0.945  2.6000 -1.6411 -0.3328
28263SOL    HW288578   2.027   3.302   0.954 -1.4924  1.5375  0.5852
28264SOL     OW88579   6.927   5.672   0.260 -0.2994  0.4712  0.4518
28264SOL    HW188580   6.849   5.718   0.290  0.2732  1.8737 -0.1239
28264SOL    HW288581   6.993   5.741   0.251  0.7824 -0.5745  0.2028
28265SOL     OW88582  10.206   9.139   7.692  0.0479 -0.3883  0.4314
28265SOL    HW188583  10.132   9.090   7.656  0.0836 -0.3758  0.3417
28265SOL    HW288584  10.183   9.152   7.784  0.0825 -0.6588  0.4807
28266SOL     OW88585  10.010   9.927   4.311  0.3996  0.1570 -0.0950
28266SOL    HW188586   9.996   9.938   4.217 -1.0138 -0.4232  0.0177
28266SOL    HW288587  10.098   9.890   4.318  0.3398 -0.2447 -1.2301
28267SOL     OW88588   7.176   2.968   3.794  0.6175  0.3616  0.2407
28267SOL    HW188589   7.098   2.944   3.844  0.2105  0.0167 -0.5419
28267SOL    HW288590   7.245   2.978   3.860  0.5460 -1.8623  0.7424
28268SOL     OW88591   8.156   3.789   9.602  0.8099 -0.1512 -1.0522
28268SOL    HW188592   8.153   3.695   9.582 -0.5324 -0.5462  0.7116
28268SOL    HW288593   8.204   3.795   9.684  0.1525  0.5863 -0.6991
28269SOL     OW88594   7.879   2.676   3.516 -0.5386 -0.2336 -0.5937
28269SOL    HW188595   7.798   2.706   3.558 -0.0135 -1.1084  1.1175
28269SOL    HW288596   7.849   2.626   3.440 -1.5026  1.7918 -1.6532
28270SOL     OW88597   3.978  10.327   7.120  0.4316 -0.3042  0.2926
28270SOL    HW188598   4.017  10.245   7.149  0.1356 -1.1019 -1.4591
28270SOL    HW288599   3.888  10.324   7.151  0.8777  0.1678  1.7097
28271SOL     OW88600   2.286   1.436   7.834 -0.6270 -0.2135  0.0002
28271SOL    HW188601   2.352   1.444   7.904 -0.7807 -1.3439  0.2969
28271SOL    HW288602   2.319   1.365   7.779 -0.4059  0.7982 -1.2138
28272SOL     OW88603   3.052   0.332   1.945 -0.1866  0.4842 -0.7875
28272SOL    HW188604   2.990   0.264   1.917 -0.7623  0.4045  0.5959
28272SOL    HW288605   3.012   0.370   2.024  1.5940  0.2936  0.2707
28273SOL     OW88606   8.691   2.080   5.122  0.4092 -0.2999 -0.3351
28273SOL    HW188607   8.601   2.099   5.150  0.0611 -1.6403 -0.4323
28273SOL    HW288608   8.722   2.017   5.188  1.2138  0.0068 -0.4168
28274SOL     OW88609   9.238   6.930   8.108  0.0641  0.1673 -0.6773
28274SOL    HW188610   9.247   6.917   8.013  1.9568  0.0756 -0.5225
28274SOL    HW288611   9.210   7.021   8.117 -1.7058 -0.2692 -1.3529
28275SOL     OW88612   1.496   2.739   1.531 -0.4953 -0.4407  0.6012
28275SOL    HW188613   1.424   2.801   1.534  0.2552  0.4924 -0.0627
28275SOL    HW288614   1.455   2.653   1.543 -1.6210  0.1190  0.8784
28276SOL     OW88615   0.409   4.054   9.796 -0.5024 -0.3285  0.3131
28276SOL    HW188616   0.447   3.968   9.779 -0.1958 -0.4933  1.7710
28276SOL    HW288617   0.402   4.060   9.891 -0.6626  1.1957  0.2375
28277SOL     OW88618   2.347   9.563   5.915  0.1748  0.5770  0.1518
28277SOL    HW188619   2.379   9.640   5.961  1.2366 -0.9442  2.1271
28277SOL    HW288620   2.289   9.519   5.978 -1.2994  0.2972 -1.3218
28278SOL     OW88621   8.332   2.448   1.025 -0.1921 -0.1116  0.6522
28278SOL    HW188622   8.396   2.380   1.004  0.5303  0.7578 -0.0533
28278SOL    HW288623   8.336   2.456   1.121  2.8193  1.7768  0.5147
28279SOL     OW88624   2.994   6.668   2.934  0.2843  0.2215  0.0124
28279SOL    HW188625   3.006   6.679   2.840 -2.1889  0.8620 -0.3255
28279SOL    HW288626   3.029   6.581   2.954 -1.4041 -1.0140 -2.0201
28280SOL     OW88627   3.335   7.724   6.619 -0.3502 -1.0081 -0.7607
28280SOL    HW188628   3.363   7.785   6.551 -0.1230 -2.1408 -1.6949
28280SOL    HW288629   3.281   7.660   6.574 -1.7304 -0.7571  0.4513
28281SOL     OW88630   0.269   8.377   6.562  0.1813  0.2420 -0.1673
28281SOL    HW188631   0.296   8.286   6.572 -1.0186 -0.0196  1.0145
28281SOL    HW288632   0.232   8.381   6.474 -0.9218 -0.7603  0.2211
28282SOL     OW88633   3.900   8.789   9.664  0.0702  0.5944  0.0429
28282SOL    HW188634   3.898   8.885   9.654  1.2100  0.7053  0.7039
28282SOL    HW288635   3.886   8.774   9.757  1.4807  0.2242  0.2214
28283SOL     OW88636   0.747   0.738   4.270 -0.1323 -0.5834 -0.1874
28283SOL    HW188637   0.661   0.776   4.254  0.1832  1.1834  1.8918
28283SOL    HW288638   0.739   0.696   4.355  0.8419 -1.1837 -0.3727
28284SOL     OW88639   2.566   5.891   4.906  0.1006 -0.3257  0.5577
28284SOL    HW188640   2.528   5.965   4.859  2.3612  0.0142 -0.8658
28284SOL    HW288641   2.632   5.855   4.847  0.2893 -2.4052  1.9164
28285SOL     OW88642   5.776   3.044   4.017 -0.0074 -0.2147 -0.5496
28285SOL    HW188643   5.729   2.987   4.078 -1.2149  0.8371 -0.4297
28285SOL    HW288644   5.722   3.043   3.937  0.2957  0.2282 -0.7653
28286SOL     OW88645   4.414   0.710   2.979 -0.0855 -0.0521  0.4216
28286SOL    HW188646   4.403   0.767   2.903  0.1897 -0.1802  0.2825
28286SOL    HW288647   4.484   0.751   3.030 -1.1708  0.7644  1.3046
28287SOL     OW88648   9.884   1.727   0.659  0.1987  0.3290 -0.2008
28287SOL    HW188649   9.797   1.736   0.621 -0.3790 -2.0097  0.4379
28287SOL    HW288650   9.935   1.683   0.592  0.0828 -0.8298  0.4466
28288SOL     OW88651  10.135   2.201   2.669  0.3321 -0.2380  0.2850
28288SOL    HW188652  10.057   2.157   2.635 -0.3065  0.4464  0.8420
28288SOL    HW288653  10.102   2.262   2.735  1.1471  1.3788 -0.7383
28289SOL     OW88654   8.228   6.386   7.699  0.1016 -0.1533 -0.4646
28289SOL    HW188655   8.256   6.318   7.637 -0.3567 -1.4440  0.7021
28289SOL    HW288656   8.220   6.465   7.645  1.3489 -0.8281 -1.7246
28290SOL     OW88657   3.648   1.689   5.433 -0.1491  0.3859 -0.5076
28290SOL    HW188658   3.658   1.720   5.343 -0.6332  0.7167 -0.4478
28290SOL    HW288659   3.616   1.765   5.482  1.7702  0.7300  0.3172
28291SOL     OW88660   2.872   2.729   1.377 -0.5970  0.4896  0.5150
28291SOL    HW188661   2.935   2.725   1.305  1.3070 -0.8826  2.1399
28291SOL    HW288662   2.925   2.749   1.454 -1.9663 -1.7044  2.1416
28292SOL     OW88663   4.620   6.212   2.589 -0.4232  0.2560  0.3864
28292SOL    HW188664   4.531   6.176   2.591 -0.6827  0.7516 -1.0673
28292SOL    HW288665   4.609   6.305   2.606 -0.3795  0.5810 -1.1758
28293SOL     OW88666   6.682   7.413   2.807  0.0618 -0.3837  0.1346
28293SOL    HW188667   6.736   7.397   2.729 -1.5346 -0.6897 -0.9432
28293SOL    HW288668   6.617   7.343   2.805 -1.1789  0.7259  0.6685
28294SOL     OW88669   2.569   0.632   4.667  0.0668 -0.6318 -0.2540
28294SOL    HW188670   2.511   0.644   4.742 -1.8675 -0.2002 -1.7437
28294SOL    HW288671   2.518   0.582   4.604  1.3806 -0.4109 -1.5660
28295SOL     OW88672   2.675   8.025   4.804  0.5112 -0.3558 -0.4257
28295SOL    HW188673   2.733   8.099   4.786 -0.1124  0.2307 -0.0813
28295SOL    HW288674   2.591   8.052   4.768 -0.2114 -0.0776  1.3565
28296SOL     OW88675   4.303   0.224   1.301 -0.7945  0.4899 -0.1535
28296SOL    HW188676   4.273   0.134   1.290  1.9658 -0.6495  0.8100
28296SOL    HW288677   4.394   0.216   1.329 -0.5785  3.5905  0.3966
28297SOL     OW88678   1.669   8.309   3.746  0.0570 -0.4898  0.4281
28297SOL    HW188679   1.647   8.334   3.835 -0.0698  2.2207 -0.2540
28297SOL    HW288680   1.765   8.303   3.745 -0.0001 -1.6037  0.9672
28298SOL     OW88681   6.576   8.225   4.781 -0.1903 -0.2792 -0.1254
28298SOL    HW188682   6.609   8.223   4.691  0.4980  1.4701  0.0358
28298SOL    HW288683   6.644   8.182   4.833 -0.3844 -0.8914 -0.3653
28299SOL     OW88684   2.920   5.078   3.165 -0.3392  0.6300  0.2553
28299SOL    HW188685   2.892   5.146   3.103 -0.6495 -0.4755 -0.8602
28299SOL    HW288686   2.855   5.009   3.156 -0.2745  0.3408  1.6958
28300SOL     OW88687   7.578   4.312   6.138  0.2122 -0.0537 -0.2953
28300SOL    HW188688   7.641   4.379   6.164 -0.1104  0.7227 -1.4509
28300SOL    HW288689   7.623   4.262   6.069 -0.9645  1.5967 -2.4042
28301SOL     OW88690   3.780   2.976   9.195 -0.5029  0.0618 -0.4222
28301SOL    HW188691   3.734   2.893   9.178 -0.3690 -0.2589  0.7294
28301SOL    HW288692   3.725   3.021   9.259  0.1006  0.2678 -0.0409
28302SOL     OW88693   3.174   3.696   0.242  0.1441 -0.0097  0.1574
28302SOL    HW188694   3.265   3.669   0.246  0.1646 -0.0816 -0.5775
28302SOL    HW288695   3.131   3.650   0.314  1.2950  2.5723  2.7279
28303SOL     OW88696   2.308   9.716   1.167  0.6838  0.5736  0.0676
28303SOL    HW188697   2.323   9.664   1.088  2.2536  0.7141  0.2447
28303SOL    HW288698   2.250   9.663   1.221  0.2680  0.1122 -0.8225
28304SOL     OW88699   7.467   4.520   6.988 -0.3245  0.0734  0.2659
28304SOL    HW188700   7.537   4.581   7.012  0.2328 -0.3308 -0.2944
28304SOL    HW288701   7.387   4.572   6.994  0.3827  2.1079 -3.9669
28305SOL     OW88702   5.707   6.751   6.217 -0.1323  0.3962 -0.3884
28305SOL    HW188703   5.710   6.746   6.121 -0.5246  0.7743 -0.4238
28305SOL    HW288704   5.767   6.683   6.246 -0.2338  0.0748 -0.9043
28306SOL     OW88705   5.459   7.487   1.510  0.0349  0.0799 -0.3582
28306SOL    HW188706   5.390   7.425   1.485 -0.6828  0.9070 -0.4615
28306SOL    HW288707   5.492   7.453   1.593 -1.4380  0.3956  0.3990
28307SOL     OW88708   2.204   2.097   3.235 -0.5341 -0.8865 -0.1263
28307SOL    HW188709   2.278   2.157   3.223 -1.3068 -0.2860 -2.6516
28307SOL    HW288710   2.224   2.050   3.316  3.2377 -1.6073 -1.2521
28308SOL     OW88711  10.028   3.147  10.098  0.4721 -0.4446  0.1225
28308SOL    HW188712  10.071   3.135  10.182 -0.0921 -0.2234  0.4421
28308SOL    HW288713   9.953   3.203  10.116 -0.7711 -1.9526 -0.1623
28309SOL     OW88714   5.279   1.332   6.954  0.1397 -0.4323 -0.6307
28309SOL    HW188715   5.320   1.317   7.039  2.1643  0.3982 -1.3934
28309SOL    HW288716   5.229   1.413   6.965 -0.8112 -1.1024  0.1363
28310SOL     OW88717   0.338   4.779   8.068  0.1042  0.1853 -0.3177
28310SOL    HW188718   0.374   4.863   8.095 -0.4089  0.3303 -0.0716
28310SOL    HW288719   0.340   4.725   8.148 -0.8297  0.4117 -0.1266
28311SOL     OW88720   9.311   6.880   5.673  0.2090  0.0292  0.1888
28311SOL    HW188721   9.297   6.902   5.582  0.9686 -0.2817 -0.0103
28311SOL    HW288722   9.315   6.784   5.674  2.4870  0.0670  0.1699
28312SOL     OW88723   8.410   3.907   0.205  0.3150  0.8148  0.1626
28312SOL    HW188724   8.404   4.000   0.183  2.7482  0.7264 -1.2590
28312SOL    HW288725   8.437   3.907   0.297  1.9636  1.6155 -0.2823
28313SOL     OW88726   5.805   2.629   0.692 -0.5911  0.1570 -0.1295
28313SOL    HW188727   5.844   2.709   0.727 -1.6835  0.7172 -0.1417
28313SOL    HW288728   5.832   2.627   0.600  0.6900 -0.3082  0.2323
28314SOL     OW88729   9.931   8.702   6.391  0.2881 -0.0362 -0.3163
28314SOL    HW188730   9.992   8.743   6.330  0.1635  1.1117  0.3131
28314SOL    HW288731   9.985   8.642   6.443  0.5982 -0.1358 -0.7519
28315SOL     OW88732   0.880   0.194   1.840  0.0039 -0.6706  0.1329
28315SOL    HW188733   0.831   0.275   1.832 -0.0598 -0.8080 -1.1039
28315SOL    HW288734   0.815   0.129   1.869 -0.0758 -0.4085  0.5381
28316SOL     OW88735   5.854   2.346   9.506 -0.2921  0.6488  0.0729
28316SOL    HW188736   5.864   2.296   9.426 -1.6674  1.3950 -0.5997
28316SOL    HW288737   5.840   2.436   9.477  0.4145  1.1472  1.1924
28317SOL     OW88738   1.907   2.789  10.297  0.1138  0.7434  0.3400
28317SOL    HW188739   1.900   2.778  10.392 -0.4417  0.0611  0.2257
28317SOL    HW288740   1.818   2.774  10.265  0.2336  1.2735 -0.2624
28318SOL     OW88741  10.150   4.049   1.062 -0.3992 -0.0874 -0.1988
28318SOL    HW188742  10.135   4.083   1.150  0.1400 -0.3255 -0.0063
28318SOL    HW288743  10.133   3.955   1.069  0.0221 -0.1732 -0.2440
28319SOL     OW88744   9.592   9.971   1.641 -0.4050 -0.1655 -0.1907
28319SOL    HW188745   9.503  10.005   1.644 -1.0504 -1.5757 -1.7630
28319SOL    HW288746   9.644  10.040   1.601 -1.3939 -0.4075 -1.9581
28320SOL     OW88747   3.544   4.267   4.811 -0.0936 -0.3035  0.6072
28320SOL    HW188748   3.579   4.310   4.889 -0.1114  1.0488 -0.0993
28320SOL    HW288749   3.604   4.194   4.795  0.5049  0.0279  1.2944
28321SOL     OW88750   4.906   8.312   4.417  0.3376 -0.1477 -0.6831
28321SOL    HW188751   4.906   8.241   4.352  1.8228 -1.3235  0.5289
28321SOL    HW288752   4.883   8.390   4.366 -2.2596 -1.5637 -1.9241
28322SOL     OW88753   0.587   4.032   5.817 -0.1144 -0.1105  0.1333
28322SOL    HW188754   0.525   4.094   5.778 -2.4487 -1.7462  1.0316
28322SOL    HW288755   0.553   4.016   5.905  2.9457  0.6750  1.5853
28323SOL     OW88756   8.746  10.272   5.957 -0.0248  0.3029 -0.1133
28323SOL    HW188757   8.786  10.257   6.043 -0.8388 -1.7872 -0.0382
28323SOL    HW288758   8.814  10.245   5.894 -0.9526 -2.7034  0.0084
28324SOL     OW88759   6.546   0.970   5.737  0.1755  0.2598  0.4955
28324SOL    HW188760   6.537   1.060   5.768 -0.2013  1.1594 -1.9917
28324SOL    HW288761   6.470   0.956   5.681  1.2546 -0.8900 -0.7510
28325SOL     OW88762  10.079   5.211   4.666  0.5651  0.2093 -0.0095
28325SOL    HW188763  10.071   5.298   4.705 -0.4362  1.2123 -2.2489
28325SOL    HW288764   9.990   5.177   4.664  0.8704 -0.6324  0.3129
28326SOL     OW88765   6.693   3.788   2.724 -0.4150  0.0940 -0.0325
28326SOL    HW188766   6.681   3.782   2.629 -0.7723 -0.5064  0.0462
28326SOL    HW288767   6.709   3.697   2.752  0.6939  0.3913  0.3490
28327SOL     OW88768   7.942   5.088   7.855  0.1294  0.2728 -0.2606
28327SOL    HW188769   7.952   5.160   7.918  1.1301  1.9316 -2.2080
28327SOL    HW288770   8.020   5.092   7.801  0.2983 -2.4442 -0.3716
28328SOL     OW88771   6.847   1.105   9.971  0.2586 -0.0576  0.5973
28328SOL    HW188772   6.928   1.108   9.919 -0.8277 -0.6797 -1.2407
28328SOL    HW288773   6.857   1.027  10.025  1.6392  0.8850  1.7777
28329SOL     OW88774   0.297   7.981   0.576  0.3258 -0.3558 -0.0724
28329SOL    HW188775   0.210   7.988   0.615  0.1407  2.5126 -0.7460
28329SOL    HW288776   0.308   7.888   0.556 -1.4523 -1.2014  2.4590
28330SOL     OW88777   1.756   2.733   1.693 -0.2686  0.4937 -0.1434
28330SOL    HW188778   1.665   2.725   1.666 -0.2087 -0.1049 -0.1699
28330SOL    HW288779   1.792   2.800   1.634 -0.6876  0.7419 -0.1233
28331SOL     OW88780   6.132   4.702   2.565 -0.3001  0.1892 -0.4592
28331SOL    HW188781   6.106   4.749   2.486 -1.6338  0.5291  0.1375
28331SOL    HW288782   6.195   4.760   2.608 -1.4930  1.2156 -0.0218
28332SOL     OW88783   4.122   4.441   3.866  0.0165 -0.0550 -0.3625
28332SOL    HW188784   4.216   4.441   3.884 -0.1455 -0.2369  0.5048
28332SOL    HW288785   4.080   4.448   3.952 -0.7970 -2.2099 -0.5012
28333SOL     OW88786   3.295   5.348   6.568  0.2272  0.3819 -0.5110
28333SOL    HW188787   3.360   5.398   6.519  1.3797 -0.7792 -0.2304
28333SOL    HW288788   3.271   5.275   6.510  0.3518 -0.0662 -0.0120
28334SOL     OW88789   3.365   2.757   3.563 -0.5286 -0.4936  0.0840
28334SOL    HW188790   3.397   2.797   3.644 -0.9251  0.3640 -0.1812
28334SOL    HW288791   3.378   2.663   3.577 -0.2728 -0.3342  1.0033
28335SOL     OW88792   2.278   6.372   8.964 -0.5606 -0.4199  0.3733
28335SOL    HW188793   2.296   6.442   8.901 -1.6041 -0.4892 -0.0301
28335SOL    HW288794   2.183   6.374   8.975 -0.3626 -0.1012  2.3398
28336SOL     OW88795   5.367   9.478   0.474  0.4272  0.3197  0.0998
28336SOL    HW188796   5.327   9.456   0.559 -1.8434 -2.0221 -1.4084
28336SOL    HW288797   5.447   9.425   0.472  1.0593  1.1983  1.1647
28337SOL     OW88798   4.588   2.864   6.354 -0.3894  0.6429 -0.3305
28337SOL    HW188799   4.681   2.872   6.335 -0.4509  0.1580 -0.8674
28337SOL    HW288800   4.572   2.929   6.422  0.6820 -0.4942  1.0561
28338SOL     OW88801   9.002   6.435   6.405 -0.3153  0.0163  0.3267
28338SOL    HW188802   9.098   6.443   6.405 -0.3840  1.6187 -1.7056
28338SOL    HW288803   8.986   6.341   6.400  1.1337 -0.2841  0.7316
28339SOL     OW88804   7.023   4.556   1.759  0.0324 -0.1680  0.1377
28339SOL    HW188805   7.090   4.511   1.708  0.8417  0.5401  0.5546
28339SOL    HW288806   7.036   4.526   1.849 -1.8811 -2.0099 -0.1037
28340SOL     OW88807   0.340   2.021  10.237 -0.2912 -0.6103  0.1649
28340SOL    HW188808   0.271   2.040  10.174  1.1504 -1.3523 -1.7404
28340SOL    HW288809   0.342   2.098  10.294 -2.0275 -0.1697 -0.2985
28341SOL     OW88810   5.344   1.826   9.892  0.3964  0.3960 -1.0382
28341SOL    HW188811   5.325   1.915   9.866 -0.2240  0.7059  0.3931
28341SOL    HW288812   5.260   1.781   9.889  0.5589  0.0800 -0.9499
28342SOL     OW88813   3.848   9.271   7.902 -0.0361 -0.3045  0.0044
28342SOL    HW188814   3.876   9.270   7.994  0.8726  0.7511 -0.2361
28342SOL    HW288815   3.833   9.179   7.880 -1.2288 -0.4984  1.4829
28343SOL     OW88816   7.446   8.797   8.266 -0.1451  0.5473 -0.3019
28343SOL    HW188817   7.394   8.843   8.332  1.9750  2.7999 -0.0659
28343SOL    HW288818   7.523   8.766   8.313 -0.1096 -0.6691 -1.1116
28344SOL     OW88819   6.311   8.717   2.407 -0.7731 -0.2770 -0.2269
28344SOL    HW188820   6.351   8.633   2.429 -0.8994 -0.6913 -1.5473
28344SOL    HW288821   6.372   8.782   2.442 -0.8803 -0.8976  1.1784
28345SOL     OW88822   8.299   5.872   3.021 -0.5495 -0.1228  0.7393
28345SOL    HW188823   8.387   5.899   3.046 -0.2670  0.1648 -0.5075
28345SOL    HW288824   8.281   5.920   2.939 -0.7187 -2.3649 -0.6031
28346SOL     OW88825   4.857   2.310   9.453 -0.3139 -0.1446 -0.5303
28346SOL    HW188826   4.859   2.317   9.549  1.1968 -2.6201 -0.3025
28346SOL    HW288827   4.817   2.225   9.436 -1.8959  0.8689 -2.2204
28347SOL     OW88828   2.626   0.752   6.767  0.1133 -0.1342 -0.1383
28347SOL    HW188829   2.586   0.694   6.703 -3.3278  0.9738  0.7915
28347SOL    HW288830   2.624   0.838   6.726  0.4476  0.1437  0.4158
28348SOL     OW88831   5.544   9.705   3.046  0.8795 -0.1210 -0.2807
28348SOL    HW188832   5.497   9.639   3.096 -1.5422  2.0464  0.4734
28348SOL    HW288833   5.568   9.772   3.110 -1.0021  2.0024 -1.6364
28349SOL     OW88834   1.449   5.487   0.526  0.3464  0.2310  0.2726
28349SOL    HW188835   1.458   5.509   0.434  0.6422 -0.2898  0.1769
28349SOL    HW288836   1.429   5.394   0.527 -0.9019  0.4834  0.6800
28350SOL     OW88837   9.148   8.697   1.867 -0.3357  0.0958 -0.2940
28350SOL    HW188838   9.143   8.704   1.772  1.6697 -2.4566 -0.6968
28350SOL    HW288839   9.060   8.717   1.897 -0.8507  1.6709 -2.5902
28351SOL     OW88840   1.431   6.370   6.248  0.0567  0.1985  0.0622
28351SOL    HW188841   1.362   6.436   6.245  0.8635  1.0366 -1.9241
28351SOL    HW288842   1.387   6.289   6.222 -0.0861  0.8880 -2.0709
28352SOL     OW88843   7.804   4.376   7.942  0.5386  0.1550  0.2033
28352SOL    HW188844   7.853   4.421   7.873 -1.1748  1.8768 -0.0024
28352SOL    HW288845   7.807   4.436   8.016 -0.1178 -0.3207  0.6238
28353SOL     OW88846   3.720   9.613   9.190  0.1194  0.0867  0.7179
28353SOL    HW188847   3.735   9.700   9.226 -0.6941  0.5051  0.0665
28353SOL    HW288848   3.803   9.567   9.204  0.3874  0.7955  1.5247
28354SOL     OW88849   6.826   9.615   5.609  0.0625  0.6212 -0.1698
28354SOL    HW188850   6.852   9.677   5.676 -0.6580  0.7232  0.0278
28354SOL    HW288851   6.816   9.668   5.529  1.5326  0.4020 -0.5399
28355SOL     OW88852   0.009   2.669   7.221  0.3491  0.5172 -0.3100
28355SOL    HW188853   0.088   2.615   7.226  1.1454  1.6380 -0.4934
28355SOL    HW288854   0.033   2.752   7.262 -0.5871  1.0422 -0.7745
28356SOL     OW88855   0.340   6.048   5.928  0.0431 -0.2068  0.2795
28356SOL    HW188856   0.287   5.987   5.979  0.5076 -0.8541 -0.0068
28356SOL    HW288857   0.287   6.067   5.851  0.4933 -1.3835 -0.3438
28357SOL     OW88858   7.274   1.757  10.264 -0.0373 -0.1257 -0.4045
28357SOL    HW188859   7.199   1.700  10.249 -0.3887  0.3525 -0.4730
28357SOL    HW288860   7.300   1.740  10.355 -1.0769  0.7058  0.0615
28358SOL     OW88861   4.321   5.512   9.456 -0.1058  0.4453  0.0398
28358SOL    HW188862   4.307   5.604   9.476  2.9727  1.1561 -0.7080
28358SOL    HW288863   4.371   5.479   9.531 -0.8639 -0.5797  0.1269
28359SOL     OW88864   0.156   3.837   3.711 -0.6280 -0.1722  0.9466
28359SOL    HW188865   0.107   3.783   3.649 -0.1425  1.5205 -1.0265
28359SOL    HW288866   0.236   3.787   3.730 -0.1771 -0.1847 -0.8528
28360SOL     OW88867   2.931   7.039   1.313  0.2267 -0.1373 -0.5633
28360SOL    HW188868   2.900   7.105   1.251 -1.6794 -1.2386 -0.8759
28360SOL    HW288869   2.919   6.956   1.268 -1.0459 -0.9677  1.1424
28361SOL     OW88870   1.241  10.004   4.499  0.0864 -0.1726 -0.3088
28361SOL    HW188871   1.221  10.012   4.592 -0.6977 -0.3765 -0.4514
28361SOL    HW288872   1.157   9.982   4.458 -0.3007  2.9762 -1.4928
28362SOL     OW88873   9.597   0.632  10.329  0.3849 -0.1254  0.3347
28362SOL    HW188874   9.544   0.596  10.401  1.1535  1.3105  1.6837
28362SOL    HW288875   9.545   0.705  10.295  1.0087  0.6345  0.9754
28363SOL     OW88876   1.534   9.255   8.116  0.0144 -0.5921  0.8113
28363SOL    HW188877   1.629   9.249   8.129  0.0268 -1.0273  0.5465
28363SOL    HW288878   1.497   9.214   8.195  0.0268  0.2873  1.2892
28364SOL     OW88879   7.765   0.510   4.966 -0.2024 -0.4908 -0.2515
28364SOL    HW188880   7.818   0.551   4.897 -0.6098  0.2187 -0.1560
28364SOL    HW288881   7.684   0.560   4.967 -0.8693 -1.5625 -0.3766
28365SOL     OW88882  10.112   9.976   5.755  0.3029  0.2092  0.0646
28365SOL    HW188883  10.094  10.019   5.838  2.2358  0.5208  0.3813
28365SOL    HW288884  10.101   9.883   5.773  0.5543  0.2867  0.6336
28366SOL     OW88885   4.839   9.566   9.422  0.0254 -0.7796 -0.3404
28366SOL    HW188886   4.790   9.612   9.354  1.8347 -0.6912 -1.6372
28366SOL    HW288887   4.841   9.475   9.394  4.4750 -0.1692 -2.9565
28367SOL     OW88888   8.031   3.517   5.834  0.2287 -0.0740 -0.4663
28367SOL    HW188889   8.063   3.589   5.889 -1.8327  0.9716 -0.5351
28367SOL    HW288890   8.074   3.531   5.749  0.8990  0.2547 -0.0840
28368SOL     OW88891   4.771   4.087   9.858 -0.3974 -0.1761 -0.0255
28368SOL    HW188892   4.721   4.168   9.867  0.2878  0.4104 -1.2855
28368SOL    HW288893   4.714   4.020   9.896 -1.4268  0.7194  0.0797
28369SOL     OW88894   0.051   7.589   1.206 -0.4941  0.2359  0.2461
28369SOL    HW188895   0.047   7.673   1.160 -0.4364  0.1601  0.0995
28369SOL    HW288896   0.115   7.602   1.275 -1.2915  0.6523  0.9321
28370SOL     OW88897   0.279   0.803   3.353 -0.2946 -0.1287  0.3037
28370SOL    HW188898   0.198   0.755   3.369 -1.4169  1.1851 -1.1014
28370SOL    HW288899   0.309   0.772   3.268  0.4442 -0.2604  0.6021
28371SOL     OW88900   5.069  10.266   5.346 -0.2214  0.1183 -0.0290
28371SOL    HW188901   4.995  10.319   5.378  0.2144 -0.1304  1.5012
28371SOL    HW288902   5.146  10.310   5.381  0.3083 -0.0743 -0.9449
28372SOL     OW88903   9.744   6.782   9.745 -0.3661  0.0417  0.0946
28372SOL    HW188904   9.800   6.806   9.819  0.2618  0.9990 -0.6688
28372SOL    HW288905   9.660   6.758   9.785  0.3053 -0.5754  1.1929
28373SOL     OW88906   7.782   1.891   6.852  0.3781  0.1143  0.0364
28373SOL    HW188907   7.696   1.854   6.872 -0.1801  0.6852 -1.1888
28373SOL    HW288908   7.793   1.875   6.758  1.6430  0.0031  0.1933
28374SOL     OW88909   4.772   2.141   7.727 -0.4248  0.2618  0.0426
28374SOL    HW188910   4.696   2.198   7.712 -1.7551 -1.0158  1.5288
28374SOL    HW288911   4.735   2.062   7.766  1.7901 -0.0023  1.7933
28375SOL     OW88912  10.170   3.848   7.865 -0.3346 -0.4854  0.2712
28375SOL    HW188913  10.108   3.873   7.796 -0.0639 -1.2675 -0.2746
28375SOL    HW288914  10.232   3.920   7.869 -1.4270  0.4576  1.0384
28376SOL     OW88915   6.330   3.491   0.767 -0.4068 -0.1097 -0.5380
28376SOL    HW188916   6.250   3.450   0.800 -0.6481 -0.8196 -1.9142
28376SOL    HW288917   6.377   3.420   0.723  0.1933  0.6558 -1.1630
28377SOL     OW88918   7.441   7.787   9.482  0.0933 -0.1462  0.3599
28377SOL    HW188919   7.537   7.790   9.476  0.2870  1.2049  2.7457
28377SOL    HW288920   7.423   7.723   9.550 -0.6829 -0.2065  0.1064
28378SOL     OW88921   3.516   1.258   7.089  0.2761  0.4245  0.4677
28378SOL    HW188922   3.478   1.173   7.112  1.3697  0.0447  0.9495
28378SOL    HW288923   3.602   1.236   7.053 -0.0914  1.2315 -0.9709
28379SOL     OW88924   1.048   7.786   8.317 -0.6591  0.1649 -0.1620
28379SOL    HW188925   1.062   7.694   8.340  0.3119  0.2865 -0.2288
28379SOL    HW288926   1.090   7.835   8.388  0.2966  0.5462 -0.9630
28380SOL     OW88927   0.479   0.003   0.839  0.2286 -0.3254  0.5077
28380SOL    HW188928   0.443   0.043   0.918 -0.3874  0.8230 -0.3251
28380SOL    HW288929   0.471  -0.092   0.854  2.7063 -0.2579  2.9890
28381SOL     OW88930   5.334  10.173   5.905  0.2591  0.0662 -0.2080
28381SOL    HW188931   5.296  10.257   5.933 -2.3938 -0.4138 -2.0107
28381SOL    HW288932   5.346  10.183   5.811  0.5243 -1.3739 -0.3484
28382SOL     OW88933   0.633   3.881   7.878  0.9564  0.1878 -0.2655
28382SOL    HW188934   0.704   3.941   7.905  0.5276  0.8720 -0.6304
28382SOL    HW288935   0.594   3.924   7.802  0.6462 -0.5764 -0.5366
28383SOL     OW88936   8.480   8.712   3.658 -0.6413 -0.2095  0.0686
28383SOL    HW188937   8.477   8.649   3.585 -1.9351 -0.5697  0.4123
28383SOL    HW288938   8.407   8.687   3.714 -2.3445  2.6904 -0.6757
28384SOL     OW88939   2.156   8.275   8.936  0.8422 -0.5359 -0.4666
28384SOL    HW188940   2.115   8.358   8.960  2.0047 -0.3481  1.0710
28384SOL    HW288941   2.114   8.249   8.854 -0.3461  0.9904 -0.3735
28385SOL     OW88942   3.532   3.300   4.041 -0.6492 -0.4336  0.3389
28385SOL    HW188943   3.448   3.255   4.041 -0.8947 -0.0489 -1.2954
28385SOL    HW288944   3.531   3.352   3.960  1.1773 -0.4648  0.2640
28386SOL     OW88945   5.959   5.290   4.021 -0.2493 -0.1051  0.0445
28386SOL    HW188946   5.864   5.300   4.018 -0.5058 -2.0704 -3.0648
28386SOL    HW288947   5.973   5.198   4.042  0.9026 -0.1340 -0.7557
28387SOL     OW88948   1.977   1.280   8.755  0.1814 -0.6391  0.2100
28387SOL    HW188949   1.966   1.224   8.679  1.8735  1.7925 -1.9996
28387SOL    HW288950   1.906   1.345   8.747  0.8140  0.0714  0.2560
28388SOL     OW88951   6.471  10.001   0.128 -0.2672 -0.1974  0.2649
28388SOL    HW188952   6.494  10.093   0.143  0.3536 -0.4001  0.5744
28388SOL    HW288953   6.539   9.951   0.173  0.0864 -0.8227 -0.9259
28389SOL     OW88954   9.646   0.651   9.722  0.5733 -0.2392 -0.1664
28389SOL    HW188955   9.629   0.628   9.814  0.9843 -0.7640 -0.2128
28389SOL    HW288956   9.720   0.595   9.697 -0.5187 -1.2684 -1.2815
28390SOL     OW88957  10.084   0.289   3.537  0.4461 -0.1649  0.4334
28390SOL    HW188958  10.006   0.333   3.503  0.9465  0.8461  0.5483
28390SOL    HW288959  10.091   0.319   3.628  1.5734  0.6446  0.1001
28391SOL     OW88960   3.515   0.101   9.630  0.4517 -1.4300  0.5537
28391SOL    HW188961   3.480   0.128   9.715  1.5192 -0.9828  0.8628
28391SOL    HW288962   3.440   0.061   9.585 -0.8304  0.6941  0.6526
28392SOL     OW88963   7.377  10.134   8.592  0.2793  0.0860  0.1144
28392SOL    HW188964   7.386  10.040   8.575 -0.0565  0.2976 -1.2902
28392SOL    HW288965   7.447  10.154   8.654 -1.1502 -1.5637  2.4384
28393SOL     OW88966   6.448   3.892   1.769  0.1000  0.0735  0.1692
28393SOL    HW188967   6.505   3.891   1.692 -1.5150  0.5689 -1.0891
28393SOL    HW288968   6.406   3.978   1.766 -0.5766 -0.2150  1.1717
28394SOL     OW88969   4.376   7.150   2.570  0.2585  0.9433 -0.1861
28394SOL    HW188970   4.394   7.110   2.655  0.5301  1.4203 -0.0197
28394SOL    HW288971   4.326   7.229   2.591  0.8530  1.3822 -0.4314
28395SOL     OW88972   8.019   0.020   8.049 -0.4351 -0.5267  0.2705
28395SOL    HW188973   8.095  -0.025   8.011 -1.6413 -2.2688 -0.2125
28395SOL    HW288974   7.944  -0.031   8.019 -1.8176  1.1968  0.6716
28396SOL     OW88975   4.056   8.887   0.964 -0.1202  0.5744 -0.1732
28396SOL    HW188976   4.033   8.974   0.996  0.4872  0.8232 -0.4043
28396SOL    HW288977   4.041   8.829   1.039 -1.0244  0.7933 -0.1706
28397SOL     OW88978   0.766   1.075   3.819 -0.2822 -0.0916  0.3658
28397SOL    HW188979   0.726   1.117   3.743 -0.1218 -0.6387 -0.0249
28397SOL    HW288980   0.832   1.016   3.782  1.7435  1.6345  1.0049
28398SOL     OW88981   8.886   1.791   2.088 -0.1096  0.3326  0.2032
28398SOL    HW188982   8.843   1.735   2.023  2.2249 -1.7151  0.2876
28398SOL    HW288983   8.955   1.836   2.040 -0.2260  1.0474  0.6942
28399SOL     OW88984   3.485   5.002   1.574  0.4424  0.2360  0.0411
28399SOL    HW188985   3.478   4.920   1.524  1.3323 -0.0361  0.3563
28399SOL    HW288986   3.513   5.067   1.509 -3.1174  1.0494 -0.9474
28400SOL     OW88987   5.585   1.045   7.953 -0.8461 -0.3215 -0.1966
28400SOL    HW188988   5.639   1.032   8.031  1.1395 -1.0199 -1.6232
28400SOL    HW288989   5.538   0.963   7.942 -1.0801 -0.2447  0.2035
28401SOL     OW88990   9.303   1.066   4.745  0.2029 -0.2403 -0.6710
28401SOL    HW188991   9.244   1.102   4.679 -1.4154 -1.1780  0.1768
28401SOL    HW288992   9.370   1.020   4.695 -0.3062  0.0745 -1.6793
28402SOL     OW88993   7.871   0.134   6.387  0.3858  0.1008 -0.3494
28402SOL    HW188994   7.889   0.227   6.385  1.4882 -0.1085 -1.4069
28402SOL    HW288995   7.792   0.123   6.334  0.5686  0.3791 -0.6810
28403SOL     OW88996   9.201   1.066   7.003 -0.4643  0.2848  1.0047
28403SOL    HW188997   9.251   1.123   7.062  0.4619  0.8480 -0.2680
28403SOL    HW288998   9.247   0.983   7.005  1.0205  0.9883 -0.6633
28404SOL     OW88999   4.133   7.437   9.537  0.2565 -0.1244  0.0869
28404SOL    HW189000   4.166   7.349   9.557 -1.4729 -1.0289 -0.8268
28404SOL    HW289001   4.096   7.467   9.620 -2.3504 -1.7864 -0.3599
28405SOL     OW89002   3.545   4.171   5.654 -0.4789  0.1609 -0.2094
28405SOL    HW189003   3.504   4.205   5.733  0.3778  0.7237  0.0098
28405SOL    HW289004   3.592   4.246   5.617  0.4302 -0.4839 -0.3932
28406SOL     OW89005   8.224   7.056   8.888  0.2334 -0.5179 -0.2200
28406SOL    HW189006   8.280   6.979   8.880  0.4125 -0.3488 -0.6067
28406SOL    HW289007   8.265   7.109   8.955  1.4393  0.3629 -1.5916
28407SOL     OW89008   8.404   6.679   4.522 -0.3291  0.1291 -0.0376
28407SOL    HW189009   8.478   6.736   4.499 -1.0016  1.0409  0.0096
28407SOL    HW289010   8.419   6.600   4.471  0.1535  0.7001 -0.8169
28408SOL     OW89011   3.834   5.968   1.214  0.1497 -0.3253  0.2098
28408SOL    HW189012   3.875   6.029   1.276  0.2382  0.5233 -0.6677
28408SOL    HW289013   3.882   5.886   1.226  2.6208  0.7910 -1.2472
28409SOL     OW89014   5.397   3.568   3.719 -0.5193  0.3774  0.1764
28409SOL    HW189015   5.347   3.510   3.776 -1.3584 -0.3133 -1.2194
28409SOL    HW289016   5.395   3.526   3.634  0.0199  1.7960 -0.5684
28410SOL     OW89017   2.838   8.111   7.708  0.0354  0.4503  1.0076
28410SOL    HW189018   2.926   8.077   7.691  0.7982  2.2763  1.0602
28410SOL    HW289019   2.853   8.200   7.739 -1.7523  0.0424  3.2394
28411SOL     OW89020   6.492   4.601   6.237  0.3109  0.3268 -0.6115
28411SOL    HW189021   6.405   4.567   6.215  0.9311 -0.6837 -1.6597
28411SOL    HW289022   6.545   4.523   6.255  1.1560  0.8753 -0.6307
28412SOL     OW89023   2.516   3.714   6.935  0.4941 -0.0571 -0.3412
28412SOL    HW189024   2.510   3.628   6.977  0.6651 -0.5259 -1.2581
28412SOL    HW289025   2.446   3.765   6.976  1.9408  0.1725  1.9933
28413SOL     OW89026   4.153   3.358   9.154  0.4794  0.2629  0.5683
28413SOL    HW189027   4.239   3.329   9.123 -0.7435 -0.0803 -2.9304
28413SOL    HW289028   4.108   3.278   9.180  0.4053  0.1537  0.1083
28414SOL     OW89029   3.777   3.129   8.975 -0.4095 -0.2624 -0.7003
28414SOL    HW189030   3.794   3.074   9.052  2.0797 -2.3409 -2.5431
28414SOL    HW289031   3.726   3.072   8.916 -0.1145  0.3582 -1.5779
28415SOL     OW89032   0.401   8.135   0.350 -0.4009 -0.6757 -0.6497
28415SOL    HW189033   0.365   8.085   0.423 -2.3618 -0.6404 -1.5395
28415SOL    HW289034   0.476   8.083   0.319 -0.9296 -1.8262 -0.0311
28416SOL     OW89035   6.277   2.811   0.224  0.3502 -0.1564 -0.0923
28416SOL    HW189036   6.306   2.874   0.159  0.5704  0.8488  0.9387
28416SOL    HW289037   6.265   2.730   0.176  1.0742  0.4082 -1.2658
28417SOL     OW89038   7.640   0.181   0.685  0.0285 -0.4528  0.4355
28417SOL    HW189039   7.688   0.158   0.605 -0.4419 -0.3727  0.1309
28417SOL    HW289040   7.653   0.105   0.742 -1.3918 -1.4627 -0.5070
28418SOL     OW89041   6.134   3.862   8.165 -0.0860 -0.5543  0.6835
28418SOL    HW189042   6.208   3.922   8.157  0.1088 -0.7815  0.8127
28418SOL    HW289043   6.127   3.820   8.079  0.3618 -1.0388  0.8823
28419SOL     OW89044  10.226   2.546   3.313 -0.6484  0.2655  0.7056
28419SOL    HW189045  10.244   2.597   3.235 -1.2599 -0.8451 -0.1965
28419SOL    HW289046  10.269   2.462   3.297 -1.0559 -0.0906  1.4173
28420SOL     OW89047   7.843   3.892   0.765 -0.0264  0.2379  0.3019
28420SOL    HW189048   7.805   3.916   0.849 -0.3542 -0.5807  0.4038
28420SOL    HW289049   7.913   3.956   0.750 -0.1909  0.5941  1.0299
28421SOL     OW89050   8.071   1.494   3.838 -0.1104  0.2093  0.6791
28421SOL    HW189051   8.154   1.456   3.869 -0.0513  0.5072  0.8852
28421SOL    HW289052   8.004   1.453   3.893 -0.3716 -1.8918 -1.0628
28422SOL     OW89053  10.010   2.022   9.514 -0.1717  0.2760 -0.5155
28422SOL    HW189054   9.933   2.062   9.553 -0.0334  2.6699 -2.4760
28422SOL    HW289055  10.079   2.032   9.581 -0.8930  0.5390  0.2047
28423SOL     OW89056   7.356   7.065   9.604  0.1690  0.0572 -0.0007
28423SOL    HW189057   7.361   7.104   9.516  0.5494 -1.8524 -0.8627
28423SOL    HW289058   7.411   7.123   9.658  0.5331  0.8554 -1.1667
28424SOL     OW89059   4.426   8.841   9.057 -0.3084 -0.3110 -0.5796
28424SOL    HW189060   4.392   8.913   9.004 -0.0688  0.4789  0.3216
28424SOL    HW289061   4.371   8.766   9.034 -0.8010  0.2441 -1.2471
28425SOL     OW89062   4.418   5.143   4.843 -0.2863  0.2416  1.0979
28425SOL    HW189063   4.441   5.096   4.763  1.1781  2.4989  0.0654
28425SOL    HW289064   4.483   5.115   4.907  0.3181  0.5324  0.6202
28426SOL     OW89065   2.791   5.229   3.373 -0.4786 -0.0306  0.3904
28426SOL    HW189066   2.841   5.308   3.355 -1.5281  0.0405 -2.8822
28426SOL    HW289067   2.840   5.159   3.329  0.1547 -1.2086  2.7843
28427SOL     OW89068   4.289   7.385   9.317  0.4364  0.2455 -0.0339
28427SOL    HW189069   4.363   7.446   9.327 -1.3452  2.4399  0.5952
28427SOL    HW289070   4.229   7.409   9.387  0.5224 -3.7914  1.6763
28428SOL     OW89071   8.598   9.550   9.949 -0.0784  0.0970  0.1395
28428SOL    HW189072   8.582   9.507  10.033  0.2206  1.6079  1.0016
28428SOL    HW289073   8.527   9.518   9.893 -1.0770  0.0735  1.3637
28429SOL     OW89074   9.918   5.125   9.233 -0.1477  0.1397  0.1403
28429SOL    HW189075   9.890   5.154   9.146 -1.6565  1.8443  1.1100
28429SOL    HW289076   9.839   5.087   9.271  0.7598 -1.5137  0.4226
28430SOL     OW89077   8.134   2.956   2.571 -0.1102 -0.2286 -0.3377
28430SOL    HW189078   8.113   3.047   2.594  2.6760  0.3881  0.1185
28430SOL    HW289079   8.136   2.956   2.475  2.2852  0.9355 -0.3774
28431SOL     OW89080   1.096   1.968   0.478 -0.0329 -0.4614 -0.0676
28431SOL    HW189081   1.122   1.875   0.477 -0.3649 -0.5612  0.3047
28431SOL    HW289082   1.033   1.976   0.406  0.5912 -0.3465 -0.6053
28432SOL     OW89083   8.972   2.225   0.645  0.0088  0.7689  0.3438
28432SOL    HW189084   9.006   2.142   0.677  1.7725  0.3799 -2.2534
28432SOL    HW289085   8.901   2.201   0.585 -0.2493  1.2164  0.4601
28433SOL     OW89086   5.900   6.266   8.666  0.5361  0.0931  0.1982
28433SOL    HW189087   5.921   6.173   8.670  0.0575 -0.0298 -0.0458
28433SOL    HW289088   5.944   6.297   8.587  1.9042  0.3977  1.0600
28434SOL     OW89089   2.544   3.269   0.673  0.4347 -0.5218 -0.0801
28434SOL    HW189090   2.570   3.356   0.642  1.3036 -0.7516 -0.0310
28434SOL    HW289091   2.619   3.213   0.652 -0.8367 -1.6685 -1.8166
28435SOL     OW89092   4.609   4.520   8.653  0.0757  0.4902  0.2942
28435SOL    HW189093   4.628   4.614   8.644 -1.2724  1.1514  3.0033
28435SOL    HW289094   4.515   4.513   8.636  0.1836 -0.3998  0.0308
28436SOL     OW89095   2.648   7.714   5.296  0.4168 -0.0329 -0.2039
28436SOL    HW189096   2.689   7.756   5.220 -0.0903  0.5042 -0.1885
28436SOL    HW289097   2.558   7.699   5.269 -0.1693  1.4732  0.7673
28437SOL     OW89098   3.601  10.333   2.350 -0.3071  0.0260 -0.0230
28437SOL    HW189099   3.657  10.404   2.382 -0.4286 -0.1482  0.5810
28437SOL    HW289100   3.599  10.346   2.255  0.7819  0.0224 -0.0669
28438SOL     OW89101   8.889   2.860   0.375  0.8091  0.0242  0.1636
28438SOL    HW189102   8.869   2.927   0.310  1.6259 -1.0047 -1.2197
28438SOL    HW289103   8.815   2.862   0.436  1.0370  2.4592  0.4381
28439SOL     OW89104   8.331   4.372   1.030  0.0174 -0.0737 -0.6363
28439SOL    HW189105   8.317   4.455   1.075 -0.0924  0.0063 -0.8173
28439SOL    HW289106   8.276   4.309   1.077  0.1462 -0.0579 -0.4619
28440SOL     OW89107   5.402   7.902   1.139  0.1899 -0.0372 -0.3189
28440SOL    HW189108   5.428   7.892   1.231 -0.2596  0.8984 -0.0827
28440SOL    HW289109   5.485   7.913   1.092  0.3386  1.0057  0.1781
28441SOL     OW89110   8.565   2.238   1.767 -0.3253  0.5082  0.1082
28441SOL    HW189111   8.536   2.215   1.679  1.1062 -0.1266 -0.2151
28441SOL    HW289112   8.484   2.263   1.812 -1.3504 -0.8926 -0.8457
28442SOL     OW89113   7.484   0.424   7.051  0.6118 -0.3000 -0.2464
28442SOL    HW189114   7.570   0.408   7.089  0.5721 -0.5849 -0.2787
28442SOL    HW289115   7.499   0.422   6.957  0.2971 -1.8639 -0.2769
28443SOL     OW89116   8.545   0.516   6.144 -0.5936 -0.4959 -0.0406
28443SOL    HW189117   8.518   0.518   6.236  1.1924 -0.9020  0.5330
28443SOL    HW289118   8.625   0.568   6.141 -1.3537  0.6628 -1.6547
28444SOL     OW89119   3.509   7.269   0.721 -0.4286  0.1948 -0.3449
28444SOL    HW189120   3.436   7.329   0.738  0.1146  1.0803 -1.0761
28444SOL    HW289121   3.495   7.240   0.631 -0.3649 -0.3402 -0.1866
28445SOL     OW89122  10.159   0.823  10.157 -0.4047  0.6021  0.6885
28445SOL    HW189123  10.199   0.895  10.109 -0.5418  0.9108  1.0308
28445SOL    HW289124  10.099   0.866  10.218 -0.3718  0.2050  1.0033
28446SOL     OW89125   4.241   1.039   0.367 -0.2063  0.3900  0.4002
28446SOL    HW189126   4.267   1.074   0.282 -1.1019  1.9901  0.7440
28446SOL    HW289127   4.287   0.955   0.374 -1.7832 -0.8920 -2.6284
28447SOL     OW89128   6.440   5.252   4.128 -0.2593  0.4015  0.1447
28447SOL    HW189129   6.437   5.188   4.057 -0.8083  0.3713  0.1943
28447SOL    HW289130   6.528   5.242   4.165 -0.2257 -0.0916 -0.0576
28448SOL     OW89131   5.497   3.220   3.343 -0.2033 -0.9369  0.5179
28448SOL    HW189132   5.555   3.162   3.294  0.9713  0.2969  0.3895
28448SOL    HW289133   5.548   3.247   3.419  0.5157  2.2872 -0.9410
28449SOL     OW89134   7.340   4.452   6.128  0.0163 -0.3014  0.1414
28449SOL    HW189135   7.416   4.406   6.164  0.5800  0.4075 -0.1235
28449SOL    HW289136   7.275   4.450   6.199 -0.4890 -2.6119 -0.2768
28450SOL     OW89137   4.026   4.446   3.459 -0.1509 -0.5385  0.6633
28450SOL    HW189138   4.118   4.458   3.437 -0.4785  1.3610  0.1732
28450SOL    HW289139   4.027   4.399   3.543  1.3067  1.0009  1.5579
28451SOL     OW89140   1.028   3.856   9.163 -0.4640 -0.1296 -0.0861
28451SOL    HW189141   0.976   3.905   9.099  0.8391 -2.9995 -3.6898
28451SOL    HW289142   0.963   3.806   9.213 -1.5528  2.5944  1.4097
28452SOL     OW89143   2.046   8.962   3.033 -0.3568  0.2175 -0.5008
28452SOL    HW189144   2.049   8.867   3.033  1.7725  0.1894  1.5396
28452SOL    HW289145   1.963   8.984   3.075 -1.4355 -0.6548 -2.0567
28453SOL     OW89146   4.898   6.420   5.291  0.4880  0.2535 -0.4443
28453SOL    HW189147   4.876   6.511   5.312 -1.3608  0.4521 -2.8224
28453SOL    HW289148   4.949   6.390   5.366 -1.8243  2.1773  2.1009
28454SOL     OW89149   3.721   1.389   0.805 -0.1434 -0.3047 -0.1925
28454SOL    HW189150   3.654   1.449   0.837 -0.8374 -0.4834 -1.2413
28454SOL    HW289151   3.804   1.430   0.830 -0.6305  0.4077  0.2840
28455SOL     OW89152   8.307   5.731   3.467  0.2639  0.1213  0.7487
28455SOL    HW189153   8.391   5.755   3.428  0.3649  0.8302  1.3640
28455SOL    HW289154   8.267   5.670   3.405  0.9955  0.2031  0.1913
28456SOL     OW89155   4.008   4.948   6.320  0.2550  0.4382  0.1996
28456SOL    HW189156   4.067   4.927   6.248  0.5299  1.2089  0.1871
28456SOL    HW289157   3.989   4.864   6.361  0.6671  0.0781 -0.3338
28457SOL     OW89158  10.311   8.639   1.686  0.1217 -0.3507 -0.0403
28457SOL    HW189159  10.361   8.609   1.762  1.0825 -0.8384 -0.8400
28457SOL    HW289160  10.227   8.595   1.693  0.8583 -1.8579 -0.2278
28458SOL     OW89161   8.209   9.631   5.455 -0.6259  0.4316  0.4158
28458SOL    HW189162   8.304   9.646   5.453 -0.4997 -0.2912  0.6423
28458SOL    HW289163   8.190   9.616   5.547 -0.8162 -0.2878  0.2649
28459SOL     OW89164   6.349   6.887   3.008  0.2547  0.4880 -0.0867
28459SOL    HW189165   6.287   6.815   3.009 -1.0956  1.5657  2.2889
28459SOL    HW289166   6.295   6.965   2.999  1.2667  1.4199  1.4720
28460SOL     OW89167   1.925   5.962   4.856 -0.0276  0.1040  0.3693
28460SOL    HW189168   1.985   5.918   4.796  2.6323 -0.0534  2.8971
28460SOL    HW289169   1.929   6.054   4.832 -1.2246 -0.2520 -1.3768
28461SOL     OW89170   7.626   3.497  10.107 -0.8964  0.2929  0.6757
28461SOL    HW189171   7.597   3.552  10.179 -0.4417  2.9772 -1.0715
28461SOL    HW289172   7.549   3.490  10.050 -0.3902  0.8239 -0.0889
28462SOL     OW89173   6.017   2.981   8.002  0.8376 -0.8779 -0.1766
28462SOL    HW189174   6.056   3.059   7.962 -1.0042 -0.7519 -1.9054
28462SOL    HW289175   6.087   2.917   8.004  2.3235  0.6788  1.0134
28463SOL     OW89176   2.387   4.044   0.575  0.1335 -0.0411  0.2307
28463SOL    HW189177   2.359   4.111   0.512 -2.5178 -1.1044  0.1433
28463SOL    HW289178   2.482   4.044   0.569  0.0454  0.3493 -3.2969
28464SOL     OW89179   4.697   1.285   9.477 -0.4005  0.2763  0.0054
28464SOL    HW189180   4.751   1.213   9.445 -2.1899 -0.9398 -0.4321
28464SOL    HW289181   4.672   1.333   9.397 -0.2201  0.6563  0.1732
28465SOL     OW89182   9.029   5.239   7.412  0.1105  0.2050 -0.0051
28465SOL    HW189183   8.978   5.183   7.353 -0.3983  0.2320  0.3966
28465SOL    HW289184   8.964   5.275   7.473  0.3828  1.4399 -0.4098
28466SOL     OW89185   7.576   3.389   4.875  0.3182  0.0272 -0.3950
28466SOL    HW189186   7.625   3.464   4.842 -0.2541  1.1961  1.2904
28466SOL    HW289187   7.507   3.375   4.810  1.6268 -0.3921 -1.7710
28467SOL     OW89188   6.767  10.017  10.063  0.0893  0.4341 -0.1032
28467SOL    HW189189   6.779  10.071  10.141  0.9962  1.3625 -0.8653
28467SOL    HW289190   6.677  10.036  10.035 -0.5843 -0.6226  1.2124
28468SOL     OW89191   9.250   5.053   5.922 -0.4808 -0.3995 -0.3956
28468SOL    HW189192   9.226   5.021   6.009 -0.5077 -1.4048 -0.7596
28468SOL    HW289193   9.294   4.979   5.880  0.7608  0.5003 -0.7622
28469SOL     OW89194   7.518   5.781   9.171  0.0071  0.0742  0.5289
28469SOL    HW189195   7.444   5.820   9.124  0.5015  1.5798  0.9391
28469SOL    HW289196   7.563   5.727   9.106 -1.1674 -0.4938  0.1552
28470SOL     OW89197   1.327   7.868   1.987  0.0074 -0.0314 -0.2836
28470SOL    HW189198   1.305   7.959   2.005 -0.0436 -0.1842  0.4657
28470SOL    HW289199   1.402   7.873   1.928 -1.1191  0.4872 -1.7326
28471SOL     OW89200   6.349   8.674   7.869 -0.1733  0.3845 -0.0607
28471SOL    HW189201   6.399   8.593   7.861 -0.2048  0.3095  0.4325
28471SOL    HW289202   6.271   8.649   7.920 -0.4158  0.6238 -0.3124
28472SOL     OW89203   9.850   6.673   4.057  0.2162  0.3570  0.0206
28472SOL    HW189204   9.864   6.579   4.045 -1.3843  0.0267  0.5703
28472SOL    HW289205   9.910   6.714   3.994  1.4708 -0.9903  0.2897
28473SOL     OW89206   6.121   1.607   7.086 -0.1417 -0.4262 -0.1108
28473SOL    HW189207   6.089   1.695   7.065 -1.4910 -1.1719 -1.3248
28473SOL    HW289208   6.178   1.583   7.014  1.2952 -0.0605  0.8670
28474SOL     OW89209   0.214   4.677   4.497  0.0524 -0.3092  0.1906
28474SOL    HW189210   0.169   4.681   4.581 -1.3666 -0.4349 -0.5196
28474SOL    HW289211   0.256   4.591   4.496  2.9246  0.9273  2.0816
28475SOL     OW89212   5.165   2.898   6.129  0.1246  0.1348 -0.0964
28475SOL    HW189213   5.087   2.870   6.082  0.5674 -0.2149 -0.6390
28475SOL    HW289214   5.238   2.873   6.072  0.6905 -0.6073  0.9050
28476SOL     OW89215   0.030   7.194   3.582  0.1819 -0.4153 -0.3271
28476SOL    HW189216   0.012   7.235   3.667 -1.4297  0.2264 -0.9331
28476SOL    HW289217   0.030   7.100   3.601  1.0533 -0.2481  0.5831
28477SOL     OW89218   8.141   5.870   1.492 -0.3190 -0.1220 -0.3128
28477SOL    HW189219   8.181   5.894   1.408 -1.9072  1.3935 -0.6991
28477SOL    HW289220   8.047   5.882   1.478 -0.6718 -0.5564  1.4701
28478SOL     OW89221   2.515  10.135   6.033 -0.1754  0.0903  0.0924
28478SOL    HW189222   2.544  10.180   5.953  1.4045  1.5414  1.4117
28478SOL    HW289223   2.430  10.175   6.054 -0.0796  0.4828 -0.2527
28479SOL     OW89224   8.041   7.700   1.555 -0.1453 -0.0007 -0.3082
28479SOL    HW189225   7.998   7.639   1.495  2.8573  0.0577 -2.7317
28479SOL    HW289226   8.035   7.785   1.512  0.9582  0.2894  0.0732
28480SOL     OW89227   5.244   2.506   5.865 -0.4335  0.6007  0.1571
28480SOL    HW189228   5.309   2.539   5.804 -1.5134  1.7575 -0.4097
28480SOL    HW289229   5.292   2.493   5.947  0.8207 -0.0408 -0.6469
28481SOL     OW89230   8.188   4.675   8.055 -0.2488 -0.0370 -0.1589
28481SOL    HW189231   8.269   4.694   8.007 -0.2029 -0.5729 -0.3021
28481SOL    HW289232   8.156   4.761   8.084 -0.0939  0.2661 -0.8590
28482SOL     OW89233   8.703   9.559   2.206 -0.1908 -0.0084 -0.1482
28482SOL    HW189234   8.719   9.465   2.208 -0.9684 -0.1961 -1.5003
28482SOL    HW289235   8.702   9.585   2.298  1.5693 -1.0341  0.2049
28483SOL     OW89236   7.011   0.141   5.235  0.2261  0.1630  0.3797
28483SOL    HW189237   7.064   0.125   5.157 -0.8127  0.7096 -0.4644
28483SOL    HW289238   7.038   0.227   5.266 -0.1252  0.4161 -0.0156
28484SOL     OW89239   3.433   4.546   2.461 -0.0166  0.1426  0.2807
28484SOL    HW189240   3.473   4.556   2.547  3.2364  0.3836 -1.1354
28484SOL    HW289241   3.442   4.633   2.421 -1.1754 -0.0560 -0.4494
28485SOL     OW89242   7.382   6.064   7.456 -0.2148 -0.2025 -0.1753
28485SOL    HW189243   7.333   6.112   7.523  1.9987  0.4424  1.0781
28485SOL    HW289244   7.449   6.017   7.504  0.0242 -1.5909 -1.7668
28486SOL     OW89245   4.886   8.450   4.122  0.4826  0.7175  0.1347
28486SOL    HW189246   4.956   8.510   4.097  0.7962  0.3694  0.1662
28486SOL    HW289247   4.863   8.404   4.041  1.1698 -0.0690  0.3692
28487SOL     OW89248   9.018   5.204   6.332  0.7038 -0.3047 -0.1493
28487SOL    HW189249   8.948   5.260   6.299  1.4091  0.8431  0.2624
28487SOL    HW289250   9.096   5.259   6.331  1.5208 -1.4251 -0.1665
28488SOL     OW89251   1.699   6.498   0.353  0.3807  0.3173 -0.0185
28488SOL    HW189252   1.652   6.520   0.272 -0.1605 -2.6539 -0.6425
28488SOL    HW289253   1.704   6.581   0.400 -0.2975  1.9488 -2.5611
28489SOL     OW89254   5.922   2.659   3.929 -0.2192  0.1634 -0.4095
28489SOL    HW189255   5.966   2.701   3.855  0.7068 -1.1133 -0.6271
28489SOL    HW289256   5.943   2.715   4.004  0.5525  0.3829 -0.7771
28490SOL     OW89257   9.109   9.643   1.082  0.2173 -0.1561  0.6424
28490SOL    HW189258   9.016   9.623   1.072  0.2549 -0.2974  0.5718
28490SOL    HW289259   9.154   9.579   1.028  0.3401  0.1196  0.4156
28491SOL     OW89260   6.722   0.017   5.470 -0.0900  0.3259 -0.0565
28491SOL    HW189261   6.723   0.068   5.389  0.5323 -1.3194 -1.1235
28491SOL    HW289262   6.757   0.077   5.536  1.6307  0.9558 -1.4688
28492SOL     OW89263   2.819   6.466   9.647  0.5712  0.2227 -0.4765
28492SOL    HW189264   2.875   6.521   9.702 -0.5049  0.0891  0.8280
28492SOL    HW289265   2.875   6.394   9.619  1.0574  0.0746  0.8235
28493SOL     OW89266   5.828   4.882   9.748 -0.2285  0.0658  0.0862
28493SOL    HW189267   5.828   4.840   9.834  1.0625  0.5164  0.3287
28493SOL    HW289268   5.841   4.810   9.686 -2.8908 -0.5004  0.0910
28494SOL     OW89269   7.487   0.576   0.617  0.2309 -0.0404 -0.2856
28494SOL    HW189270   7.582   0.574   0.606  0.6494  1.5468  2.2520
28494SOL    HW289271   7.472   0.628   0.696 -2.8243  0.6670 -1.1659
28495SOL     OW89272   4.657   2.248   3.625 -0.2932 -0.4716  0.1506
28495SOL    HW189273   4.620   2.327   3.586  1.1785 -0.7794 -2.0126
28495SOL    HW289274   4.736   2.231   3.574 -0.0476 -2.7906  1.2042
28496SOL     OW89275   8.399  10.107   4.353 -0.6545  0.2464 -0.2979
28496SOL    HW189276   8.403  10.145   4.440  0.0464  0.6415 -0.4914
28496SOL    HW289277   8.325  10.047   4.356 -1.4172  1.1802  0.1922
28497SOL     OW89278   2.786   1.975   7.089 -0.6561 -0.2706 -0.5071
28497SOL    HW189279   2.735   1.955   7.168 -0.2918 -1.0221 -0.4520
28497SOL    HW289280   2.733   2.039   7.042 -1.6608 -1.0454 -0.4560
28498SOL     OW89281   3.176   6.314   7.559  0.0776 -0.6394 -0.3423
28498SOL    HW189282   3.154   6.225   7.587  0.8205 -0.9689 -0.7833
28498SOL    HW289283   3.142   6.320   7.470 -2.0393  0.3173  0.4551
28499SOL     OW89284   8.204  10.252   5.949  0.4845 -0.0740  0.1803
28499SOL    HW189285   8.171  10.194   5.881  0.9810 -0.4427  0.2464
28499SOL    HW289286   8.291  10.217   5.970  0.4225  0.1611  0.8506
28500SOL     OW89287   6.641   6.802   5.740 -0.0944  0.2396  0.2481
28500SOL    HW189288   6.624   6.842   5.655 -1.7347 -0.0566  0.4174
28500SOL    HW289289   6.706   6.860   5.781 -1.5017  2.0727 -0.0046
28501SOL     OW89290   5.675   2.799  10.157 -0.1244  0.6565  0.4555
28501SOL    HW189291   5.713   2.816  10.070 -3.2409 -2.4864 -1.8098
28501SOL    HW289292   5.589   2.842  10.153 -0.4414  0.1785  1.8607
28502SOL     OW89293   7.950   6.923   0.269 -0.7712 -0.2097 -0.4082
28502SOL    HW189294   7.987   7.011   0.277  0.8288 -0.8057 -0.9711
28502SOL    HW289295   7.899   6.912   0.350  0.2560  0.6713  0.4009
28503SOL     OW89296   6.321   3.443   9.085 -0.7589  0.3038  0.3936
28503SOL    HW189297   6.395   3.467   9.141 -0.1278  2.3906 -1.2340
28503SOL    HW289298   6.350   3.364   9.040 -1.8467 -2.3478  3.9105
28504SOL     OW89299   7.260   1.684   9.921 -0.0594  0.0868  0.1433
28504SOL    HW189300   7.289   1.771   9.949  0.7086 -0.5869  1.5811
28504SOL    HW289301   7.165   1.686   9.933 -0.0523  0.7418  0.1345
28505SOL     OW89302   2.254   6.979   8.636 -0.8011  0.0261  0.4017
28505SOL    HW189303   2.256   7.039   8.710 -2.4689 -0.3080  0.7607
28505SOL    HW289304   2.164   6.944   8.635 -0.6380 -0.4658 -1.3777
28506SOL     OW89305   5.279   1.726   3.687 -0.8719  0.1522  0.1051
28506SOL    HW189306   5.208   1.780   3.652 -2.0482 -1.4643 -0.1288
28506SOL    HW289307   5.261   1.722   3.781 -0.5351  0.5107  0.1864
28507SOL     OW89308   4.804   1.198   1.004  0.1658 -0.1635  0.2491
28507SOL    HW189309   4.821   1.194   1.099 -1.2278  0.9310  0.5720
28507SOL    HW289310   4.741   1.129   0.988  0.4140 -0.3589  0.1071
28508SOL     OW89311   6.329   0.072   1.323 -0.4477  0.7103 -0.3771
28508SOL    HW189312   6.419   0.105   1.324 -0.7571  1.6496  1.6845
28508SOL    HW289313   6.281   0.134   1.268 -0.2412  1.5029  0.3090
28509SOL     OW89314   0.245   2.022   7.708  0.2184  0.5559  0.2889
28509SOL    HW189315   0.327   1.996   7.666  0.3111 -0.7325  1.1989
28509SOL    HW289316   0.271   2.069   7.786  0.0724  0.9922  0.0780
28510SOL     OW89317   0.930   6.025   9.839 -0.3506  0.2953 -0.0913
28510SOL    HW189318   0.908   5.945   9.791  0.6385  1.7145 -3.1166
28510SOL    HW289319   0.845   6.057   9.871 -0.8587 -1.4673  0.4663
28511SOL     OW89320   9.905   6.837   9.960 -0.1583 -0.4793 -0.0509
28511SOL    HW189321   9.976   6.888   9.998  1.8908 -2.4483 -0.9729
28511SOL    HW289322   9.866   6.790  10.034  0.7610 -0.7916  0.2465
28512SOL     OW89323   9.472   8.913   3.613 -0.7079  0.2211 -0.1137
28512SOL    HW189324   9.377   8.921   3.623 -0.8372  0.2674 -1.2533
28512SOL    HW289325   9.484   8.840   3.552  0.0511 -0.5989  0.9612
28513SOL     OW89326   6.329   6.406   0.073 -0.3354 -0.0443  0.3304
28513SOL    HW189327   6.393   6.467   0.110 -0.0454 -0.0062 -0.2348
28513SOL    HW289328   6.376   6.360   0.003 -1.4253  1.2621 -1.3303
28514SOL     OW89329  10.125   7.028   3.849  0.1831  0.5783 -0.3304
28514SOL    HW189330  10.104   7.113   3.809  1.9349  0.8574 -0.7464
28514SOL    HW289331  10.193   6.992   3.793  0.9938 -0.1201  1.0576
28515SOL     OW89332   3.814   8.530   9.651  0.2760  0.1181  0.0630
28515SOL    HW189333   3.815   8.503   9.743 -0.7255  0.9967  0.3411
28515SOL    HW289334   3.824   8.625   9.653 -1.8767  0.4093 -0.6013
28516SOL     OW89335   1.013  10.282   6.380  0.1780  0.2582  0.3719
28516SOL    HW189336   0.923  10.274   6.349  0.1622  0.9776  0.2032
28516SOL    HW289337   1.037  10.372   6.359  0.5269  0.4433  1.5141
28517SOL     OW89338   7.905   2.580   0.707  0.2961 -0.0602  0.0175
28517SOL    HW189339   7.905   2.507   0.645  1.9676  1.3090 -1.7383
28517SOL    HW289340   7.862   2.546   0.785  0.3906 -2.6761 -0.9787
28518SOL     OW89341   6.183   9.143   8.835  0.4007  0.2041  0.3527
28518SOL    HW189342   6.157   9.186   8.754 -2.5305 -1.0578  0.4679
28518SOL    HW289343   6.230   9.065   8.807 -1.7443 -0.9395 -0.3229
28519SOL     OW89344   4.713  10.161   8.892 -0.3725 -0.1151 -0.3873
28519SOL    HW189345   4.675  10.228   8.949 -0.2315 -0.0994 -0.3102
28519SOL    HW289346   4.707  10.080   8.943 -0.3692 -0.1261 -0.4048
28520SOL     OW89347   0.538   1.088   4.776 -0.7115 -0.4733  0.7088
28520SOL    HW189348   0.579   1.156   4.831 -1.7079  0.6899  0.0661
28520SOL    HW289349   0.505   1.136   4.700  1.2884 -2.1511 -1.3235
28521SOL     OW89350   4.546   5.503   9.297  0.2361  0.5308  0.5502
28521SOL    HW189351   4.509   5.545   9.220  2.5523  0.5940 -0.6204
28521SOL    HW289352   4.471   5.487   9.354 -1.2950  2.3577 -0.7993
28522SOL     OW89353   7.537  10.181   5.490 -0.3292 -0.5016  0.0679
28522SOL    HW189354   7.621  10.219   5.516  0.1904 -1.5457 -0.0465
28522SOL    HW289355   7.559  10.098   5.449 -1.4845 -1.4266  1.2103
28523SOL     OW89356   6.132   0.195   8.680  0.4669  0.2472 -0.0061
28523SOL    HW189357   6.083   0.116   8.701  2.8580 -1.6322 -1.0713
28523SOL    HW289358   6.113   0.255   8.753 -1.5892 -1.1763  0.7156
28524SOL     OW89359   6.873   4.672   0.187  0.7430  0.5677  0.1242
28524SOL    HW189360   6.903   4.759   0.160  0.4441  1.0480  1.2657
28524SOL    HW289361   6.782   4.685   0.212 -0.4075 -0.7707 -2.8464
28525SOL     OW89362   4.825   5.568   7.546 -0.2735 -0.0924 -0.5353
28525SOL    HW189363   4.735   5.539   7.527 -1.0978  0.6192  1.8752
28525SOL    HW289364   4.854   5.610   7.465 -1.4260 -1.8869 -1.9679
28526SOL     OW89365   3.145   0.975   7.795  0.8705 -0.2115  0.6975
28526SOL    HW189366   3.163   0.978   7.889 -0.1839  1.4088  0.9021
28526SOL    HW289367   3.164   1.064   7.764 -1.7010  0.1896  0.0112
28527SOL     OW89368   3.558   8.715   4.064  0.3881  0.3903  0.4839
28527SOL    HW189369   3.642   8.711   4.019 -0.1558  0.6339 -0.5821
28527SOL    HW289370   3.577   8.684   4.153  1.4091 -0.5002 -0.0179
28528SOL     OW89371   9.941   0.837   9.797  0.6034 -0.0203  0.9913
28528SOL    HW189372   9.981   0.767   9.745  0.6793  0.3694  0.5185
28528SOL    HW289373   9.994   0.915   9.777  1.0848 -0.0074  2.1995
28529SOL     OW89374   4.531   9.669   6.956  0.3816 -0.2141  0.1315
28529SOL    HW189375   4.448   9.693   6.915 -0.7394  0.3268  2.5933
28529SOL    HW289376   4.549   9.738   7.019  1.9998 -1.0563  0.6607
28530SOL     OW89377   1.098   5.738   2.646 -0.3740  0.0381  0.6093
28530SOL    HW189378   1.073   5.667   2.587 -0.4133  0.3545  0.2406
28530SOL    HW289379   1.154   5.696   2.711  0.8754 -0.0579 -0.4898
28531SOL     OW89380   3.368   6.530   8.026  0.1980 -0.5998  0.1968
28531SOL    HW189381   3.392   6.445   8.063  1.4474 -0.4316 -0.1760
28531SOL    HW289382   3.297   6.509   7.964  0.6846 -1.4246 -0.1090
28532SOL     OW89383   7.242   4.966  10.339  0.1859  0.2046  0.1443
28532SOL    HW189384   7.162   4.944  10.290 -1.4780  1.4229  2.1208
28532SOL    HW289385   7.253   4.894  10.400 -0.5649  0.9149  1.1566
28533SOL     OW89386   4.039   7.150   8.718 -1.0711  0.2298 -0.0824
28533SOL    HW189387   4.060   7.161   8.811  0.2271  1.1835 -0.4565
28533SOL    HW289388   3.956   7.197   8.706 -0.3796  1.6094  0.2844
28534SOL     OW89389   8.325   4.189   4.017 -0.4640 -0.1169  1.1988
28534SOL    HW189390   8.273   4.144   4.084  0.4631 -1.7111  0.8858
28534SOL    HW289391   8.284   4.164   3.934 -0.7077  0.6689  1.0685
28535SOL     OW89392   1.844   8.863   3.236 -0.0061  0.1508 -0.2203
28535SOL    HW189393   1.857   8.773   3.208 -1.6115 -0.8727  2.1102
28535SOL    HW289394   1.886   8.869   3.322  0.2156  1.6826 -0.3935
28536SOL     OW89395   4.223   3.714   3.074 -0.0797 -0.3190 -0.1206
28536SOL    HW189396   4.315   3.690   3.060  0.5962  0.2612  2.6595
28536SOL    HW289397   4.227   3.801   3.113 -1.8948 -0.0002 -0.5381
28537SOL     OW89398   0.000   2.300   2.554 -0.0192 -0.1963 -0.2186
28537SOL    HW189399  -0.016   2.287   2.461 -0.5452  1.2232 -0.3468
28537SOL    HW289400  -0.078   2.266   2.598 -1.0608  1.7438 -0.4982
28538SOL     OW89401   9.938   5.656   1.424  0.3040  0.1846 -0.4286
28538SOL    HW189402   9.867   5.598   1.396  0.4418  0.2416 -0.9054
28538SOL    HW289403   9.893   5.731   1.464  0.1479 -0.6778  1.0754
28539SOL     OW89404   2.017   7.302   3.527  0.1675  0.1857  0.3432
28539SOL    HW189405   2.090   7.250   3.492 -0.6135 -0.8175  0.1650
28539SOL    HW289406   2.024   7.386   3.480  0.6171 -0.2476 -0.3995
28540SOL     OW89407   0.156   9.885   0.143  0.4241  0.1925  0.1564
28540SOL    HW189408   0.161   9.898   0.238  0.6952 -1.3314  0.3873
28540SOL    HW289409   0.214   9.811   0.126  0.8359  0.8092 -1.2984
28541SOL     OW89410   0.867   0.332   9.156 -0.0624  0.0050 -0.5189
28541SOL    HW189411   0.870   0.282   9.238 -0.3157 -0.7501 -0.9621
28541SOL    HW289412   0.840   0.268   9.090 -0.4445  0.7412 -1.0907
28542SOL     OW89413   9.672   8.140   4.677 -0.3970  0.3542 -0.5906
28542SOL    HW189414   9.667   8.045   4.678  1.1421  0.1899  2.4030
28542SOL    HW289415   9.760   8.161   4.708 -1.1185  2.7246  0.1478
28543SOL     OW89416   9.871   2.987   9.808  0.8423  0.0360 -0.0829
28543SOL    HW189417   9.955   3.033   9.807  0.0592  1.5072 -1.4579
28543SOL    HW289418   9.838   3.000   9.896  1.8692 -0.2324  0.3602
28544SOL     OW89419   0.478   7.463   5.459 -0.0287 -0.3664  0.0499
28544SOL    HW189420   0.432   7.387   5.497 -0.8177  0.2378  0.3426
28544SOL    HW289421   0.455   7.459   5.366  0.6351 -0.9666 -0.0966
28545SOL     OW89422   1.269   8.450   6.391 -0.5826 -0.2538 -0.2934
28545SOL    HW189423   1.244   8.505   6.465  0.5175 -1.1825  0.8127
28545SOL    HW289424   1.262   8.507   6.314 -0.4269  1.1172  0.6876
28546SOL     OW89425   9.416   2.977   5.936  0.7753 -0.1886 -0.1655
28546SOL    HW189426   9.362   2.911   5.980  1.8533 -0.5219  0.7132
28546SOL    HW289427   9.410   2.956   5.843  0.2745 -0.8895  0.0174
28547SOL     OW89428   4.847   5.262   6.115 -0.5109  0.2261 -0.2073
28547SOL    HW189429   4.928   5.223   6.082 -0.7375  0.1276 -0.6478
28547SOL    HW289430   4.783   5.191   6.113 -0.1881 -0.2036  1.8252
28548SOL     OW89431   7.422   9.043   3.515  0.1509  0.5020 -0.5301
28548SOL    HW189432   7.506   9.053   3.471  0.0514 -0.2681 -0.9046
28548SOL    HW289433   7.360   9.093   3.461  0.3749  1.1600 -0.1954
28549SOL     OW89434   9.053   3.614   7.156 -0.4846  0.0453 -0.1323
28549SOL    HW189435   9.109   3.554   7.107  0.7432  1.5526 -0.6558
28549SOL    HW289436   9.075   3.701   7.123 -0.3388  1.0572  2.3820
28550SOL     OW89437   0.624   5.162   1.400  0.1924  0.0906  0.4820
28550SOL    HW189438   0.624   5.067   1.391 -0.8248  0.0911  0.3620
28550SOL    HW289439   0.680   5.193   1.328 -0.0834 -0.3806  0.0591
28551SOL     OW89440   2.083   3.311   3.394 -0.1506 -0.0591 -0.6182
28551SOL    HW189441   2.167   3.283   3.432  0.6918  0.8235 -1.7795
28551SOL    HW289442   2.018   3.284   3.459  0.8342 -2.3877 -0.5007
28552SOL     OW89443   9.710   9.007   4.961 -0.3700  0.0078 -0.2068
28552SOL    HW189444   9.802   9.011   4.988 -0.5067 -0.0255  0.2788
28552SOL    HW289445   9.690   9.095   4.929 -0.0533 -0.1005 -0.7177
28553SOL     OW89446   9.409   0.237   8.656  0.1259  0.0228  0.5451
28553SOL    HW189447   9.333   0.261   8.709  0.0259 -1.2751  1.0300
28553SOL    HW289448   9.483   0.237   8.718  0.0765 -1.1150  0.6333
28554SOL     OW89449   2.199   4.714  10.313 -0.3270  0.2188 -0.5378
28554SOL    HW189450   2.260   4.758  10.254 -0.5829 -0.5522 -1.3881
28554SOL    HW289451   2.253   4.653  10.363 -0.3917 -0.5689 -1.3928
28555SOL     OW89452   3.082   4.393   7.500 -0.9833  0.4142  0.0368
28555SOL    HW189453   3.046   4.413   7.587  2.1032 -0.1205  1.5588
28555SOL    HW289454   3.121   4.306   7.509 -0.7989  0.2446 -1.9808
28556SOL     OW89455   2.692   4.055   2.277 -0.5878 -0.3053 -0.3176
28556SOL    HW189456   2.657   4.130   2.325 -0.7269 -1.0918  0.8674
28556SOL    HW289457   2.781   4.044   2.312 -0.5809 -0.7130 -0.4628
28557SOL     OW89458   3.486   0.786   4.105 -0.1211 -0.1900 -0.6647
28557SOL    HW189459   3.468   0.751   4.018  0.3765 -1.4965 -0.2586
28557SOL    HW289460   3.399   0.801   4.143 -0.3504 -1.0526 -0.8307
28558SOL     OW89461   9.817   5.289   0.752 -0.2257 -0.1809 -0.6259
28558SOL    HW189462   9.774   5.298   0.667 -2.3120 -0.7782  0.3044
28558SOL    HW289463   9.765   5.343   0.811 -0.9873 -2.4879  0.9612
28559SOL     OW89464   3.285   6.117   5.115 -0.1786  0.3763  0.2833
28559SOL    HW189465   3.273   6.211   5.128  0.5701  0.5969 -0.4943
28559SOL    HW289466   3.324   6.110   5.028 -1.2015 -0.7340 -0.1120
28560SOL     OW89467   3.496   4.258   2.432  0.1050 -0.3645 -0.5893
28560SOL    HW189468   3.575   4.265   2.486  1.6650  0.0948 -2.7946
28560SOL    HW289469   3.474   4.348   2.411 -0.8723 -0.5100 -0.2188
28561SOL     OW89470   3.482   0.578   9.088 -1.0498  0.3473  0.0721
28561SOL    HW189471   3.526   0.500   9.055  1.1723  1.7714 -0.5442
28561SOL    HW289472   3.449   0.552   9.174 -2.0644 -1.7965 -0.8806
28562SOL     OW89473   4.679   5.214   6.696  0.0977  0.3461 -0.0424
28562SOL    HW189474   4.662   5.276   6.767 -0.0460 -0.5166  0.6952
28562SOL    HW289475   4.719   5.139   6.739 -2.4174 -1.3274 -0.4218
28563SOL     OW89476   0.708   4.107   9.504 -0.6151  0.1624  0.0458
28563SOL    HW189477   0.737   4.020   9.532 -1.4417 -0.2995 -0.4798
28563SOL    HW289478   0.701   4.157   9.585  2.4031  0.5947  0.1539
28564SOL     OW89479   1.718   1.848   4.269 -0.2854  0.2485  0.3164
28564SOL    HW189480   1.799   1.844   4.218 -1.4423 -1.4617 -1.4974
28564SOL    HW289481   1.651   1.809   4.213 -2.6135  2.3466  1.3857
28565SOL     OW89482   9.623   0.029   7.184  0.1374 -0.2762 -0.2888
28565SOL    HW189483   9.578   0.113   7.188 -0.7903 -0.7727  0.2418
28565SOL    HW289484   9.704   0.043   7.233 -0.0809  0.2649 -0.0698
28566SOL     OW89485   2.517   3.531   2.441  0.3708 -0.2497  0.6243
28566SOL    HW189486   2.542   3.448   2.400  0.8594 -0.0306  0.4708
28566SOL    HW289487   2.597   3.584   2.439 -0.0902  0.4426  0.1892
28567SOL     OW89488   7.848   5.556   5.048  0.0920  0.1497  1.0256
28567SOL    HW189489   7.819   5.642   5.077 -0.5697  1.2055 -2.3197
28567SOL    HW289490   7.935   5.572   5.009 -0.3405 -0.4973 -0.2751
28568SOL     OW89491   5.444   3.259   6.748  0.0610  0.2912  0.2271
28568SOL    HW189492   5.536   3.268   6.725 -0.2295  1.4805 -0.5623
28568SOL    HW289493   5.404   3.214   6.673  0.0427 -0.5368  0.7152
28569SOL     OW89494   3.823   7.489   9.941 -0.3412  0.1497  0.1769
28569SOL    HW189495   3.781   7.534   9.868  1.4108  1.3890 -0.1023
28569SOL    HW289496   3.910   7.527   9.947  1.0702 -2.7962  0.3140
28570SOL     OW89497   6.265   8.988   2.039  0.2855  0.1620 -0.6061
28570SOL    HW189498   6.244   9.079   2.017  0.0792  0.6780  1.5470
28570SOL    HW289499   6.179   8.947   2.054  0.4541  0.2347  0.6457
28571SOL     OW89500   7.216   0.527   6.658 -0.6089  0.2646  0.5472
28571SOL    HW189501   7.230   0.439   6.622  0.5096 -0.2733  2.2031
28571SOL    HW289502   7.125   0.547   6.637 -0.1729 -0.1540 -2.1994
28572SOL     OW89503   0.541   7.613   5.070 -0.1707 -0.7905  0.0219
28572SOL    HW189504   0.573   7.643   5.156  0.5676  0.3836 -0.6373
28572SOL    HW289505   0.470   7.553   5.091 -2.7430  2.4473  1.4755
28573SOL     OW89506   5.042   7.004   9.094 -0.5120  0.1406 -0.2403
28573SOL    HW189507   5.016   6.940   9.159 -1.4249  0.3662 -0.3726
28573SOL    HW289508   5.092   7.070   9.143 -0.6337 -0.0296  0.1142
28574SOL     OW89509   9.598   7.669   2.863 -0.9302 -0.0347  0.3545
28574SOL    HW189510   9.645   7.697   2.785  0.3446  0.8898  1.4113
28574SOL    HW289511   9.638   7.586   2.887 -0.1012  0.5286  0.9904
28575SOL     OW89512  10.111   1.725   9.493  0.5182  0.0078 -0.1003
28575SOL    HW189513  10.148   1.732   9.405  1.2291  1.4360  0.2840
28575SOL    HW289514  10.039   1.788   9.493 -1.4289 -2.0927 -0.5524
28576SOL     OW89515   7.722   8.501   3.417 -0.2508  0.2461 -0.7502
28576SOL    HW189516   7.718   8.586   3.373  1.5091  0.7886  0.0126
28576SOL    HW289517   7.717   8.437   3.346  1.9918  1.0868 -1.7665
28577SOL     OW89518   2.816   3.604   1.793 -0.3119  0.0935 -0.2448
28577SOL    HW189519   2.736   3.623   1.842 -0.7958 -1.7528 -0.2532
28577SOL    HW289520   2.817   3.509   1.785  0.1980  0.2683 -3.1072
28578SOL     OW89521   1.334   0.348   1.826  0.0065 -0.7423 -0.5500
28578SOL    HW189522   1.270   0.328   1.758 -0.6744  2.0279 -0.8747
28578SOL    HW289523   1.323   0.279   1.891 -2.2472 -1.2264 -1.3403
28579SOL     OW89524   3.019   7.641   6.079 -0.0723  0.3089  0.3329
28579SOL    HW189525   2.977   7.597   6.005  2.1509  0.7817 -1.3255
28579SOL    HW289526   2.970   7.723   6.089 -1.3233 -0.4105  0.4231
28580SOL     OW89527   5.896   1.599   5.610 -0.1665 -0.3288 -0.0278
28580SOL    HW189528   5.922   1.640   5.693 -0.0893 -1.4173  0.4965
28580SOL    HW289529   5.977   1.562   5.575 -0.3437 -0.5630 -0.1937
28581SOL     OW89530  10.220   2.163   0.453 -0.0793  0.5918 -0.1206
28581SOL    HW189531  10.132   2.190   0.429 -0.6395  0.5261  1.7416
28581SOL    HW289532  10.213   2.068   0.466  0.7546  0.2478 -1.8781
28582SOL     OW89533   3.782   4.173   8.749 -0.4203  0.3384  0.1752
28582SOL    HW189534   3.819   4.086   8.731  0.9024  0.6059  1.4011
28582SOL    HW289535   3.789   4.219   8.666  2.3902  0.4651  0.3857
28583SOL     OW89536   3.269   7.096   2.380 -0.0886  0.3180 -0.1927
28583SOL    HW189537   3.336   7.158   2.350 -1.7506  0.6746 -3.6606
28583SOL    HW289538   3.229   7.139   2.456  2.6037  0.6930  1.1398
28584SOL     OW89539   7.942   2.565   3.006 -0.5433 -0.7203 -0.2886
28584SOL    HW189540   7.972   2.503   3.072 -0.5041 -1.2926 -0.8276
28584SOL    HW289541   8.013   2.628   2.998 -0.7565 -0.3745  0.5557
28585SOL     OW89542   6.806   1.800   9.364  0.1308  0.3169 -0.5414
28585SOL    HW189543   6.831   1.863   9.297  0.1499  1.0337  0.1199
28585SOL    HW289544   6.805   1.851   9.445 -1.0087 -0.2680 -0.1720
28586SOL     OW89545   1.753   1.863   7.577 -0.2363  0.2084  0.4724
28586SOL    HW189546   1.689   1.886   7.645 -0.0836 -0.8345  0.9945
28586SOL    HW289547   1.705   1.870   7.495  0.1876  3.8531  0.3831
28587SOL     OW89548   2.536   9.330   5.217  0.8849 -0.2896 -0.3409
28587SOL    HW189549   2.495   9.269   5.278  2.1548 -1.0225 -0.1718
28587SOL    HW289550   2.527   9.288   5.131 -0.6850  0.6250 -0.6470
28588SOL     OW89551   5.777   6.975   5.952  0.1236  0.7054  0.7326
28588SOL    HW189552   5.776   7.069   5.967 -1.5776  0.4231  2.8531
28588SOL    HW289553   5.858   6.944   5.992  0.5134  1.1932  0.3354
28589SOL     OW89554   6.587   0.166   8.441  0.3382 -0.5141 -0.0891
28589SOL    HW189555   6.532   0.157   8.363 -1.0251  2.1529  0.4626
28589SOL    HW289556   6.529   0.144   8.514  1.5169 -2.6945  0.2879
28590SOL     OW89557   6.260   4.778   9.455  0.1337 -0.4688 -0.0731
28590SOL    HW189558   6.169   4.806   9.452  0.5965  1.1353 -2.3078
28590SOL    HW289559   6.269   4.732   9.538 -2.2308  0.9444  1.0636
28591SOL     OW89560   0.576   0.026   5.208  0.4294 -0.1131 -0.0286
28591SOL    HW189561   0.580   0.092   5.277 -0.8227 -0.9196  0.8560
28591SOL    HW289562   0.525   0.066   5.138  1.9162  0.8033 -0.6268
28592SOL     OW89563   6.005   1.302   4.934 -0.3337 -0.0468  0.2312
28592SOL    HW189564   5.978   1.377   4.882 -2.5605  0.5046  2.0287
28592SOL    HW289565   5.932   1.286   4.994  0.7102 -2.6889  0.9719
28593SOL     OW89566   6.944   4.369   6.583  0.3199 -0.4462 -0.2069
28593SOL    HW189567   6.875   4.415   6.535 -0.3418  1.4789  2.3784
28593SOL    HW289568   6.996   4.326   6.515 -2.8879 -1.3095 -2.3527
28594SOL     OW89569   8.045   3.893   9.018 -0.1722  0.7854 -0.1138
28594SOL    HW189570   7.960   3.849   9.022  0.0819  0.3300  0.3312
28594SOL    HW289571   8.099   3.837   8.962  0.2055  0.4168  0.5942
28595SOL     OW89572   2.736   7.761   4.770 -0.3294 -0.8442  0.0637
28595SOL    HW189573   2.717   7.844   4.813 -0.0574 -0.4225 -0.6154
28595SOL    HW289574   2.653   7.713   4.772 -0.6496 -0.3052 -0.0744
28596SOL     OW89575   0.137   4.843   5.476  0.2483  0.4978  0.2341
28596SOL    HW189576   0.206   4.866   5.413 -0.4252  0.0471 -0.6977
28596SOL    HW289577   0.071   4.798   5.423 -0.9068  1.1939  1.0444
28597SOL     OW89578   4.441   1.039   4.847  0.1593 -0.0961  0.7138
28597SOL    HW189579   4.468   1.096   4.775 -2.6789  1.8986  1.0326
28597SOL    HW289580   4.456   1.092   4.926 -2.1523  0.1784  1.0499
28598SOL     OW89581   7.607   8.215   4.033 -0.0005  0.0964 -0.5251
28598SOL    HW189582   7.651   8.133   4.010 -0.5766 -0.5891  0.7206
28598SOL    HW289583   7.658   8.251   4.105 -1.4055 -0.7055  0.9394
28599SOL     OW89584   3.425   7.206   8.856 -0.0905  0.5076  0.3802
28599SOL    HW189585   3.337   7.206   8.818  0.0555 -1.7549 -0.0856
28599SOL    HW289586   3.443   7.114   8.875  1.9109  1.0063  1.1430
28600SOL     OW89587   5.312   3.003   2.125 -0.1014  0.3622 -0.8956
28600SOL    HW189588   5.314   2.917   2.084  1.0434 -0.2269  0.3490
28600SOL    HW289589   5.360   3.060   2.065  0.2291 -0.1454 -1.1142
28601SOL     OW89590   9.612   5.403   5.180  0.0610  0.0300  0.7602
28601SOL    HW189591   9.607   5.486   5.133  0.8203 -0.6728 -0.6314
28601SOL    HW289592   9.580   5.423   5.268 -0.3661  1.6402  0.2700
28602SOL     OW89593   4.803   1.132   5.417 -0.0136 -0.7484 -0.3240
28602SOL    HW189594   4.872   1.107   5.478 -0.7059 -2.8617 -0.3234
28602SOL    HW289595   4.800   1.228   5.422  0.8622 -0.7773  1.9320
28603SOL     OW89596   3.474   9.545   4.223 -0.7884  0.2909  0.3964
28603SOL    HW189597   3.507   9.615   4.166 -0.1287 -0.5809 -0.3305
28603SOL    HW289598   3.489   9.577   4.312 -0.3310  0.9947  0.0749
28604SOL     OW89599  10.131   7.976   4.098  0.0469  0.4615 -0.1579
28604SOL    HW189600  10.101   8.047   4.042  0.2165 -0.0616 -0.9256
28604SOL    HW289601  10.222   7.962   4.072  0.4597  0.9146  0.9891
28605SOL     OW89602   0.622   5.903   7.636 -0.0231 -0.7245 -0.3347
28605SOL    HW189603   0.571   5.871   7.562 -1.4296 -0.5681  0.5221
28605SOL    HW289604   0.591   5.851   7.711  1.0855 -0.6230  0.2165
28606SOL     OW89605   5.369   4.002   9.003 -0.3705 -0.5234  0.4612
28606SOL    HW189606   5.341   4.005   9.094 -0.7498 -0.4655  0.3429
28606SOL    HW289607   5.343   4.087   8.967 -0.5613 -0.6898  0.2013
28607SOL     OW89608   5.563   1.741   0.844 -0.5107 -0.3500 -0.0141
28607SOL    HW189609   5.659   1.735   0.841 -0.4186  0.4264 -4.3276
28607SOL    HW289610   5.538   1.772   0.757 -4.6654  0.7669  1.3521
28608SOL     OW89611   9.685   4.830   1.305  0.1958 -0.6358  0.3638
28608SOL    HW189612   9.637   4.751   1.330 -0.9524 -0.2110 -0.4136
28608SOL    HW289613   9.639   4.901   1.349  0.4089 -0.2711  0.0021
28609SOL     OW89614   2.423   1.564   8.074  0.4200 -0.2872  0.0156
28609SOL    HW189615   2.397   1.574   8.166  1.7222 -0.4586  0.4280
28609SOL    HW289616   2.496   1.502   8.077 -0.5643 -1.5809 -1.3200
28610SOL     OW89617   0.423   9.331   4.110 -0.0357 -0.2264  0.1277
28610SOL    HW189618   0.442   9.297   4.197  1.8402 -1.4833 -0.7395
28610SOL    HW289619   0.359   9.270   4.074  0.6513 -0.8124 -0.1000
28611SOL     OW89620   0.372   7.452  10.262  0.4087 -0.0981  0.2173
28611SOL    HW189621   0.375   7.547  10.279  0.0005  0.2981 -1.7264
28611SOL    HW289622   0.353   7.414  10.348  0.7176  1.5599  1.0764
28612SOL     OW89623   0.334   8.114   2.500  0.7134 -0.0132 -0.2286
28612SOL    HW189624   0.394   8.188   2.494 -1.6581  2.2727  1.7694
28612SOL    HW289625   0.351   8.063   2.421  3.5100  1.8109 -0.9459
28613SOL     OW89626   9.514   0.729   6.652 -0.3533 -0.2623 -0.3630
28613SOL    HW189627   9.499   0.655   6.594  2.1902 -0.0854 -1.3291
28613SOL    HW289628   9.427   0.768   6.663 -1.4463 -2.2865 -1.2694
28614SOL     OW89629   3.723   1.234   9.842 -0.7872 -0.3470  0.4464
28614SOL    HW189630   3.685   1.278   9.917 -0.7448  0.0571  0.2352
28614SOL    HW289631   3.809   1.205   9.872 -0.0421  1.3134  0.0696
28615SOL     OW89632   4.769   2.129   3.876 -0.2484 -0.1767  0.4353
28615SOL    HW189633   4.731   2.155   3.793 -0.0372 -0.7890  0.1387
28615SOL    HW289634   4.746   2.199   3.937 -2.2545 -0.7364  0.3793
28616SOL     OW89635   0.792   8.830   9.413  0.6031 -0.2603  0.3560
28616SOL    HW189636   0.750   8.838   9.498 -0.3670  1.7535 -0.2604
28616SOL    HW289637   0.773   8.740   9.385 -0.4968 -0.4165  1.5282
28617SOL     OW89638   8.135   8.822   9.928  0.5433 -0.6843  0.6294
28617SOL    HW189639   8.192   8.745   9.919 -0.2191 -1.1603 -0.3006
28617SOL    HW289640   8.049   8.791   9.898  0.0931  0.3732  0.8083
28618SOL     OW89641   4.892   8.971   9.103  0.9903 -0.7407  0.1041
28618SOL    HW189642   4.864   8.931   9.021  0.4393 -1.0636  0.4442
28618SOL    HW289643   4.976   9.013   9.082  0.2948  0.1789 -0.9210
28619SOL     OW89644   5.095   4.926  10.304 -0.0804  0.4021 -0.1322
28619SOL    HW189645   5.116   5.000  10.360 -0.8058 -0.2420  1.0376
28619SOL    HW289646   5.150   4.938  10.226  0.8820  1.3624  0.6678
28620SOL     OW89647  10.090   0.083   5.670  0.0336 -0.2186  0.2141
28620SOL    HW189648  10.161   0.019   5.668 -0.9319 -1.4479 -3.9303
28620SOL    HW289649  10.011   0.031   5.658 -0.9685  1.5746 -1.4213
28621SOL     OW89650   2.148   7.027   8.310  0.1268  0.0948  0.5915
28621SOL    HW189651   2.241   7.006   8.313  0.0628 -0.5337 -0.8703
28621SOL    HW289652   2.143   7.117   8.343  1.3161  0.3275  0.1971
28622SOL     OW89653   5.858   7.521   1.195  0.1947  0.3122  0.5297
28622SOL    HW189654   5.767   7.529   1.224 -0.5626  0.4093 -1.6717
28622SOL    HW289655   5.867   7.431   1.166  0.1328  0.8281 -1.2100
28623SOL     OW89656   7.636   2.756   3.594  0.1101  0.5598 -0.1268
28623SOL    HW189657   7.577   2.716   3.658  0.3632 -1.2250 -0.9744
28623SOL    HW289658   7.578   2.805   3.536 -0.4577 -0.4601 -0.4338
28624SOL     OW89659   5.109   5.220   3.320  0.3693 -0.2475  0.4477
28624SOL    HW189660   5.079   5.263   3.400 -2.0521  0.1282 -0.5835
28624SOL    HW289661   5.170   5.283   3.281 -0.9432  1.0524  0.3879
28625SOL     OW89662   5.165   2.292   0.759  0.1356 -0.1046 -0.0993
28625SOL    HW189663   5.212   2.325   0.682  1.9720 -0.0575  0.9904
28625SOL    HW289664   5.103   2.362   0.781  1.0480  0.7819 -0.3085
28626SOL     OW89665   5.915   8.251   7.303 -0.1303 -0.4080  0.2653
28626SOL    HW189666   6.009   8.270   7.307 -0.1314 -0.4923  0.7734
28626SOL    HW289667   5.878   8.326   7.256  0.3166 -0.8550 -0.8319
28627SOL     OW89668   9.873   0.657   5.616  0.1873 -0.1625  0.1362
28627SOL    HW189669   9.859   0.741   5.660  1.4243 -0.1135  0.4719
28627SOL    HW289670   9.870   0.592   5.687  0.4145 -0.2712  0.0484
28628SOL     OW89671   3.238   9.915   3.796  0.5213 -0.1509 -0.1755
28628SOL    HW189672   3.241   9.873   3.882 -1.5642 -0.0505  0.0010
28628SOL    HW289673   3.144   9.924   3.777  0.9314  1.1845 -1.7952
28629SOL     OW89674   3.089   3.929   7.674 -1.2745 -0.1617  0.3254
28629SOL    HW189675   3.167   3.882   7.701 -0.0442  1.7461  0.3098
28629SOL    HW289676   3.064   3.889   7.591  0.3858 -0.0700 -0.2478
28630SOL     OW89677   4.136   0.478   7.052 -0.1110  0.0683 -0.2838
28630SOL    HW189678   4.199   0.528   7.105 -1.9818  0.7194  1.4637
28630SOL    HW289679   4.091   0.544   7.000 -0.0122 -0.2857 -0.8305
28631SOL     OW89680   8.054   2.654   5.441  0.1203  0.0948 -0.2784
28631SOL    HW189681   8.066   2.566   5.406  1.5509 -0.1898  0.8373
28631SOL    HW289682   7.959   2.662   5.455 -0.1686 -0.7799 -1.5624
28632SOL     OW89683   0.960  10.248   1.343  0.4372 -0.0256 -0.1265
28632SOL    HW189684   1.024  10.295   1.289  1.0085 -0.2347  0.3633
28632SOL    HW289685   0.905  10.201   1.280  0.3972  0.6120 -0.5797
28633SOL     OW89686   7.542   0.441   3.808  0.3300  0.1704  0.2303
28633SOL    HW189687   7.605   0.491   3.859 -0.7109  0.5778  1.1624
28633SOL    HW289688   7.517   0.368   3.866 -0.1258  0.0725 -0.0842
28634SOL     OW89689   2.185   4.267   1.805 -0.0825 -0.0774 -0.4821
28634SOL    HW189690   2.163   4.342   1.860 -1.1520 -0.2880 -0.6016
28634SOL    HW289691   2.215   4.200   1.867  1.4306  0.6095 -0.4225
28635SOL     OW89692   9.363   9.420   1.769 -0.1414 -0.3074 -0.0609
28635SOL    HW189693   9.360   9.510   1.799 -1.2944  0.0187 -1.0608
28635SOL    HW289694   9.321   9.369   1.838 -1.8844  0.2968 -0.6252
28636SOL     OW89695   1.148   4.549   5.092 -0.1012  0.1556  0.4957
28636SOL    HW189696   1.141   4.612   5.020 -2.0739 -0.0675  0.4284
28636SOL    HW289697   1.058   4.525   5.112  0.5313 -2.1735  0.9430
28637SOL     OW89698   8.231   5.179   1.279  0.3328 -0.6240 -0.1735
28637SOL    HW189699   8.252   5.217   1.364  0.0515 -0.9181  0.0302
28637SOL    HW289700   8.279   5.232   1.216 -0.7774  0.6734  0.0161
28638SOL     OW89701   1.176   8.811   2.255 -0.3471 -0.2996 -0.1272
28638SOL    HW189702   1.257   8.863   2.255  0.2510 -1.1913  0.6185
28638SOL    HW289703   1.115   8.862   2.202  0.5257  0.6739 -0.2399
28639SOL     OW89704   3.671   8.245  10.227  0.1286 -0.1265 -0.1989
28639SOL    HW189705   3.597   8.302  10.207  0.6076 -0.1543 -2.2802
28639SOL    HW289706   3.706   8.220  10.141  2.3392 -0.3890  0.7075
28640SOL     OW89707   4.049   7.658   0.185  0.5881 -0.5065  0.1779
28640SOL    HW189708   3.975   7.634   0.242  0.5525  2.2169  1.4417
28640SOL    HW289709   4.123   7.667   0.244  2.0229 -3.1549 -1.0749
28641SOL     OW89710   9.808   5.385   6.290  0.4160 -0.5594  0.7199
28641SOL    HW189711   9.789   5.292   6.300  0.5554 -1.0883 -2.8338
28641SOL    HW289712   9.903   5.391   6.299  0.3765 -0.6812  1.2655
28642SOL     OW89713   3.635   8.704   5.487  0.1110 -0.2648 -0.1243
28642SOL    HW189714   3.580   8.780   5.506  0.6888  0.6820 -1.9322
28642SOL    HW289715   3.623   8.689   5.393  0.6287 -1.9144  0.0507
28643SOL     OW89716   5.018   0.673   1.897  0.6722 -0.1226 -0.2310
28643SOL    HW189717   5.105   0.682   1.935  0.6142 -0.5795  0.0172
28643SOL    HW289718   4.978   0.601   1.945 -0.4497  1.1127  0.8011
28644SOL     OW89719   0.881   7.027   6.489  0.0547 -0.6291 -0.3605
28644SOL    HW189720   0.868   6.937   6.459 -0.6508 -0.6676  0.0519
28644SOL    HW289721   0.915   7.073   6.412  0.7664 -1.3201 -0.4797
28645SOL     OW89722   6.637   4.895   7.673 -0.0197 -0.1497  0.3865
28645SOL    HW189723   6.603   4.837   7.604  2.0017 -0.0436 -0.7716
28645SOL    HW289724   6.727   4.867   7.686  0.7306  2.1196  0.4627
28646SOL     OW89725   3.231   0.512   9.671 -0.6377 -0.5743  0.5479
28646SOL    HW189726   3.202   0.470   9.590 -0.6052 -1.3122  0.9178
28646SOL    HW289727   3.205   0.604   9.660 -1.3064 -0.8153  0.0200
28647SOL     OW89728   9.562   2.560   5.883 -0.1135 -0.0105  0.1867
28647SOL    HW189729   9.618   2.522   5.815  0.9442  0.9604  0.4903
28647SOL    HW289730   9.491   2.601   5.836 -1.1982 -2.1458 -0.1706
28648SOL     OW89731   6.763   3.001   1.091  0.2221  0.1354 -0.1856
28648SOL    HW189732   6.692   2.950   1.131  0.0801  1.3273  1.1777
28648SOL    HW289733   6.790   2.950   1.015 -2.3022 -0.2348 -0.9246
28649SOL     OW89734   8.817   6.461   6.708 -0.3627 -0.1630 -0.4203
28649SOL    HW189735   8.792   6.393   6.645 -3.7986 -0.1919  0.7543
28649SOL    HW289736   8.792   6.425   6.793 -1.3561  2.1120  0.3426
28650SOL     OW89737   3.821   6.741   4.144  0.4780 -0.0213  0.6793
28650SOL    HW189738   3.870   6.673   4.097  1.1763  0.6461  0.4323
28650SOL    HW289739   3.729   6.717   4.131  0.7229 -1.1281  0.9108
28651SOL     OW89740  10.203   0.447   9.607 -0.0346  0.1356 -0.1566
28651SOL    HW189741  10.271   0.469   9.670  2.3177 -1.7876 -1.8424
28651SOL    HW289742  10.159   0.371   9.644  0.8470 -0.5316 -0.4560
28652SOL     OW89743  10.001   9.221   8.927 -0.0574 -0.0174 -0.7475
28652SOL    HW189744  10.032   9.237   9.016  1.8996 -0.2501 -1.3497
28652SOL    HW289745  10.034   9.134   8.905 -0.7108 -0.0572 -1.6282
28653SOL     OW89746   1.892   7.707   5.470  0.5733 -0.5125 -0.3435
28653SOL    HW189747   1.986   7.714   5.480  0.5239 -0.3146 -0.0031
28653SOL    HW289748   1.880   7.667   5.384  0.9755 -1.0190 -0.1712
28654SOL     OW89749   9.024   7.729   3.640 -0.0596  0.3198  0.5442
28654SOL    HW189750   8.998   7.723   3.732  0.1477  2.5659  0.8153
28654SOL    HW289751   8.976   7.659   3.597 -0.4752 -0.5251  2.2885
28655SOL     OW89752   0.631   9.626   9.627 -0.4215 -0.3210 -0.3317
28655SOL    HW189753   0.719   9.613   9.591 -0.4495  1.7162 -1.3447
28655SOL    HW289754   0.582   9.666   9.554 -2.1705 -1.3149  0.2457
28656SOL     OW89755   8.353   0.929   1.764 -0.3321 -0.1728  0.4958
28656SOL    HW189756   8.363   0.839   1.730  2.0225  0.2958 -0.2931
28656SOL    HW289757   8.438   0.948   1.805 -0.8214  1.6443  0.7439
28657SOL     OW89758   5.265   3.918  10.351  0.5329  1.0083 -0.1541
28657SOL    HW189759   5.191   3.908  10.291  0.9316 -0.8278 -0.4100
28657SOL    HW289760   5.300   4.004  10.331 -1.4473  1.8858 -0.1119
28658SOL     OW89761   1.061   2.570   0.768  0.4269 -0.3726  0.1730
28658SOL    HW189762   1.025   2.658   0.759  0.7518 -0.0465  1.8418
28658SOL    HW289763   1.144   2.573   0.720 -0.8519 -0.6602 -2.2708
28659SOL     OW89764   4.789   5.579   6.872  0.1138 -0.2939 -0.0701
28659SOL    HW189765   4.763   5.488   6.861  1.5748 -0.9063  1.1529
28659SOL    HW289766   4.739   5.627   6.806 -0.1333 -2.0735 -1.2312
28660SOL     OW89767   1.008   4.589   9.760  0.1110 -0.0527  0.2003
28660SOL    HW189768   1.101   4.588   9.734  0.0232 -3.1211 -0.4537
28660SOL    HW289769   1.003   4.523   9.829 -1.5400  0.3992  0.5360
28661SOL     OW89770   1.891   6.790   9.610  0.1775 -0.5979 -0.0710
28661SOL    HW189771   1.957   6.723   9.625  1.5626  0.6952 -0.1125
28661SOL    HW289772   1.939   6.862   9.568 -1.6255 -0.2922 -1.7123
28662SOL     OW89773   1.490   3.090   6.706  0.0933 -0.2542 -0.3204
28662SOL    HW189774   1.458   3.031   6.637 -0.6318  0.7340 -0.8425
28662SOL    HW289775   1.507   3.031   6.780 -0.3480 -1.1665 -0.9147
28663SOL     OW89776   7.517   2.040   2.880 -0.0270 -0.4202 -0.0238
28663SOL    HW189777   7.460   2.067   2.952  0.6558  0.4379  0.2178
28663SOL    HW289778   7.475   2.074   2.801  0.0442  0.0376  0.1329
28664SOL     OW89779   8.967   9.385   1.791 -0.3239 -0.0378 -0.1644
28664SOL    HW189780   9.002   9.412   1.706 -1.0096  1.3396 -0.0486
28664SOL    HW289781   8.882   9.346   1.771 -0.6669  0.6527 -0.1053
28665SOL     OW89782  10.230   4.833   7.457  0.0932 -0.4478  0.1217
28665SOL    HW189783  10.283   4.872   7.526 -1.0851  0.5092  0.5275
28665SOL    HW289784  10.247   4.888   7.380  0.4319 -0.7343 -0.0081
28666SOL     OW89785  10.348   3.721   8.293  0.2092  0.0179  0.7751
28666SOL    HW189786  10.421   3.766   8.251 -0.7403 -0.1529 -1.1520
28666SOL    HW289787  10.279   3.787   8.301  0.0015 -0.2293  1.0943
28667SOL     OW89788   1.716   1.285   0.663 -0.1503 -0.6060 -0.0909
28667SOL    HW189789   1.765   1.213   0.703  0.0464  0.1222  1.0065
28667SOL    HW289790   1.630   1.281   0.705 -0.4694 -0.7878 -0.7400
28668SOL     OW89791   9.260   8.890   2.318  0.0416 -0.3756  0.3370
28668SOL    HW189792   9.316   8.936   2.380 -2.0881  1.7040  0.8646
28668SOL    HW289793   9.321   8.845   2.260  2.1552 -0.2730  2.3428
28669SOL     OW89794   0.337   9.416   6.848  0.2177 -0.2052  0.3218
28669SOL    HW189795   0.425   9.379   6.847 -0.7122 -2.6809  1.4061
28669SOL    HW289796   0.329   9.462   6.764  2.4990  0.0468  0.2027
28670SOL     OW89797   0.358   8.886   3.935  0.5663 -0.2255 -0.2029
28670SOL    HW189798   0.396   8.928   3.858 -2.2887  0.3423 -1.4373
28670SOL    HW289799   0.294   8.825   3.899 -2.0940  1.2942  1.6679
28671SOL     OW89800   8.100   2.797   9.431  0.1122  0.0781  0.5820
28671SOL    HW189801   8.111   2.887   9.400  1.5046 -0.3930 -0.3525
28671SOL    HW289802   8.016   2.769   9.393  0.3468  0.5162 -0.2912
28672SOL     OW89803   3.734   6.774   3.342 -0.2261 -0.1892  0.0935
28672SOL    HW189804   3.775   6.771   3.429  0.5941  0.1339 -0.2748
28672SOL    HW289805   3.736   6.683   3.311 -0.7951 -0.3570  0.5320
28673SOL     OW89806   2.143   9.491   4.635  0.6561 -0.3303  0.3577
28673SOL    HW189807   2.159   9.585   4.639  1.8156 -0.4920 -0.2468
28673SOL    HW289808   2.084   9.479   4.561  0.4111 -0.0731  0.5108
28674SOL     OW89809   4.349   3.038   8.759 -0.1382  0.3606 -0.1681
28674SOL    HW189810   4.379   2.947   8.758 -0.1184  0.3357  0.8029
28674SOL    HW289811   4.304   3.050   8.676 -0.4772 -0.6591 -0.1506
28675SOL     OW89812   8.867   0.554   9.148  0.3138 -0.2022  0.3502
28675SOL    HW189813   8.879   0.553   9.053 -1.5772 -0.1508  0.0802
28675SOL    HW289814   8.956   0.545   9.184  1.2113  1.1884 -1.3914
28676SOL     OW89815   6.286   3.180  10.234 -0.4576 -0.1965 -0.1003
28676SOL    HW189816   6.208   3.124  10.234  1.0921 -2.4991  0.4039
28676SOL    HW289817   6.352   3.129  10.186  1.0889  1.1442  0.5070
28677SOL     OW89818   5.407   5.131   9.312  0.1380  0.2161  0.8495
28677SOL    HW189819   5.462   5.201   9.346  1.6256 -0.0195 -0.9026
28677SOL    HW289820   5.326   5.137   9.362  1.9550  0.1337  4.0611
28678SOL     OW89821   3.571   6.497   0.824 -0.6102  0.4941 -0.6152
28678SOL    HW189822   3.538   6.587   0.819 -0.0513  0.8506  1.3512
28678SOL    HW289823   3.657   6.505   0.865 -0.2168 -0.8867 -1.1005
28679SOL     OW89824   3.868   0.434   5.477 -0.5399  0.0667  0.5484
28679SOL    HW189825   3.930   0.496   5.440  1.5931 -1.6455  1.0795
28679SOL    HW289826   3.852   0.466   5.566  1.6364 -0.7856  1.3145
28680SOL     OW89827   9.171   5.161   2.355  0.8167  0.2327 -0.3214
28680SOL    HW189828   9.106   5.228   2.375  1.2909  0.5405  0.2078
28680SOL    HW289829   9.202   5.132   2.441  0.0131 -1.2716 -0.5047
28681SOL     OW89830   3.260   4.936   7.794  0.3551 -0.3379  0.7068
28681SOL    HW189831   3.289   5.017   7.753 -2.2396 -0.3879 -1.4909
28681SOL    HW289832   3.222   4.963   7.877  0.0130  0.6468  0.2412
28682SOL     OW89833   4.161   3.962   8.328 -0.4208  0.0685 -0.3516
28682SOL    HW189834   4.101   3.906   8.375  0.4874  0.1040  0.8876
28682SOL    HW289835   4.155   3.933   8.237 -0.9921 -1.1018  0.0470
28683SOL     OW89836   5.850   5.123   5.623  0.3790 -0.2920 -0.1511
28683SOL    HW189837   5.812   5.044   5.661  0.2468  0.6818  1.8565
28683SOL    HW289838   5.775   5.173   5.590  0.2183  0.0574  0.7169
28684SOL     OW89839   0.836   9.506   2.252  0.2874  0.0611 -0.5226
28684SOL    HW189840   0.760   9.535   2.303  0.4643  2.6817 -1.5751
28684SOL    HW289841   0.911   9.527   2.307  0.3983  1.4472 -1.1497
28685SOL     OW89842   8.321   2.045   2.460 -0.2437 -0.3086  0.8492
28685SOL    HW189843   8.228   2.065   2.469 -0.3886 -0.7924  0.5265
28685SOL    HW289844   8.361   2.076   2.541 -0.7105 -0.2393  1.0560
28686SOL     OW89845   9.164   6.465   4.089 -0.5543 -0.3036  0.1166
28686SOL    HW189846   9.103   6.507   4.028 -0.7638 -0.3666  0.2814
28686SOL    HW289847   9.136   6.495   4.176 -0.3563 -0.3392  0.1934
28687SOL     OW89848   1.007   1.053   5.446  0.0836  0.3097  0.1696
28687SOL    HW189849   0.986   1.145   5.427  1.4308  0.5460 -0.2559
28687SOL    HW289850   1.049   1.021   5.367  0.1554 -0.5132  0.5302
28688SOL     OW89851   0.597   3.568   6.162 -0.0150  0.3025  0.0988
28688SOL    HW189852   0.628   3.648   6.204  0.2922 -0.3971  1.2439
28688SOL    HW289853   0.519   3.544   6.213  1.2569 -1.4137  1.3272
28689SOL     OW89854   2.814   3.216   0.610 -0.0851  0.2530  0.1104
28689SOL    HW189855   2.864   3.219   0.692  0.3268  1.5052 -0.1639
28689SOL    HW289856   2.861   3.152   0.557  1.1434  1.2502 -0.0605
28690SOL     OW89857   7.842   4.911   8.579 -0.1376  0.6673 -0.3150
28690SOL    HW189858   7.796   4.960   8.647 -0.7326  0.1528 -0.3440
28690SOL    HW289859   7.934   4.935   8.591 -0.2553  0.7052  0.5675
28691SOL     OW89860   9.386   2.748   7.788  0.3386  0.2782  0.0135
28691SOL    HW189861   9.422   2.709   7.868 -0.5284  0.0953  0.3300
28691SOL    HW289862   9.315   2.805   7.819 -0.4560 -0.3161 -0.6503
28692SOL     OW89863   1.529   7.706   5.597  0.3294  0.1380  0.1184
28692SOL    HW189864   1.551   7.725   5.688 -1.9233  1.4274  0.4581
28692SOL    HW289865   1.501   7.790   5.561  1.3201 -0.3147 -1.8406
28693SOL     OW89866   1.214   5.672   5.301 -0.0276  0.3685 -0.6234
28693SOL    HW189867   1.272   5.689   5.375  1.6917  1.3143 -2.0950
28693SOL    HW289868   1.132   5.715   5.323  0.5240  0.8051  0.6334
28694SOL     OW89869   9.475   0.031   6.329 -0.6428  0.4448  0.3523
28694SOL    HW189870   9.555   0.061   6.286 -1.2110  0.1194 -0.9750
28694SOL    HW289871   9.499   0.026   6.422  0.7430  0.7659  0.0433
28695SOL     OW89872   5.110   9.658   9.496  0.8122 -0.4171 -0.3428
28695SOL    HW189873   5.073   9.722   9.557  1.9528 -0.6644  0.6386
28695SOL    HW289874   5.036   9.602   9.472 -0.2569  1.3458 -1.3711
28696SOL     OW89875   1.604   7.508   6.742 -0.0680  0.0417 -0.2823
28696SOL    HW189876   1.622   7.469   6.657 -1.4325  0.3026 -0.7111
28696SOL    HW289877   1.607   7.602   6.727 -0.7643  0.0906 -0.1622
28697SOL     OW89878   2.951   3.836   3.244 -0.1828 -0.5556 -0.5810
28697SOL    HW189879   3.019   3.775   3.213 -2.2811 -2.7406 -1.2352
28697SOL    HW289880   2.905   3.862   3.165 -1.0296 -0.3145 -0.0225
28698SOL     OW89881  10.153   6.412   1.513  0.8292 -0.0243 -0.1341
28698SOL    HW189882  10.130   6.330   1.556  1.4185 -0.3436 -0.4179
28698SOL    HW289883  10.163   6.474   1.585  2.0072 -0.6028  0.2290
28699SOL     OW89884   2.422   3.450   5.387  0.1975 -0.2238  0.0316
28699SOL    HW189885   2.479   3.523   5.410 -3.1664  2.8081 -0.4625
28699SOL    HW289886   2.345   3.461   5.442 -1.1075 -2.5254 -1.1734
28700SOL     OW89887   5.865   7.924   4.365  0.3902  0.3074  0.1029
28700SOL    HW189888   5.946   7.975   4.371 -0.2253  1.2528  0.7065
28700SOL    HW289889   5.856   7.904   4.272  0.2966  1.9389 -0.2819
28701SOL     OW89890   6.827   8.031   4.516  0.1742  0.3472 -0.0764
28701SOL    HW189891   6.813   7.960   4.578  1.1902  0.7033  0.5862
28701SOL    HW289892   6.880   8.094   4.564  1.6376  0.2908 -1.5565
28702SOL     OW89893   6.499   2.235   8.398  0.4561 -0.0698 -0.2341
28702SOL    HW189894   6.450   2.154   8.410 -0.4192  0.7543  2.3824
28702SOL    HW289895   6.435   2.296   8.361 -0.7544  1.0296  3.2553
28703SOL     OW89896   7.296   6.687   6.172 -1.1534 -0.0284 -0.3331
28703SOL    HW189897   7.342   6.644   6.101 -2.2100  0.2093 -1.1806
28703SOL    HW289898   7.354   6.677   6.248 -0.4086 -1.0221 -1.0178
28704SOL     OW89899   9.083   6.973   4.150 -0.8958  0.5157 -0.1683
28704SOL    HW189900   9.148   6.999   4.215  0.3848  1.0724 -1.6087
28704SOL    HW289901   9.042   7.054   4.123 -0.3930  0.4763 -1.0827
28705SOL     OW89902   1.567   6.906   2.082  0.4738  0.1874 -0.2999
28705SOL    HW189903   1.536   6.995   2.101 -0.0073 -0.4277  2.0711
28705SOL    HW289904   1.490   6.859   2.052  0.2133  0.0082  0.6202
28706SOL     OW89905  10.182   3.991   9.009 -0.0851 -0.4291  0.3026
28706SOL    HW189906  10.277   3.994   9.004 -0.1140 -0.1439 -0.1560
28706SOL    HW289907  10.153   4.014   8.921 -0.6365  4.0908  1.3849
28707SOL     OW89908   0.071   2.227   0.628  0.1827  0.6380 -0.4288
28707SOL    HW189909  -0.019   2.216   0.597 -0.1903  1.1741  0.4211
28707SOL    HW289910   0.097   2.313   0.597  0.4753  0.4033 -0.8378
28708SOL     OW89911   6.819   7.266   4.726 -0.1907  0.3125  0.0174
28708SOL    HW189912   6.802   7.172   4.725  0.6578  0.1534  0.0421
28708SOL    HW289913   6.807   7.293   4.635 -0.8113  0.2503  0.0791
28709SOL     OW89914   4.018   7.922   0.060 -0.1539 -0.3713 -0.2395
28709SOL    HW189915   3.925   7.934   0.039 -0.6904  0.9379  2.4881
28709SOL    HW289916   4.020   7.842   0.112  0.2670 -0.3744 -0.2587
28710SOL     OW89917   5.159   5.309   8.758 -0.5063  0.0083  0.3772
28710SOL    HW189918   5.233   5.361   8.787  0.1315 -1.5002  1.5852
28710SOL    HW289919   5.127   5.267   8.837 -2.7921  0.7417 -0.0809
28711SOL     OW89920   0.112   9.558   4.016 -0.1456 -0.3723 -0.0189
28711SOL    HW189921   0.205   9.580   4.018 -0.8383  3.2230  0.7108
28711SOL    HW289922   0.081   9.595   3.933 -1.3317  0.9509  0.9613
28712SOL     OW89923   1.480   3.640   4.128  0.5292 -0.4505 -0.8328
28712SOL    HW189924   1.436   3.585   4.063 -1.6084  1.3362 -1.0068
28712SOL    HW289925   1.516   3.713   4.079 -0.6424  0.6386 -0.1364
28713SOL     OW89926   1.382   8.354   1.390 -0.0694  0.2018 -0.0889
28713SOL    HW189927   1.410   8.444   1.407 -0.4562  0.2959  0.0658
28713SOL    HW289928   1.430   8.328   1.312 -0.8588  0.9680 -0.8676
28714SOL     OW89929   7.443   6.994   8.843  0.0945 -0.5656 -0.2576
28714SOL    HW189930   7.429   6.951   8.928 -0.3836  1.5127  0.7920
28714SOL    HW289931   7.531   7.030   8.848  0.7176 -1.8683 -1.3588
28715SOL     OW89932   3.063   6.150   1.715  0.0626  0.0336  0.2563
28715SOL    HW189933   3.075   6.149   1.620  0.9187  2.3198  0.2680
28715SOL    HW289934   3.037   6.240   1.735  2.1356  0.2691  2.3820
28716SOL     OW89935   9.785   8.841   5.918 -0.3077  0.3877 -0.1516
28716SOL    HW189936   9.755   8.750   5.920 -1.6242  0.8113 -0.0954
28716SOL    HW289937   9.848   8.847   5.990  0.6598 -0.7495 -0.8467
28717SOL     OW89938   0.689   6.032   4.343  0.7748 -0.0808 -0.9137
28717SOL    HW189939   0.623   6.005   4.407 -1.0832  0.4882 -2.4902
28717SOL    HW289940   0.697   6.126   4.355  2.9577 -0.3988  0.6834
28718SOL     OW89941   8.691   6.637   9.424 -0.0612  0.2772  0.1700
28718SOL    HW189942   8.701   6.725   9.461 -0.6547  0.1572  0.6321
28718SOL    HW289943   8.706   6.649   9.330 -0.9632  1.0366  0.1033
28719SOL     OW89944   7.412   0.726   1.875 -0.0397 -0.0445  0.5382
28719SOL    HW189945   7.356   0.778   1.817 -0.9143 -0.5057  0.9528
28719SOL    HW289946   7.431   0.647   1.825 -0.7161 -0.4004  0.8388
28720SOL     OW89947   7.125   4.010   6.623 -0.5092  0.4352  0.0723
28720SOL    HW189948   7.079   3.926   6.631  0.0494  0.2339  1.6109
28720SOL    HW289949   7.161   4.026   6.711  3.4088 -0.0347 -1.2443
28721SOL     OW89950   6.250   2.952   3.870 -0.0955 -0.1505  0.5724
28721SOL    HW189951   6.161   2.930   3.843 -0.1964  1.0844 -0.1795
28721SOL    HW289952   6.292   2.867   3.886 -1.3260 -0.7537  0.7111
28722SOL     OW89953  10.238   9.839   3.040 -0.3192  0.6717  0.5689
28722SOL    HW189954  10.194   9.922   3.051 -0.9193  0.6764 -1.4931
28722SOL    HW289955  10.185   9.776   3.089  0.1926  1.4601  2.2140
28723SOL     OW89956   0.748   6.381   5.110  0.3053 -0.8157  0.0767
28723SOL    HW189957   0.753   6.465   5.064  1.3507 -0.8379  0.1281
28723SOL    HW289958   0.732   6.317   5.041 -0.6077 -0.5754  0.0489
28724SOL     OW89959   4.824   9.286   7.847  0.6747 -0.1979 -0.7604
28724SOL    HW189960   4.886   9.222   7.881  0.7616  0.8063  1.1171
28724SOL    HW289961   4.871   9.369   7.850 -1.1956  0.9702  2.6085
28725SOL     OW89962   5.079   8.951   1.391 -0.3376 -0.5978 -0.0011
28725SOL    HW189963   5.147   8.885   1.379 -0.2832 -0.6721  0.6858
28725SOL    HW289964   5.025   8.918   1.462  0.5277  0.7388  1.3509
28726SOL     OW89965   1.236   6.058   7.856 -0.0057 -0.0284 -0.1475
28726SOL    HW189966   1.224   6.092   7.767  0.0684 -1.7654 -0.8533
28726SOL    HW289967   1.152   6.017   7.878  0.1082  0.0361  0.4330
28727SOL     OW89968   5.141   0.021   8.514  0.4459 -0.2266  0.0194
28727SOL    HW189969   5.083   0.094   8.495  1.0357  0.2191 -0.0775
28727SOL    HW289970   5.163   0.031   8.607 -1.0279 -1.4045  0.5437
28728SOL     OW89971   8.095   1.180   9.813  0.0798  0.1835 -0.3961
28728SOL    HW189972   8.125   1.229   9.889 -0.9690 -0.6558  0.5825
28728SOL    HW289973   8.013   1.222   9.788 -0.8709 -1.0781  0.5003
28729SOL     OW89974   2.790   7.017   6.773  0.0755  0.3214 -0.1955
28729SOL    HW189975   2.741   7.032   6.692 -1.4908 -2.5176  0.1121
28729SOL    HW289976   2.880   7.000   6.743 -0.3686 -0.1867 -1.3228
28730SOL     OW89977   6.624   4.709   7.195 -0.6067 -0.3566 -0.0860
28730SOL    HW189978   6.705   4.687   7.242 -1.0558  0.1859  0.9796
28730SOL    HW289979   6.654   4.752   7.115  0.2158 -2.5636 -1.0444
28731SOL     OW89980  10.125   5.474   8.465  0.1121  0.3202  0.2580
28731SOL    HW189981  10.187   5.406   8.438  0.4860 -0.1553  2.2069
28731SOL    HW289982  10.063   5.479   8.392  0.7373 -1.2913 -0.4420
28732SOL     OW89983   8.418   8.849   8.750 -0.0484  0.4121  0.1056
28732SOL    HW189984   8.463   8.823   8.670  1.8773 -0.0337  1.2657
28732SOL    HW289985   8.329   8.815   8.741  1.1411 -2.9090 -0.2949
28733SOL     OW89986   8.691   3.924   7.397  0.2431 -0.0787  0.4559
28733SOL    HW189987   8.623   3.856   7.402  0.2148 -0.0759  0.1279
28733SOL    HW289988   8.771   3.880   7.425  0.4191 -0.5194 -0.7019
28734SOL     OW89989   7.375   2.312   7.388  0.0894 -0.0514  0.2960
28734SOL    HW189990   7.393   2.299   7.295  1.0702  0.1078  0.4581
28734SOL    HW289991   7.291   2.359   7.389 -1.1444 -2.0906 -0.4297
28735SOL     OW89992   5.977   4.114   6.979  0.2634  0.8853  0.1618
28735SOL    HW189993   5.902   4.132   6.922  1.7544  2.3396 -1.4577
28735SOL    HW289994   5.960   4.166   7.057 -1.1047  0.0063  0.4963
28736SOL     OW89995   6.561   0.397   0.508 -0.2513  0.0239  0.0218
28736SOL    HW189996   6.566   0.405   0.604  1.6408 -1.0836  0.0696
28736SOL    HW289997   6.468   0.395   0.489 -0.7121 -1.6783  2.0708
28737SOL     OW89998   9.760   2.148   8.859 -0.1929 -0.1457  0.3843
28737SOL    HW189999   9.684   2.153   8.800 -0.7619  0.8657  1.1522
28737SOL    HW290000   9.836   2.151   8.801 -0.7405  0.8170 -0.3107
28738SOL     OW90001   9.566   0.546   3.378 -0.1948 -0.6297 -0.3444
28738SOL    HW190002   9.544   0.637   3.356  1.9064 -0.5328 -2.4918
28738SOL    HW290003   9.551   0.540   3.472 -1.2500  1.6737 -0.2883
28739SOL     OW90004   3.015   5.825   4.528  0.4950  0.0266 -0.0523
28739SOL    HW190005   2.991   5.916   4.549 -0.3389  0.4415 -2.4893
28739SOL    HW290006   3.101   5.832   4.487  0.6682 -0.3603  0.2426
28740SOL     OW90007   1.673   5.450   9.513 -0.7720  0.2829 -0.1003
28740SOL    HW190008   1.733   5.376   9.504  2.5371  2.4081  2.2096
28740SOL    HW290009   1.641   5.445   9.603 -0.5803  1.5945  0.0554
28741SOL     OW90010   8.796   7.653   4.195  0.0816 -0.5240  0.2557
28741SOL    HW190011   8.819   7.732   4.244  0.3521  0.2617 -1.0942
28741SOL    HW290012   8.783   7.684   4.105  1.0582 -2.1576 -0.4735
28742SOL     OW90013   0.464   6.316   1.306  0.0185 -0.4118  0.1051
28742SOL    HW190014   0.559   6.299   1.306  0.0068 -0.4781  0.0910
28742SOL    HW290015   0.443   6.330   1.214 -0.1203 -1.1634  0.0111
28743SOL     OW90016   3.257   5.511   9.472  0.2358 -0.2050 -0.4066
28743SOL    HW190017   3.231   5.483   9.384  2.2092  1.9549 -1.7958
28743SOL    HW290018   3.235   5.604   9.475  1.8552  0.1842  0.7013
28744SOL     OW90019   9.325   2.541   8.099  0.0503  0.2453 -0.0132
28744SOL    HW190020   9.324   2.464   8.043 -3.1777  0.7711 -0.9045
28744SOL    HW290021   9.407   2.535   8.147  2.5803 -0.8270 -3.9510
28745SOL     OW90022   3.374   4.813   6.681  0.0208  0.1709  0.1841
28745SOL    HW190023   3.351   4.877   6.614  0.0581 -0.7132 -0.7016
28745SOL    HW290024   3.301   4.750   6.680  1.1070 -1.1334 -0.6952
28746SOL     OW90025   2.116   3.325   1.411 -0.4613  0.0970 -0.5373
28746SOL    HW190026   2.162   3.400   1.373 -0.2081 -0.2811 -0.9891
28746SOL    HW290027   2.183   3.256   1.415 -1.0542 -0.5595 -1.4910
28747SOL     OW90028   4.102   5.017   2.241 -0.1612  0.0231 -0.0685
28747SOL    HW190029   4.166   5.062   2.187 -0.9479  1.0316 -0.2017
28747SOL    HW290030   4.148   4.998   2.323 -0.0105  1.8402  0.3123
28748SOL     OW90031   9.876   4.492   5.116 -0.6276 -0.3297 -0.0578
28748SOL    HW190032   9.795   4.513   5.162 -0.3629  0.6956 -0.0341
28748SOL    HW290033   9.906   4.576   5.081  1.5412 -0.2818  1.7032
28749SOL     OW90034   7.440   0.136   2.122 -0.3484 -0.9598 -0.3070
28749SOL    HW190035   7.352   0.102   2.106 -0.3505 -1.0065 -0.1997
28749SOL    HW290036   7.428   0.230   2.133 -0.7801 -1.2337  2.3558
28750SOL     OW90037   3.689   4.079   6.082  0.0374 -0.1442 -0.0959
28750SOL    HW190038   3.677   4.104   6.174  0.4887 -0.4151  0.0408
28750SOL    HW290039   3.601   4.082   6.045 -0.0969  0.3584  0.2453
28751SOL     OW90040   4.348   2.194   7.494 -0.3094  0.4151  0.2765
28751SOL    HW190041   4.274   2.134   7.479  0.5989 -0.5931 -0.3022
28751SOL    HW290042   4.317   2.279   7.463 -0.4849 -0.4300 -2.0725
28752SOL     OW90043   8.802   4.995   5.157  0.3637 -0.3301  0.3338
28752SOL    HW190044   8.779   5.070   5.103 -0.3494 -1.2974 -0.7320
28752SOL    HW290045   8.883   5.022   5.201  1.2997  0.2812 -1.6536
28753SOL     OW90046   3.185   9.070   0.582  0.0916  0.1919  0.2761
28753SOL    HW190047   3.090   9.059   0.575  0.1980 -0.7044  0.1081
28753SOL    HW290048   3.198   9.111   0.668 -0.3714 -0.8919  0.8839
28754SOL     OW90049   0.429   3.341   4.117 -0.0056 -0.1008  0.5120
28754SOL    HW190050   0.351   3.392   4.141 -0.2835 -1.1383  1.9518
28754SOL    HW290051   0.395   3.260   4.081  0.4108 -0.2394  0.4223
28755SOL     OW90052   2.937   4.708   9.898 -0.0472 -0.1399 -0.2706
28755SOL    HW190053   2.878   4.707   9.974 -0.3805  3.6197 -0.2634
28755SOL    HW290054   3.017   4.666   9.928 -1.5485 -2.3943  0.7884
28756SOL     OW90055   0.610   0.081   4.765 -0.5711 -0.3484  0.8095
28756SOL    HW190056   0.632  -0.009   4.786 -0.0776 -0.1417  1.1891
28756SOL    HW290057   0.562   0.076   4.683  0.2726 -0.8675  0.3437
28757SOL     OW90058   4.073   2.017   0.716  0.7422 -0.4796 -0.1366
28757SOL    HW190059   4.056   2.109   0.697 -0.1650 -0.2591  1.5499
28757SOL    HW290060   3.998   1.970   0.680  0.5146 -0.3981  0.2282
28758SOL     OW90061   0.414   2.980   5.022 -0.0571 -0.6256  0.4531
28758SOL    HW190062   0.405   2.962   5.115  1.1932  0.0522  0.7257
28758SOL    HW290063   0.412   3.075   5.015 -0.9612 -0.6805 -0.3213
28759SOL     OW90064   7.427   4.345   2.590 -0.4566  0.1441  0.3270
28759SOL    HW190065   7.399   4.396   2.514 -2.4310  0.3594  1.1201
28759SOL    HW290066   7.397   4.396   2.666 -1.9332 -1.8005  1.1558
28760SOL     OW90067   8.887   2.044   3.718 -1.0452 -0.4000 -0.2065
28760SOL    HW190068   8.936   2.015   3.642 -1.0093  0.9446 -0.7159
28760SOL    HW290069   8.869   1.964   3.767 -0.9507 -1.2647 -1.5494
28761SOL     OW90070   5.478   1.933   2.084  0.0692  0.8321 -0.2355
28761SOL    HW190071   5.424   1.904   2.012 -0.8463  0.6460  0.5134
28761SOL    HW290072   5.462   2.028   2.089  0.7683  0.9895 -0.7858
28762SOL     OW90073   5.955   7.964   0.089  0.0338  0.0314  0.3341
28762SOL    HW190074   5.968   8.011   0.007 -0.8008  1.1714  0.8352
28762SOL    HW290075   5.861   7.970   0.106  0.2807  0.4449  1.7224
28763SOL     OW90076   5.901   7.003   4.618 -0.2497 -0.0356  0.3491
28763SOL    HW190077   5.844   6.926   4.608 -0.5394 -0.1666  2.4878
28763SOL    HW290078   5.841   7.077   4.615 -0.5775 -0.1632  2.4010
28764SOL     OW90079   4.033   4.620   8.876  0.3429  0.0200 -0.3236
28764SOL    HW190080   4.028   4.558   8.950  0.0180  1.0402  0.5335
28764SOL    HW290081   4.035   4.706   8.917  2.3324  0.5629 -1.4436
28765SOL     OW90082   3.903   1.099   6.356 -0.1287 -0.2236  0.3920
28765SOL    HW190083   3.993   1.111   6.325 -0.2924  1.0181  0.3592
28765SOL    HW290084   3.849   1.146   6.292 -0.3699  3.8673  3.2599
28766SOL     OW90085   4.199   9.317   8.271 -0.0113  0.2018  0.1634
28766SOL    HW190086   4.234   9.358   8.350 -0.5582 -0.0052  0.5173
28766SOL    HW290087   4.264   9.250   8.248  1.4521  1.9539 -1.0481
28767SOL     OW90088   4.050   5.741   0.969 -0.2190  0.6462 -0.1350
28767SOL    HW190089   4.122   5.800   0.990  0.5524 -0.5274  0.6537
28767SOL    HW290090   4.055   5.672   1.036 -2.6026  0.9687  0.4954
28768SOL     OW90091   4.662   0.768   4.637 -0.1073  0.0980 -0.0384
28768SOL    HW190092   4.593   0.715   4.598  0.3722 -2.2356  2.0463
28768SOL    HW290093   4.727   0.777   4.567 -1.2354 -0.0873 -1.1474
28769SOL     OW90094   4.635   3.295   9.052  0.0983 -0.3205 -0.4176
28769SOL    HW190095   4.623   3.249   8.969 -1.8138 -0.3243 -0.1794
28769SOL    HW290096   4.588   3.242   9.116  0.8780  0.1059  0.5478
28770SOL     OW90097   5.066   6.653   0.847  0.3972  0.4835  0.9750
28770SOL    HW190098   5.098   6.662   0.936  4.0483  2.2293 -0.3079
28770SOL    HW290099   5.034   6.741   0.823 -1.4911 -0.1943  0.7843
28771SOL     OW90100   7.252   0.268   5.952 -0.4683  0.9733 -0.7269
28771SOL    HW190101   7.184   0.319   5.907 -2.1194 -1.9124 -1.7898
28771SOL    HW290102   7.231   0.277   6.045 -2.5279  0.0470 -1.0292
28772SOL     OW90103   5.656   4.725   9.545  0.4794 -0.0733  0.0503
28772SOL    HW190104   5.735   4.689   9.585  0.9975 -0.3466 -1.1806
28772SOL    HW290105   5.678   4.736   9.453 -0.9010 -0.1107 -0.3141
28773SOL     OW90106   6.234   4.027   7.942 -0.5811  0.4107 -0.3119
28773SOL    HW190107   6.167   4.091   7.961 -2.4816 -1.4016 -0.5811
28773SOL    HW290108   6.208   3.988   7.859  0.2430 -1.0378  0.0662
28774SOL     OW90109   2.555   6.390  10.203 -0.6252  0.0164 -0.2513
28774SOL    HW190110   2.622   6.382  10.135 -0.7938  0.6774 -0.5028
28774SOL    HW290111   2.473   6.405  10.155 -0.7881  0.2380  0.0935
28775SOL     OW90112   0.424   1.951   4.112 -0.6771 -0.1893 -0.2735
28775SOL    HW190113   0.408   1.857   4.123 -0.3569 -0.1072  1.0209
28775SOL    HW290114   0.463   1.979   4.195 -0.8310  1.1073 -0.6165
28776SOL     OW90115   6.835   7.700   8.022 -0.1076  0.2304 -0.1357
28776SOL    HW190116   6.818   7.757   8.097 -2.3161 -1.2725  0.6461
28776SOL    HW290117   6.930   7.697   8.014  0.1816  0.8939  2.2827
28777SOL     OW90118   5.554   6.981   6.301 -0.0386 -0.0531 -0.5769
28777SOL    HW190119   5.608   6.915   6.257  0.8301 -0.4696  1.0221
28777SOL    HW290120   5.496   7.014   6.233  1.4046 -0.4762 -2.0645
28778SOL     OW90121   9.831   9.457   6.794  0.0223 -0.0657 -0.1577
28778SOL    HW190122   9.848   9.548   6.819  1.2786 -0.1169 -0.7428
28778SOL    HW290123   9.912   9.410   6.818 -0.6948 -1.0847  0.3592
28779SOL     OW90124   8.789   8.447   4.308  0.1975 -0.9253  0.6547
28779SOL    HW190125   8.701   8.470   4.339 -0.4999 -1.6207 -0.7171
28779SOL    HW290126   8.775   8.373   4.248  1.4894  0.1528 -1.0645
28780SOL     OW90127   3.968   1.911   3.944  0.0436  0.6233 -0.3466
28780SOL    HW190128   3.981   1.826   3.902  1.1807  0.4980  0.2403
28780SOL    HW290129   3.899   1.952   3.892  1.7366  0.6809 -2.7159
28781SOL     OW90130   9.442   1.541   1.443  0.5262 -0.2011  0.2532
28781SOL    HW190131   9.522   1.489   1.443  0.5703 -0.1395  1.1089
28781SOL    HW290132   9.401   1.522   1.358  0.6665 -1.4457  0.4459
28782SOL     OW90133   1.711   3.009   0.915  0.1182 -0.5904 -0.5020
28782SOL    HW190134   1.654   2.932   0.912 -1.2608  0.1711  2.3407
28782SOL    HW290135   1.787   2.982   0.966 -0.9019  0.1194  1.5205
28783SOL     OW90136   6.567   9.203   8.849 -0.0012  0.1561 -0.2290
28783SOL    HW190137   6.534   9.147   8.778 -2.7071 -0.2284  1.1904
28783SOL    HW290138   6.615   9.144   8.906  0.4916  0.0773 -0.7178
28784SOL     OW90139   1.693   3.730   2.993 -0.3046  0.4199 -0.3575
28784SOL    HW190140   1.657   3.712   2.906 -0.4483 -1.9807  0.1168
28784SOL    HW290141   1.786   3.708   2.986 -0.4271 -0.3027  0.2176
28785SOL     OW90142   6.360   2.361   1.222  0.4883 -0.1962 -0.3815
28785SOL    HW190143   6.447   2.363   1.262  0.4291 -0.1325 -0.2578
28785SOL    HW290144   6.343   2.452   1.198  1.4082 -0.4867 -2.4359
28786SOL     OW90145   5.278   9.912   6.305  0.1908  0.1586  0.1303
28786SOL    HW190146   5.259   9.921   6.211 -2.0569 -0.0673  0.5009
28786SOL    HW290147   5.275   9.817   6.321 -2.5569  0.2829  0.9090
28787SOL     OW90148   2.081   2.609   5.479 -0.4713 -0.2903 -0.3469
28787SOL    HW190149   2.141   2.637   5.410  0.7014 -1.2787  0.2207
28787SOL    HW290150   2.076   2.684   5.538  2.8802 -1.1912  1.3355
28788SOL     OW90151   0.814   1.185   7.477 -0.1978 -0.1693 -0.0175
28788SOL    HW190152   0.777   1.186   7.565 -0.7719 -2.0469 -0.1893
28788SOL    HW290153   0.909   1.187   7.491 -0.2816  1.4857  0.5402
28789SOL     OW90154   3.587   0.822   5.523  0.0254 -0.2594 -0.0519
28789SOL    HW190155   3.655   0.889   5.528 -0.0585  0.1435 -2.7577
28789SOL    HW290156   3.576   0.792   5.613  2.5314  0.8954  0.7318
28790SOL     OW90157   8.675   2.344   5.291 -0.0923  0.0825 -0.0566
28790SOL    HW190158   8.683   2.431   5.252 -1.2584  0.5527  0.6939
28790SOL    HW290159   8.644   2.288   5.220  0.4343  0.3265 -0.4830
28791SOL     OW90160   9.314   2.854   2.418  0.4411  0.5880  0.6120
28791SOL    HW190161   9.352   2.785   2.473  2.4020  0.9107 -0.2565
28791SOL    HW290162   9.388   2.909   2.394 -0.4736  0.8898 -1.7433
28792SOL     OW90163   4.253   5.895   3.742 -0.4005  0.0427  0.2759
28792SOL    HW190164   4.254   5.898   3.838 -2.3677  1.3295  0.3055
28792SOL    HW290165   4.310   5.967   3.715  0.1396 -0.3083  0.4552
28793SOL     OW90166   9.377   8.482   7.844 -0.0885  0.4179 -0.1940
28793SOL    HW190167   9.295   8.512   7.804 -0.3197  0.1057  0.0520
28793SOL    HW290168   9.428   8.449   7.770 -0.2766  0.3939 -0.3147
28794SOL     OW90169   4.976   3.390   5.145  0.2857  0.1370  0.1405
28794SOL    HW190170   4.904   3.449   5.167  0.2836 -0.6557  2.4950
28794SOL    HW290171   4.954   3.308   5.189  1.3586 -0.9528 -1.2711
28795SOL     OW90172   3.039   7.436   9.451  0.3700 -0.0559  0.2668
28795SOL    HW190173   3.102   7.402   9.387  1.8129  0.2928  1.4395
28795SOL    HW290174   3.043   7.374   9.523 -0.4589  0.1219  0.4743
28796SOL     OW90175   3.362   4.398   0.821  0.0737  0.4415 -0.2175
28796SOL    HW190176   3.322   4.311   0.815  1.7349 -0.2680 -2.0526
28796SOL    HW290177   3.445   4.382   0.867  0.5062  1.0037 -0.7995
28797SOL     OW90178   3.884   5.728   1.968  0.6709 -0.1205 -0.0141
28797SOL    HW190179   3.806   5.672   1.973 -0.1977  1.1124  0.8612
28797SOL    HW290180   3.944   5.690   2.033  0.3665 -0.4536  0.0805
28798SOL     OW90181   3.590   5.379   9.210  0.5132  0.1418 -0.4233
28798SOL    HW190182   3.611   5.444   9.276  1.5616  0.9911 -1.5468
28798SOL    HW290183   3.539   5.428   9.145  0.3646 -0.4294 -0.7388
28799SOL     OW90184   6.822   5.475   5.202  0.2195 -0.1977 -0.2683
28799SOL    HW190185   6.792   5.552   5.154  1.7853  1.3577  1.0948
28799SOL    HW290186   6.748   5.414   5.198 -1.6203  1.8953 -0.3082
28800SOL     OW90187   4.884   9.236   8.603  0.4327  0.0537  0.0646
28800SOL    HW190188   4.908   9.327   8.585 -0.5105  0.5913  1.3035
28800SOL    HW290189   4.900   9.226   8.697 -0.4845 -0.7170  0.1511
28801SOL     OW90190   5.200   7.647   9.021 -0.4986  0.4239 -0.1045
28801SOL    HW190191   5.140   7.579   9.053 -0.3332  0.5768  0.5504
28801SOL    HW290192   5.202   7.635   8.926 -1.8421  0.6441 -0.1763
28802SOL     OW90193   5.101   9.912   8.873  0.2044  0.1860 -0.1150
28802SOL    HW190194   5.037   9.919   8.802 -0.1059  0.9064  0.2283
28802SOL    HW290195   5.162   9.984   8.857 -0.9160  1.5361  1.3789
28803SOL     OW90196   1.258   9.093   4.578  0.0351  0.5341  0.1844
28803SOL    HW190197   1.320   9.028   4.611 -1.4454 -2.1918 -2.0116
28803SOL    HW290198   1.284   9.107   4.487 -1.9608 -0.0104 -0.5148
28804SOL     OW90199   3.414   7.144   4.203 -0.0251 -0.0087  0.3066
28804SOL    HW190200   3.394   7.173   4.292 -0.3899  1.4658 -0.2436
28804SOL    HW290201   3.494   7.191   4.179 -0.2191  0.0073 -0.3378
28805SOL     OW90202   1.893   2.101   7.490  0.0391  0.3250  0.2848
28805SOL    HW190203   1.857   2.020   7.525 -0.7366  0.6668  0.2940
28805SOL    HW290204   1.983   2.104   7.522  0.0890 -0.5620  0.2324
28806SOL     OW90205   8.663   0.448   2.692  0.4024  0.0684  0.0935
28806SOL    HW190206   8.648   0.526   2.745  0.9699 -0.2565  0.7306
28806SOL    HW290207   8.665   0.481   2.602 -2.0714  0.4239  0.0896
28807SOL     OW90208   2.713   3.441   8.152 -0.0254 -0.0394 -0.1308
28807SOL    HW190209   2.800   3.409   8.127 -0.6776 -0.0833 -2.5079
28807SOL    HW290210   2.718   3.536   8.139  1.1792  0.8843  4.7377
28808SOL     OW90211   0.948   0.445   8.430 -0.2534  0.5688 -0.7144
28808SOL    HW190212   1.026   0.482   8.470  0.4381 -1.6870  0.1343
28808SOL    HW290213   0.880   0.452   8.498 -0.5567  1.6306 -1.1060
28809SOL     OW90214   7.691   9.677   3.938 -0.3573 -0.7691  0.0302
28809SOL    HW190215   7.699   9.732   3.860 -0.0946 -0.0850  0.5244
28809SOL    HW290216   7.624   9.613   3.915 -0.2313 -0.6236 -0.7826
28810SOL     OW90217   0.124   6.182  10.310  0.4627  0.1434 -0.5188
28810SOL    HW190218   0.206   6.221  10.340 -0.3799  0.7037  1.2288
28810SOL    HW290219   0.103   6.228  10.229  1.6883  0.2227 -0.8123
28811SOL     OW90220   5.586   1.355   2.752 -0.5219  1.0670  0.1463
28811SOL    HW190221   5.658   1.406   2.790  0.1592 -0.5113  1.0951
28811SOL    HW290222   5.548   1.413   2.687  1.0024  2.3155  0.2865
28812SOL     OW90223   0.574   7.171   3.533  0.3733 -0.0405 -0.4138
28812SOL    HW190224   0.612   7.259   3.524  1.6928 -0.4596  0.7012
28812SOL    HW290225   0.481   7.183   3.512  0.8716  1.2440 -2.1438
28813SOL     OW90226   3.762   5.247   9.382  0.0113  0.1322 -0.3261
28813SOL    HW190227   3.845   5.275   9.344 -0.1634 -1.0152 -1.6272
28813SOL    HW290228   3.695   5.287   9.326 -0.2729 -0.3146 -0.3117
28814SOL     OW90229   9.823   8.313   7.496  0.3614 -0.4433  0.1623
28814SOL    HW190230   9.750   8.255   7.474  1.4707 -1.5484 -0.7380
28814SOL    HW290231   9.870   8.325   7.414  0.5726  1.1970  0.4817
28815SOL     OW90232   3.683   8.618   6.001 -0.0673 -0.5423  0.0850
28815SOL    HW190233   3.766   8.644   6.042  0.2159 -1.3809  0.0588
28815SOL    HW290234   3.701   8.532   5.964 -0.4092  0.0752 -1.5757
28816SOL     OW90235   0.951  10.266   9.083 -0.2957  0.0148  0.9329
28816SOL    HW190236   1.012  10.331   9.048 -0.8043 -0.1015 -0.1910
28816SOL    HW290237   0.993  10.237   9.165  0.8862  0.3316  0.4668
28817SOL     OW90238   6.516   9.010   3.159 -0.6637 -0.3920  0.2857
28817SOL    HW190239   6.452   9.008   3.088 -0.3728 -1.2691  0.0275
28817SOL    HW290240   6.512   8.923   3.198  1.7939 -1.2253 -1.0821
28818SOL     OW90241   2.888   7.941   4.593 -0.3566  0.0169 -0.4680
28818SOL    HW190242   2.813   7.882   4.582  0.0443 -0.4446 -0.7768
28818SOL    HW290243   2.858   8.024   4.555 -1.5581  0.5667  1.5602
28819SOL     OW90244   8.534   9.104   2.401 -0.0914  0.0850  0.7187
28819SOL    HW190245   8.571   9.046   2.335  0.4362 -0.1834  1.2433
28819SOL    HW290246   8.605   9.163   2.424 -0.2504  0.1387  1.0841
28820SOL     OW90247   3.107   4.732   3.404  0.1977 -0.0118 -0.0217
28820SOL    HW190248   3.187   4.743   3.455  0.0923 -2.5325  0.8113
28820SOL    HW290249   3.066   4.653   3.440 -3.1856  1.6905  0.2135
28821SOL     OW90250   8.466   1.525   2.620 -0.1062  0.1404 -0.0899
28821SOL    HW190251   8.453   1.431   2.608  0.8194  0.0000 -0.0762
28821SOL    HW290252   8.559   1.534   2.641 -0.0133  1.1240 -0.8292
28822SOL     OW90253   6.207   4.884   3.249 -0.0147 -0.3448 -0.0393
28822SOL    HW190254   6.159   4.890   3.167  0.9131  0.3374 -0.5546
28822SOL    HW290255   6.299   4.891   3.224  0.3271 -0.9252  0.9853
28823SOL     OW90256   1.664   1.755   9.018  1.1064  0.1239  0.8663
28823SOL    HW190257   1.692   1.847   9.017  2.6489 -0.3199  0.1290
28823SOL    HW290258   1.708   1.717   9.094 -0.5303  0.2426  1.9258
28824SOL     OW90259   3.780   6.599   9.421  0.5715 -0.0238  0.4111
28824SOL    HW190260   3.836   6.524   9.440  0.7928  0.5353  2.0746
28824SOL    HW290261   3.695   6.577   9.460  0.7769  0.7678  1.3507
28825SOL     OW90262   9.411   8.504   8.496  0.5300 -0.5895  0.0843
28825SOL    HW190263   9.407   8.441   8.425  1.0003  1.1457 -1.5453
28825SOL    HW290264   9.345   8.570   8.475  2.1648  1.1335  0.0119
28826SOL     OW90265   3.580  10.097   0.859 -0.4719  0.3950  0.2079
28826SOL    HW190266   3.537  10.095   0.773  0.1207 -2.5908 -0.1157
28826SOL    HW290267   3.672  10.117   0.839 -0.0382 -1.6523 -0.0985
28827SOL     OW90268  10.222   5.469   9.352  0.1980 -0.4782 -0.5067
28827SOL    HW190269  10.243   5.420   9.431  0.2225 -0.3230 -0.4173
28827SOL    HW290270  10.159   5.536   9.380  1.3442  0.5529 -0.3053
28828SOL     OW90271  10.328   1.362   8.433 -0.0318 -0.3575 -0.0365
28828SOL    HW190272  10.336   1.318   8.348  2.2997 -0.1166  0.0073
28828SOL    HW290273  10.245   1.409   8.428 -0.3000 -0.9648 -1.8903
28829SOL     OW90274   2.818   2.907   6.957 -0.2233  0.2292 -0.0487
28829SOL    HW190275   2.762   2.834   6.983 -0.1638  0.4864  0.8470
28829SOL    HW290276   2.870   2.926   7.035  1.5223 -0.3544 -0.9937
28830SOL     OW90277   0.240   5.823   5.284  0.6273  0.2285 -0.3361
28830SOL    HW190278   0.320   5.811   5.232 -0.4002 -1.0881 -1.7127
28830SOL    HW290279   0.260   5.781   5.368  1.6098  0.5494 -0.3878
28831SOL     OW90280   6.273   4.805   8.087  0.1394  0.5130 -0.1721
28831SOL    HW190281   6.202   4.856   8.048  0.6561  1.7409  0.4276
28831SOL    HW290282   6.335   4.791   8.016 -1.1978 -1.6331 -1.0298
28832SOL     OW90283   9.979   8.639   2.993  0.0757  0.1941 -0.0348
28832SOL    HW190284  10.051   8.597   3.040  0.4749 -0.0317 -0.8364
28832SOL    HW290285   9.928   8.566   2.957 -0.1303  0.3733 -0.1075
28833SOL     OW90286   5.333   3.698   0.484 -0.8108 -0.4214 -0.0185
28833SOL    HW190287   5.349   3.724   0.393 -2.3505 -1.9115 -0.7739
28833SOL    HW290288   5.239   3.711   0.496 -0.8341 -1.3920  0.9637
28834SOL     OW90289   4.901   0.053   1.942 -0.0575  0.1277  0.0640
28834SOL    HW190290   4.851  -0.029   1.948 -0.3951  0.3991  1.0906
28834SOL    HW290291   4.874   0.091   1.858  0.5237 -1.0666 -0.6998
28835SOL     OW90292   0.408   1.975   0.638  0.4866  0.0361 -0.3169
28835SOL    HW190293   0.425   1.885   0.667  0.0868 -0.2779 -1.0026
28835SOL    HW290294   0.328   1.968   0.586 -0.2702  1.0223  0.6935
28836SOL     OW90295   6.609   1.982   6.248  0.1701 -0.0002  0.1391
28836SOL    HW190296   6.540   1.954   6.309  1.6943  2.4147  3.2804
28836SOL    HW290297   6.674   1.912   6.253  0.2834  0.1589  1.4100
28837SOL     OW90298   3.141   8.305   0.248  0.1660 -0.2964  0.7652
28837SOL    HW190299   3.162   8.389   0.208 -1.0547 -0.3454 -0.0556
28837SOL    HW290300   3.225   8.259   0.253  0.6601  0.4994  0.1137
28838SOL     OW90301   3.362   4.377   7.728  0.0311  0.0669  0.5458
28838SOL    HW190302   3.268   4.361   7.727 -0.1565  0.9264  1.7560
28838SOL    HW290303   3.373   4.460   7.683  0.4203 -0.8008 -1.0366
28839SOL     OW90304   4.586   9.675   1.811 -0.0311  0.0815 -0.1664
28839SOL    HW190305   4.555   9.719   1.731 -2.3027 -1.2608 -0.1052
28839SOL    HW290306   4.585   9.582   1.788 -0.9316 -0.3381  1.4851
28840SOL     OW90307   8.658   9.118   0.977  0.1655 -0.0115 -0.0830
28840SOL    HW190308   8.654   9.050   1.044  0.5698 -0.6830 -0.7390
28840SOL    HW290309   8.712   9.187   1.016  1.6360 -1.0307 -0.2676
28841SOL     OW90310   7.854   3.404   5.432  0.4755 -0.4532 -0.1364
28841SOL    HW190311   7.877   3.334   5.492  0.1512 -0.7722 -0.3746
28841SOL    HW290312   7.832   3.359   5.350  0.1652 -0.0838 -0.2600
28842SOL     OW90313  10.150   5.111   8.105  0.0650 -0.2523 -0.1051
28842SOL    HW190314  10.216   5.053   8.066 -0.8929 -0.5290 -1.3953
28842SOL    HW290315  10.169   5.197   8.067  0.6390  0.0081  0.7465
28843SOL     OW90316   3.851   9.405   3.292 -0.3423 -0.5113 -0.2695
28843SOL    HW190317   3.912   9.340   3.326 -0.4690 -0.3092  0.3562
28843SOL    HW290318   3.873   9.412   3.199 -0.6211 -1.7748 -0.4569
28844SOL     OW90319   8.161   9.971   4.332 -0.4147 -0.4602 -0.0840
28844SOL    HW190320   8.159   9.981   4.427 -0.8713 -0.1596 -0.1245
28844SOL    HW290321   8.103   9.897   4.314 -1.2971  0.2433 -0.2203
28845SOL     OW90322   3.914   5.096   8.003 -0.6225 -0.3964 -0.1465
28845SOL    HW190323   3.966   5.112   7.924 -0.2040  1.1411  0.3905
28845SOL    HW290324   3.900   5.002   8.004  2.3398 -0.9479 -0.2128
28846SOL     OW90325   3.304   9.986   8.482 -0.3684  0.2275  0.0153
28846SOL    HW190326   3.343  10.027   8.405 -0.9976  0.8909  0.0456
28846SOL    HW290327   3.376   9.938   8.523  0.3509  1.1858 -0.0943
28847SOL     OW90328  10.019   2.908   1.715 -1.0164 -0.2071  0.2880
28847SOL    HW190329  10.024   2.969   1.641  0.4131 -0.7694 -0.1158
28847SOL    HW290330  10.046   2.960   1.791  1.6105 -0.6217 -0.2776
28848SOL     OW90331   6.305   1.940   1.410 -0.7541 -0.3148 -0.0624
28848SOL    HW190332   6.371   1.870   1.414 -1.3239 -0.9605 -1.2797
28848SOL    HW290333   6.334   2.005   1.474 -1.3079 -2.5815  2.6623
28849SOL     OW90334   7.648   2.396   8.948 -0.2746 -0.2100  0.0349
28849SOL    HW190335   7.713   2.361   9.008  0.1808  1.0757  0.3168
28849SOL    HW290336   7.665   2.351   8.865 -0.4225 -1.4369  0.6624
28850SOL     OW90337   7.808   6.553   0.916 -0.4173 -0.2291  0.3530
28850SOL    HW190338   7.771   6.559   1.004 -1.1007 -0.3749  0.0821
28850SOL    HW290339   7.740   6.510   0.864 -0.2344  0.3294 -0.3703
28851SOL     OW90340   3.680   5.513   1.491 -0.2995  0.4977 -0.3969
28851SOL    HW190341   3.646   5.539   1.405 -0.7123  0.3285 -0.2863
28851SOL    HW290342   3.627   5.560   1.554 -0.7385 -0.2374 -0.2089
28852SOL     OW90343   7.824   5.666   5.447  0.1793 -0.6808  0.2674
28852SOL    HW190344   7.737   5.626   5.451  0.2391 -0.9477 -0.7213
28852SOL    HW290345   7.807   5.760   5.438 -0.0163 -0.7382  0.0130
28853SOL     OW90346   5.393   4.701   0.829 -0.2691 -0.1620  0.6960
28853SOL    HW190347   5.373   4.791   0.855  1.3306  0.6100 -0.5820
28853SOL    HW290348   5.417   4.657   0.911  0.9920  1.1680  1.0896
28854SOL     OW90349   1.315   9.320   2.381 -0.2055 -0.0333 -0.2288
28854SOL    HW190350   1.287   9.273   2.303 -3.1389  0.6806  0.2738
28854SOL    HW290351   1.316   9.253   2.450  0.2425 -0.2373 -0.4283
28855SOL     OW90352   9.379  10.177   0.801 -0.2823  0.0522 -0.7021
28855SOL    HW190353   9.439  10.247   0.829 -1.3220  0.5257  0.4625
28855SOL    HW290354   9.371  10.121   0.878 -0.5189 -0.5891 -1.1877
28856SOL     OW90355   9.860   7.636   6.660  0.2619  0.1546 -0.2119
28856SOL    HW190356   9.877   7.542   6.654  0.7954  0.3220 -1.7354
28856SOL    HW290357   9.940   7.677   6.629 -0.5293  1.0923 -1.0784
28857SOL     OW90358   4.082   9.930   7.493 -0.2488  0.1146 -0.4123
28857SOL    HW190359   4.101  10.010   7.541  1.4266 -0.1550 -0.5948
28857SOL    HW290360   4.157   9.873   7.508 -1.0208 -1.1103 -0.9800
28858SOL     OW90361   9.275   3.452   9.588  0.3174 -0.2346 -0.8828
28858SOL    HW190362   9.357   3.445   9.637  0.3746  1.2750 -0.7176
28858SOL    HW290363   9.215   3.392   9.632  0.5811  0.5645  0.6218
28859SOL     OW90364   0.051   0.883   2.105  0.0412 -0.4172 -0.8501
28859SOL    HW190365   0.130   0.830   2.098 -0.9582 -2.2814  0.9200
28859SOL    HW290366   0.049   0.912   2.196 -0.6725  0.6680 -1.1914
28860SOL     OW90367   1.114   4.107   9.232 -0.3255 -0.2547 -0.5445
28860SOL    HW190368   1.105   4.011   9.234  0.1117 -0.3491  2.4683
28860SOL    HW290369   1.026   4.139   9.253 -0.5706  0.0542 -1.9728
28861SOL     OW90370   3.547   3.630  10.275  0.8122  0.4265 -0.1470
28861SOL    HW190371   3.603   3.566  10.319 -1.1529  0.4803  2.6285
28861SOL    HW290372   3.464   3.584  10.261 -0.7149  2.2679  2.1011
28862SOL     OW90373   3.546   4.613   9.211 -0.5193  0.4188  0.2383
28862SOL    HW190374   3.559   4.523   9.240  0.0195  0.5611  0.4390
28862SOL    HW290375   3.513   4.605   9.122  0.2900  0.0366 -0.0316
28863SOL     OW90376   7.737   6.535   8.320  0.2078 -0.0063  0.4190
28863SOL    HW190377   7.750   6.535   8.225  0.7250  0.1847  0.4863
28863SOL    HW290378   7.812   6.583   8.355 -0.2096  0.3190  0.8960
28864SOL     OW90379   2.375   5.294   7.685  0.1282 -1.3262  0.1006
28864SOL    HW190380   2.350   5.242   7.762 -1.4112 -0.0289  0.5150
28864SOL    HW290381   2.464   5.324   7.705 -1.2511  1.4687  2.8447
28865SOL     OW90382   8.606   3.022   8.881 -0.6274  0.4413  0.3970
28865SOL    HW190383   8.538   2.955   8.879  0.8369 -1.1878  1.4757
28865SOL    HW290384   8.613   3.053   8.791 -3.0585  0.9893  0.3486
28866SOL     OW90385   4.855   7.329   3.495 -0.1556 -0.2273 -0.1974
28866SOL    HW190386   4.790   7.380   3.448 -0.2066  3.6270  3.4812
28866SOL    HW290387   4.933   7.384   3.499 -0.0283 -0.3924  3.6183
28867SOL     OW90388   9.744   2.541   6.534 -0.5898 -0.3240 -0.0046
28867SOL    HW190389   9.782   2.461   6.572  2.1208  0.2990 -1.1603
28867SOL    HW290390   9.775   2.612   6.590  0.1128  0.2177 -1.0338
28868SOL     OW90391   6.582   9.267   7.893 -0.1563 -0.0265  0.1238
28868SOL    HW190392   6.630   9.250   7.974 -1.7875 -0.4944  1.0535
28868SOL    HW290393   6.545   9.182   7.869 -0.4335  0.2902 -0.6103
28869SOL     OW90394   5.741  10.261   1.269 -0.3499  0.1726  0.1926
28869SOL    HW190395   5.801  10.328   1.235  1.0537  2.0280  5.3266
28869SOL    HW290396   5.788  10.179   1.258  0.8279  0.9216 -0.5878
28870SOL     OW90397   7.501   6.286   0.387 -0.3624  0.3813 -0.4760
28870SOL    HW190398   7.497   6.259   0.296  0.1924 -0.5004 -0.2552
28870SOL    HW290399   7.414   6.320   0.407 -1.1847 -1.4973 -0.7101
28871SOL     OW90400   7.940   7.090   7.016  0.0504 -0.0263 -0.5174
28871SOL    HW190401   7.996   7.136   7.079 -0.4268  1.8979 -1.4592
28871SOL    HW290402   8.000   7.061   6.948  0.0294  1.5094 -1.2239
28872SOL     OW90403   3.967   1.008   1.214  0.3265  0.6657 -0.1337
28872SOL    HW190404   3.935   1.052   1.136  0.3429  1.1992  0.1571
28872SOL    HW290405   4.059   0.988   1.194  0.0393 -0.2004 -0.6741
28873SOL     OW90406   1.310   6.652   0.411  0.2843 -0.3535 -0.2379
28873SOL    HW190407   1.348   6.599   0.482  0.1634  1.2782  1.1009
28873SOL    HW290408   1.216   6.643   0.422  0.2053  1.6733  1.2946
28874SOL     OW90409   4.377   2.218   3.833 -0.5983 -0.2465 -0.4171
28874SOL    HW190410   4.428   2.182   3.761 -0.3589  1.7364 -1.3125
28874SOL    HW290411   4.301   2.160   3.840  0.6988 -2.0347 -0.4371
28875SOL     OW90412   9.652   7.522   0.529  0.0458 -0.4237 -0.0724
28875SOL    HW190413   9.690   7.555   0.448  0.7959  0.5375  0.6451
28875SOL    HW290414   9.702   7.443   0.548  0.8748  0.1547  0.2092
28876SOL     OW90415   2.843   4.093   7.217 -0.6262 -0.1224 -0.1269
28876SOL    HW190416   2.772   4.148   7.183 -1.5052 -1.1146  0.0597
28876SOL    HW290417   2.915   4.154   7.231 -0.3752  0.4541 -3.2241
28877SOL     OW90418   4.158   3.706   4.821  0.7644 -0.1216  0.5795
28877SOL    HW190419   4.191   3.792   4.845  1.1707  0.0285 -0.4670
28877SOL    HW290420   4.237   3.654   4.805  0.5271 -0.1920 -0.4531
28878SOL     OW90421   2.331   9.579   7.960 -0.4190  0.6297  0.3793
28878SOL    HW190422   2.272   9.654   7.971 -1.1016  0.2334 -0.4243
28878SOL    HW290423   2.367   9.563   8.047  1.2686  3.1049  0.2482
28879SOL     OW90424   4.097   4.626   3.668  0.0895 -0.4256 -0.1709
28879SOL    HW190425   4.138   4.562   3.726 -1.1135 -0.6239  0.4922
28879SOL    HW290426   4.111   4.591   3.580  1.0112 -0.6669  0.0681
28880SOL     OW90427   1.004   5.055   8.604 -0.8733  0.5098  0.4472
28880SOL    HW190428   1.022   5.094   8.518  0.6301  0.0638  0.5342
28880SOL    HW290429   1.063   4.980   8.608 -3.6717 -1.8908  0.2402
28881SOL     OW90430   4.283   9.847   1.973 -0.1287 -0.0840  0.1014
28881SOL    HW190431   4.236   9.911   2.027 -0.6290  0.2391 -0.7029
28881SOL    HW290432   4.285   9.767   2.026 -0.8103  0.1600  0.5019
28882SOL     OW90433   9.821   1.781   5.759 -0.5958 -0.4921  0.7954
28882SOL    HW190434   9.794   1.698   5.797  0.9768 -2.1134 -1.3637
28882SOL    HW290435   9.859   1.758   5.674 -1.3672  2.5830 -0.5523
28883SOL     OW90436   8.822   0.769   9.915 -0.2767  0.3947  0.4216
28883SOL    HW190437   8.760   0.800   9.981  0.7584  0.7738  1.2376
28883SOL    HW290438   8.869   0.847   9.887 -0.7448  0.2540 -0.8463
28884SOL     OW90439   1.850   2.148   4.749 -0.0024  0.4489  0.1103
28884SOL    HW190440   1.876   2.236   4.776 -0.6465  0.6419  0.1171
28884SOL    HW290441   1.912   2.090   4.792 -0.6905  0.7746  1.5982
28885SOL     OW90442   0.174   1.117   5.440  0.0282  0.0927  0.4682
28885SOL    HW190443   0.112   1.163   5.496 -0.0704  1.6331 -0.8117
28885SOL    HW290444   0.177   1.028   5.474 -2.1877  0.2160  1.1341
28886SOL     OW90445   2.259   8.069   0.198  0.5400  0.3064 -0.1725
28886SOL    HW190446   2.268   8.110   0.285  0.2754 -0.1633  0.0799
28886SOL    HW290447   2.261   7.975   0.216 -1.4250  0.1707 -0.4597
28887SOL     OW90448   0.488   6.229   4.664 -0.0498  0.2479 -0.8399
28887SOL    HW190449   0.490   6.284   4.743  1.1351  1.4164 -1.6312
28887SOL    HW290450   0.396   6.202   4.656 -0.0901 -0.4704  1.2799
28888SOL     OW90451  10.226   1.507   1.166  0.0139 -0.4056  0.1454
28888SOL    HW190452  10.202   1.415   1.157 -1.7238 -0.0199  0.5909
28888SOL    HW290453  10.190   1.534   1.250  0.0214  0.8329 -0.2326
28889SOL     OW90454   7.696   1.278   1.844 -0.1068 -0.3074 -0.2449
28889SOL    HW190455   7.682   1.300   1.752 -0.3457  1.9056  0.2790
28889SOL    HW290456   7.790   1.291   1.857 -0.1939  0.0933 -0.0098
28890SOL     OW90457   1.294   9.208   2.095  0.1981  0.0971 -0.3455
28890SOL    HW190458   1.217   9.264   2.091  1.4105  1.9771  1.0167
28890SOL    HW290459   1.363   9.258   2.053  1.3605 -0.2656  1.0331
28891SOL     OW90460   0.082   4.063   5.158 -0.0839 -0.6255 -0.2562
28891SOL    HW190461  -0.002   4.107   5.148 -0.4739 -0.9894  1.2300
28891SOL    HW290462   0.074   3.984   5.104 -0.4563 -0.3406 -0.6214
28892SOL     OW90463   5.777   0.862   8.781  0.9310  0.0925 -0.1038
28892SOL    HW190464   5.793   0.939   8.835 -0.0889  0.7055 -0.6512
28892SOL    HW290465   5.728   0.802   8.837  1.8082 -0.2159  0.3527
28893SOL     OW90466   8.102   4.793   9.497 -0.1089 -0.6111 -0.0680
28893SOL    HW190467   8.136   4.771   9.584  1.3811  0.4012 -0.3438
28893SOL    HW290468   8.166   4.855   9.462 -0.9544 -0.6012 -1.6864
28894SOL     OW90469   6.028   2.091   2.150  0.5426  0.1937 -0.2175
28894SOL    HW190470   6.019   2.089   2.245 -0.7367  1.1055 -0.2912
28894SOL    HW290471   5.985   2.011   2.121 -2.2625  1.5623 -0.1771
28895SOL     OW90472   1.563   7.438   9.270 -0.0963 -0.5703  0.2683
28895SOL    HW190473   1.486   7.410   9.221 -0.3577 -0.1217  0.4108
28895SOL    HW290474   1.626   7.367   9.259 -0.7218 -1.1955  0.5980
28896SOL     OW90475   7.785   5.089   1.953 -0.2495  0.3661 -0.4949
28896SOL    HW190476   7.836   5.165   1.982  0.5488  0.1087 -1.1620
28896SOL    HW290477   7.758   5.112   1.864 -0.4710  0.0903 -0.4989
28897SOL     OW90478   0.662   4.697   3.819 -0.2461 -0.0932 -0.1399
28897SOL    HW190479   0.669   4.756   3.743 -1.3876  0.0018 -0.1937
28897SOL    HW290480   0.749   4.699   3.858 -0.4758  2.4422  0.4434
28898SOL     OW90481  10.234   2.167   2.309 -0.0634  0.2991  0.2139
28898SOL    HW190482  10.282   2.085   2.296 -0.3310 -0.5785  3.6282
28898SOL    HW290483  10.143   2.139   2.320 -0.0194  0.8335  2.4526
28899SOL     OW90484   4.197   5.337   0.003 -0.3398  0.6541 -0.2205
28899SOL    HW190485   4.224   5.428  -0.006 -0.8657  0.7086 -1.3819
28899SOL    HW290486   4.198   5.302  -0.086 -0.4906 -0.3730  0.1681
28900SOL     OW90487   5.063   8.039   8.550 -0.5642  0.0577  0.6074
28900SOL    HW190488   5.067   7.998   8.463 -2.2776  0.3304  0.3634
28900SOL    HW290489   5.068   7.965   8.611 -0.4138 -0.2271  0.2606
28901SOL     OW90490   7.817   9.513   3.608 -0.6526 -0.2105  0.2447
28901SOL    HW190491   7.865   9.537   3.529  0.5544 -0.9062  0.7371
28901SOL    HW290492   7.877   9.535   3.680 -2.4566  2.2541  1.1500
28902SOL     OW90493   2.283   4.291   5.772  0.3508 -0.3858  0.2473
28902SOL    HW190494   2.362   4.325   5.730  0.1720  0.1892  0.3798
28902SOL    HW290495   2.233   4.252   5.701  0.6403 -0.5352  0.1246
28903SOL     OW90496   0.065   2.059   6.387 -0.2965 -0.0995 -0.3744
28903SOL    HW190497   0.081   2.149   6.360  0.8127 -0.2050 -0.0932
28903SOL    HW290498  -0.030   2.050   6.383 -0.8133  2.2032  3.0882
28904SOL     OW90499   3.635   5.857   8.482  0.6179  0.0314  0.1726
28904SOL    HW190500   3.691   5.834   8.408  0.6274 -0.0576  0.2072
28904SOL    HW290501   3.668   5.941   8.513 -1.8825  2.2499 -2.5078
28905SOL     OW90502   5.286   6.911   4.344  0.0566  0.1688  0.5115
28905SOL    HW190503   5.358   6.874   4.293  0.0527  1.4691 -0.4829
28905SOL    HW290504   5.207   6.887   4.295 -0.1398 -0.4991  1.1328
28906SOL     OW90505   4.781   6.272   1.301 -0.2744  0.4140  0.4344
28906SOL    HW190506   4.698   6.300   1.340 -0.5954 -1.4628  1.1850
28906SOL    HW290507   4.819   6.212   1.365  0.3894 -0.8096 -1.0431
28907SOL     OW90508   8.950   0.248   0.068  0.2618 -0.1340  0.5767
28907SOL    HW190509   8.947   0.202  -0.016  0.5240 -1.0459  1.0555
28907SOL    HW290510   8.882   0.315   0.062  0.3025 -0.1722 -0.3699
28908SOL     OW90511  10.269   4.483   9.415  0.0205  0.0894 -0.2588
28908SOL    HW190512  10.236   4.566   9.450 -0.9953 -0.1684 -0.5680
28908SOL    HW290513  10.337   4.508   9.353  0.7466  0.6164  0.7198
28909SOL     OW90514   8.296   3.336   9.231 -0.1968  0.4745  0.0877
28909SOL    HW190515   8.342   3.329   9.314  0.1457  0.1610 -0.1220
28909SOL    HW290516   8.203   3.335   9.254 -0.1296  2.3825  0.6221
28910SOL     OW90517   0.929   7.145   5.315 -0.0676  0.0013  0.4084
28910SOL    HW190518   0.900   7.233   5.294  1.3027  0.7032  1.3206
28910SOL    HW290519   0.979   7.117   5.238  2.7105  1.5432  1.5096
28911SOL     OW90520   1.390   9.466   4.314 -0.3272  0.4685  0.0938
28911SOL    HW190521   1.343   9.498   4.391 -2.5273 -2.9380  0.3604
28911SOL    HW290522   1.447   9.397   4.347  0.2243  0.3426 -1.0769
28912SOL     OW90523   9.568   1.357   6.811  0.1800 -0.2740 -0.2787
28912SOL    HW190524   9.543   1.289   6.873  0.6332 -0.2397 -0.0491
28912SOL    HW290525   9.637   1.406   6.857 -0.7476  0.8834 -0.0893
28913SOL     OW90526   9.938  10.147   9.400  0.3272 -0.0629  0.2099
28913SOL    HW190527   9.913  10.071   9.348  1.3012 -0.0153 -0.3426
28913SOL    HW290528   9.920  10.121   9.490 -0.8480 -0.3493 -0.0912
28914SOL     OW90529   5.770   4.822   5.059 -0.2579 -0.3430  0.1070
28914SOL    HW190530   5.777   4.837   4.965  0.5745 -0.1611  0.1916
28914SOL    HW290531   5.684   4.857   5.082  0.2828  1.3173 -0.2696
28915SOL     OW90532   0.098   2.435   7.531 -0.4779  0.2552  0.0250
28915SOL    HW190533   0.084   2.362   7.470  0.0599 -0.2956  0.5451
28915SOL    HW290534   0.192   2.452   7.526 -0.2244 -0.5346  1.4974
28916SOL     OW90535   1.723   0.215   8.663 -0.2318  0.3388  0.1342
28916SOL    HW190536   1.695   0.248   8.748  0.7576  2.0148 -0.1431
28916SOL    HW290537   1.646   0.171   8.628 -0.8790  0.2740  1.5745
28917SOL     OW90538   1.352   7.980   8.009  0.5489 -0.6709  0.5338
28917SOL    HW190539   1.318   8.054   8.059 -0.4716  0.9202 -2.2888
28917SOL    HW290540   1.445   7.999   7.997  0.4152 -0.1333  0.3359
28918SOL     OW90541   1.333   9.796   5.744  0.1634 -0.4325  0.5161
28918SOL    HW190542   1.368   9.819   5.830  1.3546  0.1261 -0.0906
28918SOL    HW290543   1.262   9.858   5.730 -0.7846 -1.2450  1.5510
28919SOL     OW90544   9.930   7.494   2.354 -0.1003  0.1935  0.0524
28919SOL    HW190545   9.869   7.524   2.421  0.9620  1.6252  0.4211
28919SOL    HW290546   9.982   7.426   2.397  0.8797  1.4151  0.8832
28920SOL     OW90547   0.075   3.918   8.982 -0.1017 -0.5241 -0.3697
28920SOL    HW190548   0.132   3.971   8.926 -0.3269 -0.4879 -0.5691
28920SOL    HW290549   0.095   3.827   8.957 -0.7296 -0.4898 -1.0491
28921SOL     OW90550   9.763   3.182   8.520  0.0939  0.1871  0.0793
28921SOL    HW190551   9.724   3.139   8.443  0.5950 -2.4399  1.1994
28921SOL    HW290552   9.688   3.223   8.564 -0.5686 -0.2808 -0.5796
28922SOL     OW90553   1.682   3.204   9.507  0.2396  0.2466 -0.5634
28922SOL    HW190554   1.711   3.118   9.479 -0.4359 -0.2303  0.1438
28922SOL    HW290555   1.598   3.217   9.462 -0.1080  0.1250  0.0307
28923SOL     OW90556   5.943   5.943   5.777  0.4752  0.0308  0.2712
28923SOL    HW190557   5.988   5.967   5.697 -0.4637 -3.3204 -1.4543
28923SOL    HW290558   6.012   5.919   5.838  1.1626  0.0031 -0.5054
28924SOL     OW90559   2.745   7.599   8.081 -0.3532 -0.7722 -0.8717
28924SOL    HW190560   2.673   7.638   8.131  1.4156  1.2021  0.3265
28924SOL    HW290561   2.780   7.672   8.030  1.5548 -1.3485 -0.4542
28925SOL     OW90562   0.438   2.315   2.225  0.1578  0.1855 -0.0466
28925SOL    HW190563   0.405   2.317   2.315  0.0513 -0.8011 -0.0525
28925SOL    HW290564   0.362   2.338   2.171  0.7308  3.0293  0.1936
28926SOL     OW90565   6.471   7.670   8.104  0.3428 -0.1431 -0.0162
28926SOL    HW190566   6.416   7.747   8.088  1.9710  1.1122  0.1623
28926SOL    HW290567   6.450   7.644   8.193 -1.7783 -1.2778 -0.7779
28927SOL     OW90568   2.300   6.400   8.189 -0.4467 -0.7786  0.3864
28927SOL    HW190569   2.259   6.470   8.240 -0.6696 -0.1846 -0.5776
28927SOL    HW290570   2.357   6.355   8.252 -0.2974  0.2682  1.0294
28928SOL     OW90571   7.669   7.576  10.179  0.5035 -1.1642 -0.7877
28928SOL    HW190572   7.653   7.495  10.227 -0.6940  1.1877  3.2164
28928SOL    HW290573   7.763   7.592  10.191  0.4821 -1.2974 -0.4257
28929SOL     OW90574   9.489   6.233   2.872  0.3043 -0.1118 -0.3981
28929SOL    HW190575   9.409   6.234   2.820 -0.2463 -0.2966  0.4199
28929SOL    HW290576   9.520   6.324   2.872 -0.1895  0.0585 -0.3041
28930SOL     OW90577  10.180   3.683   1.760 -0.4691  0.0350 -0.1738
28930SOL    HW190578  10.091   3.695   1.795 -0.2173 -0.2398  0.5647
28930SOL    HW290579  10.226   3.763   1.784 -0.2587 -0.2099  0.2537
28931SOL     OW90580   4.609   2.680   5.712 -0.2335  0.5028  0.0247
28931SOL    HW190581   4.549   2.752   5.734 -0.0294  0.5657  0.3786
28931SOL    HW290582   4.586   2.610   5.772 -2.4280 -0.8544 -2.1844
28932SOL     OW90583   9.542   7.100  10.119  0.2741 -0.2175  0.0119
28932SOL    HW190584   9.561   7.016  10.076  0.2192 -0.7660  1.0245
28932SOL    HW290585   9.459   7.128  10.081  0.9369  0.0650 -1.3135
28933SOL     OW90586   9.289   5.425   9.450  0.2875 -0.5698  0.0374
28933SOL    HW190587   9.343   5.400   9.525  0.7661  2.6274  0.8950
28933SOL    HW290588   9.206   5.455   9.488 -0.8302 -2.1142 -1.0260
28934SOL     OW90589   3.442   0.995   4.944  0.4378 -0.5837  0.0534
28934SOL    HW190590   3.355   1.018   4.975  0.0120  2.4025 -2.8088
28934SOL    HW290591   3.479   0.941   5.014 -3.4677 -1.5878  1.5850
28935SOL     OW90592   6.011   6.385   0.902  0.8446 -0.1653 -0.1538
28935SOL    HW190593   6.082   6.402   0.840  0.1325  1.4586 -0.5698
28935SOL    HW290594   6.054   6.347   0.978  1.9274 -0.8124 -1.0648
28936SOL     OW90595   4.079   9.410   2.996  0.3528  0.6154 -0.2944
28936SOL    HW190596   4.108   9.403   2.905  0.7383  0.4717 -0.1607
28936SOL    HW290597   4.089   9.502   3.018 -0.5005  0.8083 -0.6453
28937SOL     OW90598   1.540   6.759   4.827  0.7684 -0.1628 -0.4110
28937SOL    HW190599   1.520   6.834   4.882  3.1381 -1.1691  1.9980
28937SOL    HW290600   1.628   6.776   4.792  1.2850 -1.6879  0.0379
28938SOL     OW90601   4.463   9.153   6.719  0.4182  0.2151 -0.3522
28938SOL    HW190602   4.411   9.154   6.799  2.7003  2.2625  1.2751
28938SOL    HW290603   4.400   9.168   6.649 -1.6118 -1.2805  1.0416
28939SOL     OW90604   8.713   9.896   7.093 -1.0595  0.3618  0.1184
28939SOL    HW190605   8.797   9.853   7.079 -1.8887 -1.4676  0.5322
28939SOL    HW290606   8.667   9.889   7.009 -1.8835 -1.2147  0.6548
28940SOL     OW90607   8.148   3.759   0.381  0.3746  0.0359  0.8089
28940SOL    HW190608   8.169   3.670   0.408  1.3102  0.3076  1.0288
28940SOL    HW290609   8.055   3.756   0.357  0.1138 -0.7400  1.8530
28941SOL     OW90610   5.197   4.004   0.274 -0.4907  0.3983  0.3592
28941SOL    HW190611   5.239   3.919   0.266 -1.3795 -0.1873  1.5310
28941SOL    HW290612   5.105   3.988   0.252 -0.6825  1.0206  0.6646
28942SOL     OW90613   9.665   8.631   4.421 -0.0455 -0.2191 -0.2908
28942SOL    HW190614   9.644   8.636   4.514  0.5438  2.1858 -0.2057
28942SOL    HW290615   9.584   8.656   4.376  0.2592  0.8202 -0.2968
28943SOL     OW90616   7.209   5.375   1.658  0.6411 -0.5495  0.0089
28943SOL    HW190617   7.178   5.299   1.608 -0.7976 -0.4869  0.7643
28943SOL    HW290618   7.230   5.440   1.591  0.8354 -1.2173 -0.6020
28944SOL     OW90619   8.698   2.960  10.141 -0.0145  0.3141 -0.1685
28944SOL    HW190620   8.613   2.996  10.166 -0.0921 -0.9444  1.5627
28944SOL    HW290621   8.758   2.990  10.209  1.0549  1.5469 -1.6017
28945SOL     OW90622   4.634   6.290  10.229  0.4992 -0.3321  0.2572
28945SOL    HW190623   4.654   6.226  10.297  0.4468 -0.6444 -0.0190
28945SOL    HW290624   4.618   6.237  10.151 -0.6945 -0.0504  0.3003
28946SOL     OW90625   9.253   6.067   4.564 -0.5453 -0.7010  0.1591
28946SOL    HW190626   9.251   6.153   4.605  1.7027 -0.8922  0.8131
28946SOL    HW290627   9.286   6.083   4.476 -0.6114 -0.8523  0.1057
28947SOL     OW90628   0.709   1.497   8.743 -0.1693  0.6373  0.1664
28947SOL    HW190629   0.637   1.477   8.684 -0.1523  0.9042  0.0535
28947SOL    HW290630   0.788   1.479   8.691 -0.1471 -0.2330  0.4841
28948SOL     OW90631   3.525   0.461   2.489  0.3584  0.2472 -0.5918
28948SOL    HW190632   3.506   0.534   2.548 -4.1555 -0.1637 -1.2487
28948SOL    HW290633   3.503   0.383   2.540  1.0753 -0.4227 -1.2818
28949SOL     OW90634   7.657   8.509   8.622  0.1540 -0.2233 -0.6334
28949SOL    HW190635   7.601   8.479   8.550 -0.5160 -1.4624  0.3681
28949SOL    HW290636   7.600   8.508   8.699  1.6062 -1.9916  0.5203
28950SOL     OW90637   5.575   1.756   4.660  0.2707  0.7814 -0.4269
28950SOL    HW190638   5.546   1.840   4.698 -0.1333  0.1676  0.6647
28950SOL    HW290639   5.494   1.713   4.632  0.0690 -0.7330  2.1999
28951SOL     OW90640   3.295   5.432   2.674  0.5896  0.0381  0.1205
28951SOL    HW190641   3.227   5.432   2.741  0.8993 -1.2032  0.4636
28951SOL    HW290642   3.278   5.352   2.623  2.0584 -0.5565  0.5053
28952SOL     OW90643   9.265   7.645   0.180 -0.0974  0.2965 -0.3092
28952SOL    HW190644   9.196   7.646   0.247  0.2524 -1.6984  0.1511
28952SOL    HW290645   9.306   7.731   0.187 -1.1713  0.7431  0.8806
28953SOL     OW90646   1.847   2.066   9.352  0.9312 -0.1610  0.7232
28953SOL    HW190647   1.786   2.054   9.279  0.0350  1.0985  1.2214
28953SOL    HW290648   1.917   2.004   9.335  0.5954 -0.1169 -1.0522
28954SOL     OW90649   8.861   6.448   4.092  0.1969 -0.1273  0.2235
28954SOL    HW190650   8.829   6.434   4.003  0.2822  0.0011  0.1720
28954SOL    HW290651   8.804   6.516   4.128 -0.5642 -0.9871  0.6620
28955SOL     OW90652   9.105   0.709   5.338 -0.3102 -0.2122  0.0185
28955SOL    HW190653   9.180   0.767   5.326  0.7958 -1.9520 -1.8422
28955SOL    HW290654   9.034   0.751   5.288 -0.1048  0.5100  0.3142
28956SOL     OW90655   8.502   4.121   5.117 -0.2037 -0.1002  0.0768
28956SOL    HW190656   8.546   4.038   5.097  0.4893  0.0143  1.0476
28956SOL    HW290657   8.519   4.176   5.041 -1.6993 -1.2093 -1.1417
28957SOL     OW90658   0.839   3.957   1.372  0.7301 -0.1409 -0.4130
28957SOL    HW190659   0.793   3.876   1.350 -0.4226  0.0431  1.1608
28957SOL    HW290660   0.787   4.026   1.330  1.2098 -0.1189 -0.9991
28958SOL     OW90661   0.748   5.067   6.837 -0.0780  0.1973 -0.0248
28958SOL    HW190662   0.810   5.071   6.765 -0.1413  2.0856 -0.0277
28958SOL    HW290663   0.679   5.129   6.813 -0.6552  0.0433  1.1496
28959SOL     OW90664   8.686   8.020   0.861  0.0018 -0.5514 -0.2706
28959SOL    HW190665   8.632   7.951   0.822  0.6671 -0.8150 -0.7307
28959SOL    HW290666   8.625   8.068   0.917 -1.0303 -0.1076 -1.6852
28960SOL     OW90667   5.837   9.155   0.599 -0.0640 -0.3284  0.1126
28960SOL    HW190668   5.886   9.153   0.516 -1.5716 -1.1056 -0.7904
28960SOL    HW290669   5.839   9.247   0.625 -0.0227  0.0183 -1.0681
28961SOL     OW90670   5.767   5.485   6.097 -0.2697  0.1605  0.2690
28961SOL    HW190671   5.758   5.390   6.089  2.0705 -0.1013  0.0043
28961SOL    HW290672   5.770   5.517   6.007 -1.4918  0.5693  0.3549
28962SOL     OW90673   1.187   5.342   4.431  0.2113 -0.1737  0.8368
28962SOL    HW190674   1.212   5.276   4.496  0.7924  0.4377  1.2466
28962SOL    HW290675   1.236   5.319   4.352 -0.2030 -0.6944  0.7278
28963SOL     OW90676   4.214   4.119   7.475 -0.9882  0.0953 -0.1202
28963SOL    HW190677   4.238   4.042   7.527  0.9759  0.6033 -0.1741
28963SOL    HW290678   4.298   4.161   7.455 -1.9773  2.0449 -0.4112
28964SOL     OW90679   5.492   5.769   5.573  0.1329 -0.1345  0.0984
28964SOL    HW190680   5.551   5.834   5.610  0.8492 -1.2661  0.9946
28964SOL    HW290681   5.405   5.796   5.602  0.3320  0.8022 -0.1367
28965SOL     OW90682   5.418   1.068   0.041 -0.3572  0.6090 -0.0748
28965SOL    HW190683   5.340   1.058  -0.013 -1.5267  2.2927  1.1978
28965SOL    HW290684   5.474   1.126  -0.010 -0.4303  0.3261 -0.4841
28966SOL     OW90685  10.116   2.072   9.023 -0.2673 -0.3866  0.1069
28966SOL    HW190686  10.168   2.019   8.962  2.4649  1.3744  0.7308
28966SOL    HW290687  10.081   2.143   8.969  1.1180  0.4807  0.3158
28967SOL     OW90688   1.886   7.965   8.824  0.0614 -0.1345  1.0626
28967SOL    HW190689   1.824   7.994   8.891  0.7341 -0.5500  1.8834
28967SOL    HW290690   1.926   8.046   8.793 -1.1051  0.1715  0.2894
28968SOL     OW90691   1.353   5.619   2.361  0.2235 -0.0678 -0.6515
28968SOL    HW190692   1.369   5.563   2.437  1.0169  0.5667 -0.3359
28968SOL    HW290693   1.427   5.602   2.303 -0.7709 -1.1305 -1.6662
28969SOL     OW90694   5.308   3.364   7.979  0.0293  0.4310 -0.0750
28969SOL    HW190695   5.215   3.350   7.962  0.0652 -0.3389  0.3266
28969SOL    HW290696   5.352   3.307   7.915  0.2216  0.5510 -0.0492
28970SOL     OW90697   1.514   3.759   3.592  0.0415  0.0315 -0.1928
28970SOL    HW190698   1.451   3.689   3.608 -1.3038  1.4218  0.9020
28970SOL    HW290699   1.598   3.721   3.619 -0.7426 -0.9726  0.9735
28971SOL     OW90700   7.041   3.828   9.109  0.0331 -0.4571 -0.1321
28971SOL    HW190701   6.994   3.817   9.027  0.1687 -3.2097  0.0605
28971SOL    HW290702   7.133   3.812   9.086  0.6431  2.3959 -0.0449
28972SOL     OW90703   6.275   9.222   9.790 -0.3327  0.2442 -0.5700
28972SOL    HW190704   6.297   9.222   9.697  2.2990  0.5278 -0.0469
28972SOL    HW290705   6.265   9.314   9.812 -0.7869  0.1855 -0.5222
28973SOL     OW90706   6.767   4.583   5.485 -0.2907  0.0244 -0.0875
28973SOL    HW190707   6.791   4.527   5.411  1.1622  1.0896 -0.4723
28973SOL    HW290708   6.755   4.670   5.446 -0.3663  0.4226  0.8027
28974SOL     OW90709   1.089   5.163   9.339 -0.9539 -0.0924  0.2140
28974SOL    HW190710   1.012   5.110   9.363  0.7714 -1.6628  2.8883
28974SOL    HW290711   1.115   5.204   9.421 -0.6628  2.9564 -1.2876
28975SOL     OW90712   3.645   3.071  10.137  0.4305  0.8325 -0.2405
28975SOL    HW190713   3.641   3.156  10.093 -1.6036  0.0461 -1.7216
28975SOL    HW290714   3.679   3.011  10.071 -0.2021  0.1032  0.0757
28976SOL     OW90715   3.612   5.563   9.427 -0.0339 -0.0020  0.0451
28976SOL    HW190716   3.670   5.621   9.378 -0.8043 -1.5922 -2.9724
28976SOL    HW290717   3.557   5.623   9.478  0.5084  1.8212 -1.3963
28977SOL     OW90718   9.452   9.104   2.790 -0.6881 -1.3575  0.6327
28977SOL    HW190719   9.373   9.051   2.789 -0.6078 -1.7337  3.8545
28977SOL    HW290720   9.448   9.152   2.873 -0.3661  3.1619 -1.6639
28978SOL     OW90721   6.461   9.887   7.010 -0.4132 -0.3924 -0.1984
28978SOL    HW190722   6.452   9.874   7.105 -0.5139 -2.4929 -0.4407
28978SOL    HW290723   6.510   9.969   7.002  0.4381 -0.6404  1.7029
28979SOL     OW90724  10.055   4.784   7.833 -0.4189 -0.0279  0.1168
28979SOL    HW190725  10.135   4.819   7.872 -1.8544 -0.8516  4.2070
28979SOL    HW290726   9.992   4.855   7.840 -0.6448 -0.0473 -1.3017
28980SOL     OW90727   9.378   1.328   1.993 -0.6029  0.4106  0.3694
28980SOL    HW190728   9.306   1.389   1.973 -1.1974 -0.4422 -0.1828
28980SOL    HW290729   9.419   1.364   2.071 -1.2026  1.2899  0.2991
28981SOL     OW90730   3.204   1.411   4.820  0.4328 -0.4500 -0.1434
28981SOL    HW190731   3.204   1.471   4.746 -0.4585  1.2647  1.1737
28981SOL    HW290732   3.292   1.418   4.857  1.4152 -2.5161 -1.8823
28982SOL     OW90733   9.934   8.439   6.150  0.1167  0.0499 -0.3708
28982SOL    HW190734   9.982   8.357   6.162  1.6224  0.7318 -1.4176
28982SOL    HW290735   9.906   8.464   6.238  1.1856 -0.6820  0.1901
28983SOL     OW90736   5.681   5.079   3.597  0.2550 -0.1649  0.2146
28983SOL    HW190737   5.687   5.165   3.640 -2.9733  1.5812 -2.3113
28983SOL    HW290738   5.747   5.082   3.528  0.7815 -0.1371  0.7102
28984SOL     OW90739   2.965  10.193   4.082  0.5025 -0.2833 -0.5090
28984SOL    HW190740   3.040  10.207   4.024 -0.3725  1.7064 -1.2623
28984SOL    HW290741   2.937  10.281   4.107 -0.2197 -1.0413  1.5728
28985SOL     OW90742   6.187   8.588   6.686 -0.0264 -0.5201 -0.8939
28985SOL    HW190743   6.218   8.641   6.759  2.9870 -0.9475 -1.7149
28985SOL    HW290744   6.140   8.515   6.726 -1.0050  0.7615  0.4014
28986SOL     OW90745   0.795  10.016   2.729  0.3180 -0.1586 -0.9067
28986SOL    HW190746   0.819  10.046   2.817 -0.8432 -0.6033 -0.4144
28986SOL    HW290747   0.862   9.953   2.706 -0.3075 -1.3747  0.4249
28987SOL     OW90748   4.451   4.484   6.821 -0.4837  0.4070 -0.7128
28987SOL    HW190749   4.526   4.537   6.850 -0.2274 -0.8599  1.1441
28987SOL    HW290750   4.374   4.534   6.847 -0.2765  0.8764 -0.9882
28988SOL     OW90751   0.882   3.998   6.144 -0.1486 -0.3867 -0.9807
28988SOL    HW190752   0.892   4.056   6.069  1.1395  0.8358  0.0691
28988SOL    HW290753   0.951   3.932   6.132 -1.3634 -1.5221 -1.9726
28989SOL     OW90754   9.751   3.746   2.075  0.6654 -0.8944  0.0346
28989SOL    HW190755   9.688   3.687   2.117  1.8379 -0.4779  2.5627
28989SOL    HW290756   9.780   3.804   2.145  1.4580  1.0596 -1.7986
28990SOL     OW90757   6.060   8.225   7.560 -0.0709  0.1819  1.1535
28990SOL    HW190758   6.028   8.271   7.638 -0.7977  0.3702  0.7571
28990SOL    HW290759   5.995   8.245   7.492 -0.5281 -1.5565  1.0132
28991SOL     OW90760   1.476   6.971  10.347 -0.8209 -0.3783 -0.2912
28991SOL    HW190761   1.445   6.894  10.299 -0.3551  0.4327 -1.9456
28991SOL    HW290762   1.536   7.015  10.287  1.2292 -0.2625  1.6693
28992SOL     OW90763   1.007   9.841   4.394  0.0128 -0.4451 -0.1533
28992SOL    HW190764   0.935   9.905   4.402  0.4152 -0.0184  0.1010
28992SOL    HW290765   1.003   9.790   4.475  0.2480 -0.1525  0.0449
28993SOL     OW90766   6.586   1.246   4.034 -0.0842 -0.3228 -0.2355
28993SOL    HW190767   6.613   1.306   4.104 -1.0962 -0.1724  0.0380
28993SOL    HW290768   6.588   1.300   3.955  1.6557 -0.6478 -0.4531
28994SOL     OW90769   2.368   7.679  10.326  0.4737 -0.4739 -0.6308
28994SOL    HW190770   2.352   7.721  10.242 -1.5365 -1.6929 -0.9234
28994SOL    HW290771   2.284   7.639  10.349  1.6732 -2.4229  0.6574
28995SOL     OW90772   8.466  10.037   8.428 -0.4883  0.3507 -0.2999
28995SOL    HW190773   8.463  10.065   8.337 -0.4113 -0.9320 -0.7179
28995SOL    HW290774   8.556  10.052   8.456 -0.5223  0.7823 -0.4125
28996SOL     OW90775   6.981   6.087   9.712  0.7210  0.0987  0.1914
28996SOL    HW190776   6.947   6.054   9.796  1.9092  0.2606  0.7709
28996SOL    HW290777   7.049   6.023   9.688  0.9121  0.4656 -0.2501
28997SOL     OW90778   0.421  10.115   0.799 -0.6581  0.0321  0.8192
28997SOL    HW190779   0.387  10.049   0.859 -1.4357 -1.4143 -1.1108
28997SOL    HW290780   0.359  10.115   0.726  0.2003  1.7864  0.0323
28998SOL     OW90781   6.569   0.456   5.829 -0.1362  0.5876 -0.3010
28998SOL    HW190782   6.571   0.385   5.765 -1.4405  0.7685 -0.5693
28998SOL    HW290783   6.572   0.536   5.776  0.3518  0.7385 -0.0501
28999SOL     OW90784   7.466   0.580   3.214  0.0356  0.8679 -0.1582
28999SOL    HW190785   7.419   0.527   3.150 -1.3205  2.2994 -0.3970
28999SOL    HW290786   7.531   0.520   3.251 -1.3195 -0.9105 -0.5148
29000SOL     OW90787   7.686   9.930   1.715 -0.4698 -0.4631 -0.1961
29000SOL    HW190788   7.605   9.919   1.667 -1.3993 -0.5665  1.3237
29000SOL    HW290789   7.661   9.921   1.807  1.3038 -0.7502  0.3006
29001SOL     OW90790   6.162   5.635   1.271 -0.3519 -1.1921  0.6842
29001SOL    HW190791   6.104   5.613   1.198 -0.1525  0.0816  0.0990
29001SOL    HW290792   6.103   5.664   1.341 -0.4945  2.5859 -0.7546
29002SOL     OW90793  10.232   1.917   6.051  0.4182  0.2214 -0.0745
29002SOL    HW190794  10.267   1.860   6.120  1.9591  2.4975  1.1448
29002SOL    HW290795  10.148   1.876   6.027  2.4809 -3.9712 -1.1620
29003SOL     OW90796   6.761   0.523   6.062 -0.0921  0.5292 -0.1507
29003SOL    HW190797   6.704   0.449   6.042  0.2367  0.8982 -2.8552
29003SOL    HW290798   6.702   0.598   6.066 -0.0118  0.7032 -1.6024
29004SOL     OW90799   6.239   0.835   5.307  0.1353  0.2833  0.8999
29004SOL    HW190800   6.155   0.793   5.287  0.2288 -0.3510  1.8055
29004SOL    HW290801   6.302   0.789   5.252  0.0755 -0.0677  1.1232
29005SOL     OW90802   0.058   0.483   7.165 -0.0364  0.5862  0.2939
29005SOL    HW190803   0.012   0.399   7.164  0.6485  0.2068 -0.7776
29005SOL    HW290804  -0.010   0.547   7.146 -0.0267 -0.0512 -2.1582
29006SOL     OW90805   0.435   7.708   3.634 -0.2465 -1.1193  0.2766
29006SOL    HW190806   0.495   7.764   3.682 -1.2338  0.2589 -0.0506
29006SOL    HW290807   0.476   7.621   3.637  0.7260 -0.6462  1.8064
29007SOL     OW90808   6.340   7.605   4.074 -0.2531 -0.1362  0.1914
29007SOL    HW190809   6.368   7.573   4.159  0.4819  0.1083  0.0430
29007SOL    HW290810   6.401   7.675   4.053 -0.0171 -0.6340 -0.8407
29008SOL     OW90811   2.616   6.644   8.929  0.6822 -0.2342  0.2298
29008SOL    HW190812   2.632   6.572   8.989  0.3702 -1.2673 -0.8895
29008SOL    HW290813   2.689   6.641   8.868  0.1310 -0.2795 -0.4466
29009SOL     OW90814   3.073   8.445   1.275 -0.1497 -0.3515 -0.5933
29009SOL    HW190815   3.002   8.391   1.308 -0.2912  1.3005  2.1399
29009SOL    HW290816   3.029   8.519   1.233 -0.0243 -0.5696 -1.1022
29010SOL     OW90817   2.821   7.972   9.136  0.0020 -0.7454 -0.1948
29010SOL    HW190818   2.770   7.922   9.200  0.3610  1.0560  1.5931
29010SOL    HW290819   2.758   8.030   9.094  0.4770  1.8862  2.4128
29011SOL     OW90820   1.894   9.227   5.967  0.2992  0.1932 -0.3418
29011SOL    HW190821   1.962   9.165   5.991 -1.1680 -1.2782  0.2486
29011SOL    HW290822   1.896   9.230   5.872  0.3636 -0.8247 -0.3837
29012SOL     OW90823   6.899   5.669   8.340 -0.5975 -0.0387  0.2586
29012SOL    HW190824   6.834   5.606   8.372 -1.0797  0.6591  0.6653
29012SOL    HW290825   6.892   5.663   8.244  0.0107 -1.2520  0.2588
29013SOL     OW90826   5.279   1.879   2.500 -0.3755 -0.3847 -0.0637
29013SOL    HW190827   5.187   1.870   2.478 -0.3466  0.9320 -0.8525
29013SOL    HW290828   5.294   1.815   2.569 -1.9753 -0.3501  0.3489
29014SOL     OW90829   5.658   2.243   0.735 -0.3927  0.2855 -0.3741
29014SOL    HW190830   5.631   2.329   0.768  0.0729 -0.0869  1.0111
29014SOL    HW290831   5.752   2.251   0.720 -0.7087  0.7244 -2.5702
29015SOL     OW90832   7.960   1.695   2.980 -0.0371  0.3468  0.3946
29015SOL    HW190833   8.001   1.772   2.940  2.5299 -0.6556  0.8710
29015SOL    HW290834   7.911   1.729   3.054  0.8953  1.5412  0.4788
29016SOL     OW90835   2.865   1.577   5.782  0.5670 -0.2519 -0.3858
29016SOL    HW190836   2.826   1.575   5.694 -1.0100  1.4551  0.2126
29016SOL    HW290837   2.901   1.666   5.789  2.1126 -0.8862  0.1358
29017SOL     OW90838   6.713   6.899   4.258 -0.4510  0.1217 -0.5308
29017SOL    HW190839   6.799   6.857   4.262 -0.0105  0.8754 -1.5369
29017SOL    HW290840   6.669   6.858   4.184  0.0010  1.4109 -1.5557
29018SOL     OW90841   1.308   0.860   6.196 -0.4798 -0.9309 -0.7771
29018SOL    HW190842   1.245   0.790   6.213  0.0528 -0.8754  1.6902
29018SOL    HW290843   1.392   0.827   6.229  0.5764 -0.4834 -2.7939
29019SOL     OW90844   2.643   7.370   4.597  0.3956  0.2708  0.0321
29019SOL    HW190845   2.564   7.337   4.641 -0.5807  1.8469 -0.4487
29019SOL    HW290846   2.671   7.298   4.540 -0.2260 -0.6025  0.8062
29020SOL     OW90847   1.963   3.507   9.074 -0.2575  0.1264  0.3335
29020SOL    HW190848   2.024   3.516   9.147 -0.2805 -0.3203  0.4078
29020SOL    HW290849   1.997   3.568   9.008 -1.2593  1.8986  1.3652
29021SOL     OW90850  10.294   5.615   1.472 -0.4889 -0.6498  0.2222
29021SOL    HW190851  10.229   5.547   1.455  0.5250 -1.7094  0.4439
29021SOL    HW290852  10.362   5.571   1.523  0.8664  0.1628 -0.8139
29022SOL     OW90853   7.580   7.469   3.945 -0.2498 -0.5106 -0.2559
29022SOL    HW190854   7.559   7.556   3.978 -0.7746 -0.6379 -0.2308
29022SOL    HW290855   7.644   7.483   3.876  0.9992 -0.2439  0.9162
29023SOL     OW90856  10.295   1.261   8.119  0.0898  0.2975 -0.5129
29023SOL    HW190857  10.255   1.347   8.130 -2.8376 -1.0282  0.2009
29023SOL    HW290858  10.236   1.214   8.061  1.1874 -1.5128 -0.2637
29024SOL     OW90859   4.273   9.893   1.403 -0.5622  0.0317  0.1566
29024SOL    HW190860   4.201   9.835   1.428 -1.1596  0.5076 -0.4360
29024SOL    HW290861   4.235   9.980   1.406 -0.0995  0.2578 -0.4817
29025SOL     OW90862   2.448   3.779   3.794 -0.4242  0.2729 -0.3652
29025SOL    HW190863   2.457   3.768   3.889 -0.1790 -3.2646 -0.6648
29025SOL    HW290864   2.531   3.817   3.766  0.4203 -0.7561  0.6277
29026SOL     OW90865   9.555   6.120   4.945 -0.2881  0.3110 -0.1394
29026SOL    HW190866   9.638   6.113   4.896 -0.8027  1.0949 -1.1707
29026SOL    HW290867   9.567   6.064   5.021  1.0393  0.0763 -0.4971
29027SOL     OW90868   2.996   4.453   1.727 -0.0117 -0.1834  0.2011
29027SOL    HW190869   3.073   4.506   1.752 -0.1751  0.2214 -0.1511
29027SOL    HW290870   2.931   4.517   1.698 -1.0960 -0.3801  2.0359
29028SOL     OW90871   4.015   3.403   8.535  0.8246 -0.2824  0.5026
29028SOL    HW190872   4.092   3.404   8.591  1.5473 -0.9241 -0.4372
29028SOL    HW290873   3.941   3.389   8.594  1.3865  0.5891  1.4447
29029SOL     OW90874   8.325   2.986   3.110  0.3682  0.1409  0.2199
29029SOL    HW190875   8.389   2.929   3.068 -0.5219  0.5004 -1.7095
29029SOL    HW290876   8.270   2.927   3.161  0.4631 -0.5372 -0.4454
29030SOL     OW90877   9.221   7.116   5.002  0.0659  0.2232  0.1901
29030SOL    HW190878   9.140   7.139   4.956  0.3658 -0.1592 -0.5576
29030SOL    HW290879   9.239   7.026   4.974  1.1722  0.5748 -0.3027
29031SOL     OW90880   2.252   8.224   4.326 -0.5005  0.2316 -0.7548
29031SOL    HW190881   2.327   8.269   4.288  1.4167 -1.3752  0.8419
29031SOL    HW290882   2.259   8.134   4.292 -0.5054 -0.4391  0.9098
29032SOL     OW90883   6.580   3.117   0.387 -0.3092 -0.1509  0.5918
29032SOL    HW190884   6.596   3.084   0.299  0.5353  1.4217  0.1136
29032SOL    HW290885   6.496   3.163   0.381  0.2835  0.9211  0.2956
29033SOL     OW90886   5.342   2.685   5.640  0.2685 -0.0776 -0.0724
29033SOL    HW190887   5.300   2.631   5.574  1.4989  1.0284 -1.8743
29033SOL    HW290888   5.347   2.772   5.600  1.5116  0.5215  1.2742
29034SOL     OW90889   5.733   3.539   0.211 -0.2291  0.4526  0.2418
29034SOL    HW190890   5.674   3.614   0.208 -0.4289  0.2725 -2.0327
29034SOL    HW290891   5.802   3.561   0.149  0.3266 -0.7508  0.4163
29035SOL     OW90892   9.163   4.279   9.702 -0.3757 -0.0648  0.1108
29035SOL    HW190893   9.141   4.357   9.753  0.1085  1.1082 -1.3663
29035SOL    HW290894   9.083   4.258   9.655 -0.3502 -0.0859  0.0759
29036SOL     OW90895   4.845   1.570   8.956  0.1683  0.7103  0.7407
29036SOL    HW190896   4.827   1.617   9.038 -0.8367  0.9122  0.4205
29036SOL    HW290897   4.760   1.565   8.913  0.6987  0.6419 -0.3136
29037SOL     OW90898  10.215   1.963   5.374 -0.2853  0.4392  0.0234
29037SOL    HW190899  10.181   1.984   5.461 -2.5405 -1.4389 -0.3352
29037SOL    HW290900  10.184   2.035   5.319 -1.7032 -0.0656  0.1506
29038SOL     OW90901   5.050   8.757   2.468 -0.5435  0.4311  0.2505
29038SOL    HW190902   5.006   8.793   2.545  1.0173  1.3099  0.7854
29038SOL    HW290903   5.105   8.686   2.502 -1.0008 -0.1911 -0.2929
29039SOL     OW90904   9.864   0.090   7.273  0.1268 -0.3304 -0.2081
29039SOL    HW190905   9.928   0.108   7.204  1.4974  0.9005  1.2966
29039SOL    HW290906   9.889   0.148   7.344 -2.4427 -0.1588  0.6275
29040SOL     OW90907   0.322   2.854   5.892  0.9961  0.4981 -0.2134
29040SOL    HW190908   0.274   2.832   5.811  0.4867 -0.9141  0.4342
29040SOL    HW290909   0.399   2.901   5.861  0.7551  0.0915 -1.5304
29041SOL     OW90910   1.581   8.853   8.471  0.2473 -0.1858 -0.1684
29041SOL    HW190911   1.530   8.904   8.533  1.4543  1.0776 -0.1751
29041SOL    HW290912   1.515   8.808   8.417 -0.8496  1.1283  0.0243
29042SOL     OW90913   8.541   1.928   9.984 -0.0814 -0.2273 -0.1207
29042SOL    HW190914   8.500   1.900   9.903 -1.0985 -0.2875  0.4068
29042SOL    HW290915   8.563   1.847  10.030  0.5628 -0.1950 -0.3508
29043SOL     OW90916   7.855   1.906   1.368  0.3653  0.2882  0.3404
29043SOL    HW190917   7.819   1.890   1.281  1.2603 -2.2023  0.3546
29043SOL    HW290918   7.946   1.874   1.362  0.4985  0.2572  2.1226
29044SOL     OW90919   3.538   1.285   5.437  0.4589 -0.6293 -0.6825
29044SOL    HW190920   3.496   1.256   5.356  0.0592 -0.0684 -0.6853
29044SOL    HW290921   3.611   1.339   5.408  0.0547 -0.0673 -0.6771
29045SOL     OW90922   8.819   6.329   9.149 -0.0020 -0.8299 -0.1089
29045SOL    HW190923   8.866   6.381   9.214 -1.2617  0.0962  0.1074
29045SOL    HW290924   8.778   6.258   9.199  0.1094 -0.8855 -0.0964
29046SOL     OW90925   6.215   1.350   9.636  0.2786  0.1238  0.2626
29046SOL    HW190926   6.274   1.385   9.702 -2.5898  2.0519  2.0359
29046SOL    HW290927   6.201   1.422   9.575 -0.6101 -0.1495  0.1298
29047SOL     OW90928   1.439   8.686   9.757  0.4560  0.1341 -0.1262
29047SOL    HW190929   1.493   8.685   9.678  1.0947  0.8657  0.2901
29047SOL    HW290930   1.471   8.611   9.808  0.2906 -0.1190 -0.3874
29048SOL     OW90931   4.464   4.651   6.338 -0.4474 -0.0050  0.1965
29048SOL    HW190932   4.447   4.570   6.386 -1.3938  0.9434  1.5218
29048SOL    HW290933   4.425   4.636   6.251  0.8186 -1.5400 -0.1595
29049SOL     OW90934   0.467   6.389   6.251 -0.0984  0.4951  0.2734
29049SOL    HW190935   0.387   6.434   6.224 -0.3235  0.3036  0.6291
29049SOL    HW290936   0.521   6.388   6.172 -0.5619  0.3711 -0.0460
29050SOL     OW90937   3.494   7.831   7.796  0.2009  0.8870  0.0350
29050SOL    HW190938   3.532   7.864   7.715 -1.4203 -0.6595 -1.4405
29050SOL    HW290939   3.568   7.826   7.857  1.6325  1.2811 -1.5909
29051SOL     OW90940   3.364   4.121   3.423 -0.4017  0.2495  0.2950
29051SOL    HW190941   3.438   4.061   3.435 -0.1516  0.6411  0.7327
29051SOL    HW290942   3.328   4.132   3.511 -1.1176 -0.1154  0.0465
29052SOL     OW90943   2.382   8.017   3.014 -0.2048  0.5701  0.0040
29052SOL    HW190944   2.371   8.046   2.923  0.2012  3.3336  0.7379
29052SOL    HW290945   2.303   8.045   3.058 -0.6987 -1.3639  0.4284
29053SOL     OW90946   7.561   2.279   6.564  0.5971 -0.4976 -0.8407
29053SOL    HW190947   7.645   2.237   6.583  0.8005  0.8623  1.5903
29053SOL    HW290948   7.525   2.228   6.491  1.5441 -3.8340  0.8421
29054SOL     OW90949   5.803   1.053   9.549 -0.6301 -0.2275 -0.0557
29054SOL    HW190950   5.813   1.088   9.638  0.7080 -2.6665  0.8780
29054SOL    HW290951   5.710   1.034   9.542 -0.8043  0.2622  0.7379
29055SOL     OW90952   4.634   5.022   3.743  0.1919  0.9785 -0.4510
29055SOL    HW190953   4.699   4.952   3.747 -1.4731 -0.6460 -0.7596
29055SOL    HW290954   4.662   5.084   3.811  1.7930  0.1304 -0.2814
29056SOL     OW90955  10.326   1.544   6.422 -0.0638  0.6093  0.0783
29056SOL    HW190956  10.312   1.505   6.336 -1.0519  0.8461  0.1181
29056SOL    HW290957  10.420   1.535   6.438  0.1855  0.8885 -1.1754
29057SOL     OW90958   0.551   9.414   6.005 -0.8225 -0.4172  0.0211
29057SOL    HW190959   0.479   9.352   6.015 -1.2867  0.1336  0.1872
29057SOL    HW290960   0.590   9.418   6.092 -0.8916 -0.3632  0.0499
29058SOL     OW90961   6.371   0.360   0.857  0.4768 -0.2502  0.2225
29058SOL    HW190962   6.378   0.294   0.788 -0.6003 -0.5599  0.3897
29058SOL    HW290963   6.314   0.428   0.821  0.0698 -0.3154  0.7170
29059SOL     OW90964   7.336   3.822   1.718 -0.2585 -0.0597 -0.1877
29059SOL    HW190965   7.397   3.768   1.768 -0.8773 -0.7807 -0.1947
29059SOL    HW290966   7.385   3.844   1.639  0.9305  1.5560  0.9389
29060SOL     OW90967   0.392   6.393   1.062  0.0215 -0.3596  0.7466
29060SOL    HW190968   0.351   6.476   1.084 -0.4361 -0.8716  1.9536
29060SOL    HW290969   0.404   6.395   0.967 -3.3372 -0.4163  0.2246
29061SOL     OW90970   2.886   0.655   3.650 -0.3293  0.5405 -0.4264
29061SOL    HW190971   2.876   0.573   3.699  0.5874  0.6751  0.0150
29061SOL    HW290972   2.797   0.689   3.643 -0.6556 -0.2062 -0.1145
29062SOL     OW90973   2.011   5.359   8.056 -0.2347  0.3190 -0.1728
29062SOL    HW190974   1.946   5.298   8.090  0.9323 -1.1956 -0.5096
29062SOL    HW290975   1.962   5.439   8.036 -1.5674 -0.0074  1.5950
29063SOL     OW90976   0.232   7.188   9.283 -0.3933 -0.3248 -0.1947
29063SOL    HW190977   0.203   7.256   9.343 -2.7036 -1.1453 -0.2678
29063SOL    HW290978   0.165   7.120   9.289  1.0948 -1.9922 -1.1491
29064SOL     OW90979   8.449   6.145   4.342  0.3184 -0.0213 -0.3447
29064SOL    HW190980   8.470   6.054   4.363  1.1611  0.3854  0.7348
29064SOL    HW290981   8.533   6.191   4.350 -0.3309  1.0701  0.4979
29065SOL     OW90982   6.106   0.656   0.451 -0.6238 -0.5967 -0.3789
29065SOL    HW190983   6.094   0.723   0.383 -1.9067 -1.7007 -1.2798
29065SOL    HW290984   6.148   0.703   0.523  0.5658  0.6636 -1.8219
29066SOL     OW90985  10.237   3.820   5.951 -0.0027  0.4905  0.2659
29066SOL    HW190986  10.157   3.805   5.901 -1.2141 -0.1250  2.2729
29066SOL    HW290987  10.288   3.879   5.896 -2.1120  1.4492 -0.8090
29067SOL     OW90988   3.765   1.337   2.845 -0.2203  0.2449  0.7186
29067SOL    HW190989   3.692   1.281   2.817 -0.6358  1.1905 -0.1747
29067SOL    HW290990   3.814   1.353   2.764  0.0445  0.9361  1.0154
29068SOL     OW90991   4.065   5.439   3.137 -0.3806  0.5094  0.5909
29068SOL    HW190992   4.045   5.503   3.069  1.9244  1.1684  0.4269
29068SOL    HW290993   4.061   5.490   3.219 -1.4430  0.1305  0.7871
29069SOL     OW90994   5.262   1.711   5.292  0.1601  0.2410  0.4400
29069SOL    HW190995   5.192   1.776   5.294 -0.7505 -0.7173  1.3155
29069SOL    HW290996   5.221   1.631   5.259  0.6038 -0.5555  1.7039
29070SOL     OW90997   5.920   8.059   8.959 -0.1951 -0.4647  0.6335
29070SOL    HW190998   5.842   8.023   8.917 -0.6550 -0.5145  1.4856
29070SOL    HW290999   5.970   7.982   8.987 -0.0720 -0.4354  0.4922
29071SOL     OW91000   8.419   2.239   3.515 -0.0184 -0.3771 -0.2688
29071SOL    HW191001   8.366   2.297   3.569 -1.4336  0.5856 -2.5556
29071SOL    HW291002   8.371   2.156   3.514 -0.4913 -0.1030 -0.7789
29072SOL     OW91003   5.203   2.822   9.299 -0.1703  0.2978  0.1910
29072SOL    HW191004   5.294   2.835   9.328 -0.7535  0.4061  2.1434
29072SOL    HW291005   5.211   2.788   9.210  1.7815  0.2938  0.3136
29073SOL     OW91006   9.096   1.742   2.960 -0.7489 -0.4141  0.0737
29073SOL    HW191007   9.006   1.719   2.937 -0.3126 -0.2499 -2.0086
29073SOL    HW291008   9.140   1.756   2.876  1.5052 -1.5446  0.9605
29074SOL     OW91009   5.961   7.665   2.079 -0.2016  0.8440 -0.1791
29074SOL    HW191010   5.990   7.661   2.170  1.3014  1.6875 -0.5836
29074SOL    HW291011   5.885   7.722   2.080 -0.8377  0.0021  0.6825
29075SOL     OW91012   5.049   4.311   6.552  0.1634 -0.2208  0.4823
29075SOL    HW191013   5.051   4.275   6.641  1.0768 -2.3788 -0.3622
29075SOL    HW291014   5.056   4.235   6.495  2.0483  1.2810 -1.4339
29076SOL     OW91015   5.770   8.650   2.392 -0.0738  0.1019  0.4622
29076SOL    HW191016   5.819   8.580   2.434  2.4011  1.2201 -0.3589
29076SOL    HW291017   5.745   8.614   2.307  0.1339 -0.1825  0.5209
29077SOL     OW91018   6.920   6.235  10.211  0.1509 -0.0727  0.1001
29077SOL    HW191019   6.891   6.281  10.290 -1.1116 -1.6096  0.5707
29077SOL    HW291020   6.856   6.260  10.144 -1.2180 -1.9066  0.6364
29078SOL     OW91021   6.064   1.605  10.025 -0.0407  0.3643 -0.2755
29078SOL    HW191022   6.118   1.532  10.056 -0.9902 -0.2420 -0.0209
29078SOL    HW291023   5.996   1.615  10.092 -0.8597  0.4419 -1.1019
29079SOL     OW91024   1.779   6.095   5.068 -0.4796  0.0503 -0.3936
29079SOL    HW191025   1.747   6.182   5.044 -2.7498 -1.1935 -2.4088
29079SOL    HW291026   1.793   6.051   4.984  1.7790 -1.1833  0.5491
29080SOL     OW91027   4.517   0.303   2.474 -0.2912  0.0425 -0.8225
29080SOL    HW191028   4.573   0.226   2.462 -0.5210 -0.1477 -0.6983
29080SOL    HW291029   4.511   0.314   2.569  0.8922  1.0727 -0.8495
29081SOL     OW91030   5.672   4.970   0.868 -0.2494  0.0760 -0.1212
29081SOL    HW191031   5.743   4.966   0.933  0.9430  1.4422 -1.2736
29081SOL    HW291032   5.702   4.916   0.795 -0.2598  0.8669 -0.7262
29082SOL     OW91033   3.570   6.303  10.135 -0.4291  0.1240 -0.1184
29082SOL    HW191034   3.653   6.266  10.164 -0.6502 -0.8980 -0.7104
29082SOL    HW291035   3.510   6.287  10.208 -0.7619 -1.6194 -0.7313
29083SOL     OW91036   8.292   9.456   1.508 -0.0458  0.4048 -0.1158
29083SOL    HW191037   8.212   9.499   1.538 -0.0353 -0.5819  1.4189
29083SOL    HW291038   8.318   9.399   1.581  1.2832 -0.3475 -1.1286
29084SOL     OW91039   4.802   1.639   3.268 -0.3037 -0.1395 -0.3365
29084SOL    HW191040   4.845   1.556   3.249 -0.4843 -0.4113  0.4106
29084SOL    HW291041   4.761   1.665   3.185  1.2002  0.0797 -1.0475
29085SOL     OW91042   9.953   9.684   2.084 -1.3028 -0.1840  0.2623
29085SOL    HW191043   9.895   9.628   2.032 -1.4237 -0.4241  0.6516
29085SOL    HW291044   9.969   9.760   2.028 -1.5252 -0.3833 -0.0791
29086SOL     OW91045   7.020   5.974   4.430  0.2023 -0.1393 -0.3100
29086SOL    HW191046   7.091   6.038   4.434 -0.4935  0.5618  2.2367
29086SOL    HW291047   7.062   5.891   4.456  0.3787 -0.0074 -0.1679
29087SOL     OW91048   9.410   7.749   3.353 -0.1707 -0.4937 -0.4285
29087SOL    HW191049   9.455   7.830   3.376  0.7482 -0.8056 -1.0785
29087SOL    HW291050   9.336   7.745   3.413 -1.2575  1.7136 -1.5043
29088SOL     OW91051   8.566   0.175   8.759 -0.2395 -0.1988  0.4664
29088SOL    HW191052   8.609   0.164   8.843 -1.6773 -0.1692  1.2361
29088SOL    HW291053   8.478   0.138   8.771 -0.8489  0.7854 -0.6760
29089SOL     OW91054   8.679   4.265   3.115  0.5939 -0.4882  0.0163
29089SOL    HW191055   8.585   4.255   3.101  0.6104 -0.0673 -0.4016
29089SOL    HW291056   8.687   4.281   3.210  0.3731 -1.9109  0.2962
29090SOL     OW91057   0.275   6.609   2.878  0.1042  0.2038 -0.5360
29090SOL    HW191058   0.239   6.625   2.965 -0.5121  0.0017 -0.7510
29090SOL    HW291059   0.202   6.572   2.828  0.3974  0.5057 -1.1971
29091SOL     OW91060   1.606   0.933   9.881  0.0231  0.2554  0.5308
29091SOL    HW191061   1.571   0.852   9.845 -1.0076  0.8386  0.1674
29091SOL    HW291062   1.690   0.946   9.836  0.0917 -0.4879  0.4387
29092SOL     OW91063   2.398  10.157   0.676  0.1417  0.5986 -0.1718
29092SOL    HW191064   2.469  10.211   0.641 -1.3493  1.6413 -1.7423
29092SOL    HW291065   2.318  10.202   0.649 -1.2166 -2.4116 -1.6264
29093SOL     OW91066   7.878   3.249   8.705  0.3972  0.2651 -0.2380
29093SOL    HW191067   7.943   3.272   8.771 -0.7814  1.4604  0.5511
29093SOL    HW291068   7.918   3.274   8.622  1.9974 -1.4817 -0.0390
29094SOL     OW91069   0.245   8.751   4.420  0.5679 -0.4056 -0.0821
29094SOL    HW191070   0.273   8.787   4.504  0.5837 -2.1373  0.6987
29094SOL    HW291071   0.297   8.671   4.410 -1.9778 -2.2116  0.0735
29095SOL     OW91072   5.065   4.111   9.104 -0.1316  0.5073  0.6313
29095SOL    HW191073   5.015   4.192   9.093 -1.4399 -0.3499  0.0113
29095SOL    HW291074   5.002   4.041   9.088  1.0947 -0.6397  0.5885
29096SOL     OW91075   2.085   5.893   8.701 -0.1352 -0.7277  0.1192
29096SOL    HW191076   2.165   5.873   8.750  1.2547  0.6057 -1.4848
29096SOL    HW291077   2.047   5.808   8.681  2.2285 -1.5838 -1.1893
29097SOL     OW91078   0.428   9.448   8.113  0.3952 -0.4101 -0.2091
29097SOL    HW191079   0.399   9.533   8.147 -1.0353 -0.8783 -0.1645
29097SOL    HW291080   0.357   9.422   8.054  2.2066 -0.2056 -2.6076
29098SOL     OW91081   6.516   6.259  10.309 -0.2869 -0.0898  0.4141
29098SOL    HW191082   6.578   6.200  10.352  2.4704  2.4564  0.2940
29098SOL    HW291083   6.513   6.230  10.218  0.4672 -0.4918  0.5149
29099SOL     OW91084  10.258   6.800   1.480 -0.4363 -0.3446  0.2504
29099SOL    HW191085  10.284   6.721   1.433 -0.3717  1.0297 -2.2229
29099SOL    HW291086  10.167   6.814   1.453 -0.6959  0.0184  1.2828
29100SOL     OW91087   1.973   7.890   8.411  0.2966  0.1868  0.3978
29100SOL    HW191088   1.906   7.846   8.358  1.0990 -0.9352  0.2885
29100SOL    HW291089   1.959   7.857   8.500  1.4882 -1.0530  0.1524
29101SOL     OW91090   8.871   3.435   9.523 -0.3486  0.1555  0.5885
29101SOL    HW191091   8.850   3.491   9.597 -0.1422  0.3462  0.5023
29101SOL    HW291092   8.804   3.366   9.526 -0.9416  0.7066  0.3647
29102SOL     OW91093   9.366   3.227   7.165  0.0822 -0.8940 -0.2799
29102SOL    HW191094   9.453   3.191   7.182 -0.3949 -1.6986  0.4986
29102SOL    HW291095   9.307   3.152   7.167 -1.2231  0.0072  3.3073
29103SOL     OW91096   9.993   4.574   2.184  0.5164  0.0733 -0.4168
29103SOL    HW191097   9.997   4.504   2.119 -0.8225 -1.2944  0.8910
29103SOL    HW291098  10.076   4.568   2.231  1.3940  0.9213 -1.7897
29104SOL     OW91099   4.462   9.275   2.670 -0.4911  0.7562 -0.0009
29104SOL    HW191100   4.437   9.367   2.682 -0.0311  1.1063 -1.4510
29104SOL    HW291101   4.531   9.278   2.603  0.0631 -0.5921  0.4780
29105SOL     OW91102   0.073   0.135   1.391 -0.5098  0.3023  0.0156
29105SOL    HW191103   0.163   0.159   1.367 -0.3138 -0.0090  0.4337
29105SOL    HW291104   0.021   0.158   1.314  0.0078 -0.0031 -0.4329
29106SOL     OW91105   6.862   1.193   7.946  0.0713 -0.3694  0.7265
29106SOL    HW191106   6.802   1.125   7.915  1.3966 -1.4317  0.4440
29106SOL    HW291107   6.865   1.256   7.874 -0.5128 -0.4165  0.6517
29107SOL     OW91108   8.271   9.223   4.190  0.0387  0.6418 -0.8694
29107SOL    HW191109   8.300   9.220   4.098  0.8325 -1.7002 -0.6131
29107SOL    HW291110   8.207   9.153   4.197 -0.4659  1.1952  0.2499
29108SOL     OW91111   0.636   7.114   4.327  0.0600 -0.4539 -0.3933
29108SOL    HW191112   0.710   7.096   4.269  0.4738 -0.5884  0.1709
29108SOL    HW291113   0.632   7.210   4.331 -0.1336 -0.4396 -0.8458
29109SOL     OW91114   8.238   9.278   6.264 -0.0139 -0.0117  0.1832
29109SOL    HW191115   8.307   9.240   6.209 -0.7019  0.3087 -0.9461
29109SOL    HW291116   8.193   9.339   6.206 -0.3921  0.7997  1.3028
29110SOL     OW91117   8.343   1.659   4.534 -0.4068 -0.4932  0.4441
29110SOL    HW191118   8.397   1.686   4.460  0.3471  1.2406  1.5671
29110SOL    HW291119   8.316   1.741   4.575 -3.2507 -1.3119  0.4399
29111SOL     OW91120   6.623   7.528   8.666 -0.6281  0.2047  0.8649
29111SOL    HW191121   6.578   7.549   8.748  1.5065  0.3290  2.0881
29111SOL    HW291122   6.664   7.443   8.682 -1.8634 -0.7669 -0.8570
29112SOL     OW91123   3.317   5.597   3.751  0.0115 -0.0177 -0.7789
29112SOL    HW191124   3.277   5.553   3.826 -0.4947  0.8260 -0.5480
29112SOL    HW291125   3.260   5.671   3.733  1.0572  0.7716 -0.9320
29113SOL     OW91126   0.203   2.684   3.109 -0.0644 -0.2092  0.6969
29113SOL    HW191127   0.244   2.699   3.024 -2.0723 -0.6811 -0.4128
29113SOL    HW291128   0.222   2.592   3.129  1.2805  0.1745  1.2928
29114SOL     OW91129   4.887   7.644   0.636  0.0050  0.3720 -0.2835
29114SOL    HW191130   4.807   7.684   0.602  1.1262  1.7880 -1.3840
29114SOL    HW291131   4.956   7.673   0.576  1.4642 -0.2107  1.0328
29115SOL     OW91132   2.352   9.867   5.530  0.1615 -0.5511 -0.2071
29115SOL    HW191133   2.399   9.874   5.613  0.0329 -0.9951 -0.0944
29115SOL    HW291134   2.314   9.779   5.531 -2.5883  0.5592  0.7325
29116SOL     OW91135   2.697   8.994   4.648  0.0261  0.3839 -0.5571
29116SOL    HW191136   2.701   9.041   4.565 -0.8230 -0.3386 -1.0267
29116SOL    HW291137   2.604   8.973   4.659  0.0894  0.6754  0.6965
29117SOL     OW91138   8.778  10.360   7.952  0.2360 -0.2909 -0.1911
29117SOL    HW191139   8.712  10.345   8.019 -0.3020 -1.0613 -0.8693
29117SOL    HW291140   8.734  10.340   7.870  0.0233  3.1657 -1.1009
29118SOL     OW91141   5.318  10.113   8.358  0.5239 -0.4979  0.2010
29118SOL    HW191142   5.409  10.085   8.353  1.7754  2.1503  3.8710
29118SOL    HW291143   5.317  10.200   8.320 -0.6612 -0.7003 -0.2967
29119SOL     OW91144   8.147   2.333   9.626 -0.0157  0.5671  0.8884
29119SOL    HW191145   8.216   2.278   9.590  0.8101  1.7409  0.6091
29119SOL    HW291146   8.192   2.414   9.651 -1.2882  1.3840  0.6272
29120SOL     OW91147   2.707   2.953   3.537  0.7209  0.4623 -0.2725
29120SOL    HW191148   2.788   2.965   3.588  1.0662  0.1575 -0.7495
29120SOL    HW291149   2.717   2.868   3.495 -0.5380 -0.3209  0.9057
29121SOL     OW91150  10.321   4.183   3.689  0.4498  0.2073  0.5373
29121SOL    HW191151  10.295   4.097   3.724  2.8730 -1.1149 -0.6620
29121SOL    HW291152  10.245   4.212   3.638 -0.1732 -1.5602  0.3871
29122SOL     OW91153   1.102   0.801   0.208  0.2452 -0.4444  1.1278
29122SOL    HW191154   1.055   0.863   0.263 -0.6236 -0.6009  0.5746
29122SOL    HW291155   1.185   0.844   0.188 -0.0562  0.2377  1.3356
29123SOL     OW91156   1.896   8.220   1.518  0.0529 -0.0641 -0.1258
29123SOL    HW191157   1.855   8.147   1.473  1.9863  0.9880 -3.9594
29123SOL    HW291158   1.842   8.296   1.496  0.4036  0.3116  0.2812
29124SOL     OW91159   5.175   3.403   7.173  0.1541  0.5308 -0.3158
29124SOL    HW191160   5.083   3.389   7.154 -0.2373  1.1866  0.9464
29124SOL    HW291161   5.221   3.381   7.092 -1.0382 -0.5328 -0.7213
29125SOL     OW91162   7.246   9.252   8.593  0.6570  0.2212  0.3451
29125SOL    HW191163   7.186   9.230   8.664 -0.1501 -0.0289 -0.3977
29125SOL    HW291164   7.324   9.200   8.610 -0.2901 -1.3996 -0.0392
29126SOL     OW91165   4.176   0.339   9.481 -0.2780  0.6623  0.0371
29126SOL    HW191166   4.108   0.357   9.416 -0.6739 -0.3302  0.1515
29126SOL    HW291167   4.237   0.412   9.472 -0.2200  0.4669 -1.5761
29127SOL     OW91168   4.550   0.952   8.546 -0.0041  0.1901  0.0324
29127SOL    HW191169   4.495   0.902   8.607  0.7936 -0.0642  0.5622
29127SOL    HW291170   4.506   1.037   8.539 -1.4794 -0.6306 -1.0304
29128SOL     OW91171   2.161  10.251   4.639 -0.7660  0.1088 -0.0194
29128SOL    HW191172   2.160  10.330   4.585  0.1665 -0.8179 -1.4725
29128SOL    HW291173   2.245  10.254   4.685 -0.8154  0.0493  0.0764
29129SOL     OW91174   1.782   7.374   5.529 -0.5538 -0.1786 -0.0479
29129SOL    HW191175   1.744   7.438   5.469 -1.4858 -0.3066  0.3919
29129SOL    HW291176   1.854   7.421   5.572 -1.2148  0.5770  0.2567
29130SOL     OW91177   8.734   5.046   0.913 -0.1543  0.1225 -0.1517
29130SOL    HW191178   8.653   5.067   0.958  0.1910  0.3882  0.3582
29130SOL    HW291179   8.770   4.971   0.961 -0.0942  0.0073 -0.3726
29131SOL     OW91180   9.261   8.047   7.100  0.0963 -0.2987 -0.1566
29131SOL    HW191181   9.193   8.112   7.080  1.6718  1.0346 -1.5372
29131SOL    HW291182   9.213   7.965   7.109 -1.8650  0.8502  0.6092
29132SOL     OW91183   1.880   7.961   4.127 -0.4983  0.0118 -0.6905
29132SOL    HW191184   1.811   7.985   4.065 -0.6565  1.5905  0.0523
29132SOL    HW291185   1.949   8.025   4.113  0.5305 -1.1008 -0.9000
29133SOL     OW91186   2.676   1.220   8.962  0.3546  1.2646 -0.0480
29133SOL    HW191187   2.587   1.218   8.998 -0.0441  2.0542 -0.9699
29133SOL    HW291188   2.695   1.313   8.950  0.4117  1.0309 -2.0323
29134SOL     OW91189   8.133   5.414  10.355 -0.5634  1.0870  0.2633
29134SOL    HW191190   8.198   5.481  10.376  1.9005 -0.6375 -1.2454
29134SOL    HW291191   8.105   5.381  10.440  0.7182  1.7721  0.9862
29135SOL     OW91192   0.491   1.581   4.972  0.0351 -0.6163  0.1483
29135SOL    HW191193   0.465   1.646   4.907 -0.5235  0.1459  1.1155
29135SOL    HW291194   0.420   1.517   4.972  0.9164 -1.6960 -1.3297
29136SOL     OW91195   9.373   7.692   6.686  0.5220 -0.4613  0.2246
29136SOL    HW191196   9.342   7.628   6.623  0.0742  0.6170 -0.6760
29136SOL    HW291197   9.440   7.646   6.737  0.7662 -1.3996 -0.9270
29137SOL     OW91198   8.037   3.794   7.625 -0.1036  0.2053 -0.2703
29137SOL    HW191199   8.041   3.854   7.551  0.4306  0.1824 -0.2618
29137SOL    HW291200   8.128   3.782   7.651 -0.2987  0.4035  0.5383
29138SOL     OW91201   6.108   2.998   3.042 -0.0317  0.9167 -0.0271
29138SOL    HW191202   6.086   2.942   2.968  2.9002 -0.7080  0.1925
29138SOL    HW291203   6.045   2.974   3.110  0.5691 -1.5459 -0.2495
29139SOL     OW91204  10.198  10.042   5.064  0.4913 -0.2453  0.1942
29139SOL    HW191205  10.135  10.102   5.026 -1.6746 -2.0611  0.7069
29139SOL    HW291206  10.278  10.056   5.014  0.0235  2.7873  0.1140
29140SOL     OW91207   1.051   6.610   7.899  0.2040  0.3476  0.1105
29140SOL    HW191208   1.066   6.658   7.980 -0.4084  0.4205  0.1869
29140SOL    HW291209   1.040   6.519   7.927 -2.2831  0.6656  0.4000
29141SOL     OW91210   9.853   6.869   4.267  0.1285 -0.1764 -0.6094
29141SOL    HW191211   9.837   6.827   4.183 -1.7649 -1.5828  0.3807
29141SOL    HW291212   9.781   6.932   4.276 -2.5787 -3.3133  1.8917
29142SOL     OW91213  10.282   4.869   4.173 -0.5219  0.2834  0.4395
29142SOL    HW191214  10.255   4.944   4.121 -2.6056  0.3862  1.5524
29142SOL    HW291215  10.347   4.824   4.119  0.9101  2.9186 -0.2090
29143SOL     OW91216   0.578   9.116   7.676  0.1383 -0.5094 -0.5367
29143SOL    HW191217   0.533   9.046   7.627 -0.3718 -1.7549  1.5543
29143SOL    HW291218   0.651   9.072   7.718 -1.4721 -0.4413  2.6600
29144SOL     OW91219   9.661   8.039   3.511  0.0497 -0.2827 -0.0801
29144SOL    HW191220   9.728   8.106   3.526 -0.2309 -0.0436  0.1127
29144SOL    HW291221   9.592   8.059   3.574  0.3122 -1.2284  0.5274
29145SOL     OW91222   0.317   2.227   4.679 -0.4213 -0.3291  0.2540
29145SOL    HW191223   0.343   2.247   4.769 -0.4938  0.9650 -0.0038
29145SOL    HW291224   0.395   2.245   4.626 -0.9861  0.8829 -0.1840
29146SOL     OW91225   2.803   6.192   7.568 -0.0426 -0.2942  0.2299
29146SOL    HW191226   2.708   6.184   7.568  0.0478 -1.8637 -0.0052
29146SOL    HW291227   2.834   6.101   7.567  1.4244  0.1245 -2.1091
29147SOL     OW91228   3.048   9.310   4.718  0.0234  0.4599  0.0036
29147SOL    HW191229   2.967   9.361   4.724  0.1379  0.5616  0.7274
29147SOL    HW291230   3.042   9.267   4.632 -1.7764 -1.1536  0.8560
29148SOL     OW91231   1.776   6.618   0.672  0.1969  0.2566 -0.0351
29148SOL    HW191232   1.738   6.635   0.759 -2.5596 -1.1238 -0.8447
29148SOL    HW291233   1.802   6.705   0.640 -1.5033  1.2155  1.0175
29149SOL     OW91234   9.553   8.280   5.247 -0.3136 -0.7181 -0.8663
29149SOL    HW191235   9.609   8.209   5.216 -0.5393 -1.1224 -0.3555
29149SOL    HW291236   9.548   8.340   5.172 -0.0009 -1.1616 -1.2526
29150SOL     OW91237   9.754   5.861   8.312 -0.2022  0.0047 -0.5228
29150SOL    HW191238   9.668   5.847   8.270  0.4467 -1.8691 -1.3513
29150SOL    HW291239   9.817   5.831   8.247  1.0513  0.3901  0.4767
29151SOL     OW91240   5.882   2.489   8.149 -0.2770  0.1239  0.2265
29151SOL    HW191241   5.874   2.400   8.185 -0.6446  0.1191  0.1429
29151SOL    HW291242   5.793   2.510   8.120 -0.1566  0.4595  0.1032
29152SOL     OW91243   1.797   2.200   7.136 -0.6895  0.1635  0.1477
29152SOL    HW191244   1.885   2.173   7.112 -1.3983 -0.8376 -1.5515
29152SOL    HW291245   1.741   2.162   7.068 -2.5842 -0.4063  1.9191
29153SOL     OW91246   9.666   9.180   9.211  0.3180 -0.4350  0.0840
29153SOL    HW191247   9.697   9.225   9.132 -0.2675 -1.4193 -0.7319
29153SOL    HW291248   9.708   9.094   9.208  0.3860 -0.4360  0.9179
29154SOL     OW91249   1.284   1.925   3.637 -0.1317 -0.0579  0.1252
29154SOL    HW191250   1.306   1.963   3.722  1.8050  1.3872 -0.9270
29154SOL    HW291251   1.272   1.832   3.654 -1.2603  0.3909  2.1871
29155SOL     OW91252   6.978   3.948   5.005 -0.2134  0.0232 -0.5116
29155SOL    HW191253   7.029   3.892   5.065  0.4042 -0.5864 -1.5696
29155SOL    HW291254   6.962   4.028   5.055  0.9255 -0.1728  0.2155
29156SOL     OW91255   3.343   8.521   6.981 -0.0177 -0.0026 -0.2625
29156SOL    HW191256   3.368   8.436   6.946 -3.0762 -0.7940 -0.7977
29156SOL    HW291257   3.379   8.522   7.070  1.1804 -1.2615 -0.6949
29157SOL     OW91258   8.673   4.112   0.159  0.1756  0.6604  0.0073
29157SOL    HW191259   8.719   4.039   0.119  0.4356  1.5810 -1.4331
29157SOL    HW291260   8.720   4.190   0.129 -0.1944  1.4550  1.3562
29158SOL     OW91261   7.520   8.518   9.170  0.1085  0.2656  0.0297
29158SOL    HW191262   7.526   8.446   9.232 -0.9795  0.0058 -0.1445
29158SOL    HW291263   7.594   8.575   9.192 -0.5373  0.4558  1.9001
29159SOL     OW91264   8.272   4.811   1.688 -0.8376 -0.1440 -0.4532
29159SOL    HW191265   8.238   4.780   1.604  0.7287 -1.2444 -0.7196
29159SOL    HW291266   8.261   4.737   1.747  2.7970 -1.3386 -1.0502
29160SOL     OW91267   8.939   7.966   4.965  0.3236 -0.6838  0.8188
29160SOL    HW191268   8.971   7.958   5.055  0.2399 -0.3236  0.8828
29160SOL    HW291269   8.895   8.051   4.963 -0.8952 -1.2919  0.8269
29161SOL     OW91270   9.184   8.519   0.167  0.3223  0.1703 -0.4961
29161SOL    HW191271   9.204   8.588   0.229  0.9933 -0.5323  0.0924
29161SOL    HW291272   9.174   8.440   0.220 -0.8560 -0.1238 -1.1051
29162SOL     OW91273   6.722   6.058   2.326  0.1790 -0.1264 -0.0905
29162SOL    HW191274   6.757   6.137   2.286  0.8212 -1.1012 -1.5087
29162SOL    HW291275   6.718   5.994   2.255  0.1989 -1.5427  1.1332
29163SOL     OW91276   2.995   4.163   6.117 -0.1320  0.4953 -0.2493
29163SOL    HW191277   3.012   4.069   6.114  0.3283  0.5652  0.0753
29163SOL    HW291278   2.992   4.184   6.210 -1.3169  0.6198 -0.2935
29164SOL     OW91279   5.011   4.329   0.855  0.2494 -0.2885 -0.0739
29164SOL    HW191280   5.073   4.378   0.801  0.8557 -2.2169 -1.2630
29164SOL    HW291281   4.941   4.306   0.794  0.5205 -1.7719  0.1370
29165SOL     OW91282   2.559   0.821   9.680 -0.1584  0.2099 -0.0303
29165SOL    HW191283   2.601   0.907   9.680  1.0335 -0.3519  0.7692
29165SOL    HW291284   2.626   0.761   9.714 -2.2221 -0.3976  3.4460
29166SOL     OW91285   6.196   9.684   0.062  0.3877  0.1571 -0.9136
29166SOL    HW191286   6.255   9.708   0.133 -1.4939  0.6818  0.5434
29166SOL    HW291287   6.120   9.741   0.072 -2.4678 -3.4511  0.1941
29167SOL     OW91288   8.330   3.099   1.330  0.5144  0.8937 -0.0194
29167SOL    HW191289   8.313   3.008   1.356  1.2814 -0.0477 -2.4979
29167SOL    HW291290   8.282   3.151   1.394  1.6733 -1.1453  2.7543
29168SOL     OW91291   0.802   6.747   6.412  0.0182 -0.3153  0.1803
29168SOL    HW191292   0.822   6.670   6.465 -1.3928 -1.3230 -0.6814
29168SOL    HW291293   0.730   6.790   6.459 -0.5774 -0.6776 -0.3767
29169SOL     OW91294   1.047   5.585   4.773 -0.4788  0.0322  0.5472
29169SOL    HW191295   1.087   5.640   4.840  1.0252 -0.4773  0.1242
29169SOL    HW291296   1.018   5.506   4.820 -0.9985  0.4102  0.8642
29170SOL     OW91297   8.778   5.428   0.519  0.1695 -0.0958 -0.3564
29170SOL    HW191298   8.846   5.458   0.459  0.3379 -1.2026 -0.7422
29170SOL    HW291299   8.805   5.339   0.544 -0.3364  0.0262  0.7020
29171SOL     OW91300  10.340   0.245   5.562  0.0093 -0.3980 -0.3164
29171SOL    HW191301  10.250   0.230   5.533 -0.3512 -2.0859  1.4899
29171SOL    HW291302  10.384   0.283   5.486 -1.8999 -0.7021 -1.6309
29172SOL     OW91303   1.954   6.258   5.957 -0.0276 -0.1742  0.4797
29172SOL    HW191304   1.895   6.187   5.930 -1.3840  0.8243  0.6970
29172SOL    HW291305   1.916   6.290   6.039  0.8123  0.5185  0.6044
29173SOL     OW91306   6.974   5.075   9.724 -0.3525  0.0792 -0.0984
29173SOL    HW191307   6.891   5.120   9.742 -1.4217 -1.2224 -1.5103
29173SOL    HW291308   7.027   5.141   9.679 -1.4715  0.3206 -1.1388
29174SOL     OW91309   5.118   9.398   9.720  0.7289 -0.3287 -0.7805
29174SOL    HW191310   5.103   9.322   9.776  1.4844 -0.9675 -1.4080
29174SOL    HW291311   5.173   9.456   9.772  0.1679 -0.2170 -0.3066
29175SOL     OW91312   5.892   2.674   6.241 -0.4300  0.2419  0.2626
29175SOL    HW191313   5.876   2.659   6.334  1.5842  0.7677  0.7355
29175SOL    HW291314   5.972   2.626   6.222 -0.7100  0.2982 -1.1735
29176SOL     OW91315   5.408   1.659   2.901  0.5592  0.5405  0.2283
29176SOL    HW191316   5.358   1.670   2.820  0.3250 -3.7335 -0.4391
29176SOL    HW291317   5.499   1.670   2.874  0.4704 -0.6367 -0.6102
29177SOL     OW91318   1.370   8.954   1.071  0.2135  0.4337  0.3770
29177SOL    HW191319   1.308   8.979   1.140  0.1352 -0.1951  0.5371
29177SOL    HW291320   1.436   9.024   1.072  0.6931 -0.0160  1.6796
29178SOL     OW91321   4.945   2.402   2.862  0.0492  0.5610 -0.4609
29178SOL    HW191322   4.945   2.318   2.816 -0.5784  0.2857  0.0145
29178SOL    HW291323   4.867   2.397   2.919 -0.2115  1.6153 -0.7137
29179SOL     OW91324   1.693   5.834   4.212 -0.2611  0.2105 -0.7839
29179SOL    HW191325   1.671   5.820   4.120 -0.6487  1.7851 -0.9548
29179SOL    HW291326   1.704   5.746   4.247 -0.0109 -0.4159 -2.3529
29180SOL     OW91327   7.433   8.150   6.930 -0.4775 -0.0951 -0.1391
29180SOL    HW191328   7.494   8.202   6.982  0.0434  1.3347 -2.0480
29180SOL    HW291329   7.354   8.203   6.926 -0.9501 -0.7592  0.1905
29181SOL     OW91330   9.951   7.180   9.351  0.2832  0.1381  0.0879
29181SOL    HW191331   9.951   7.244   9.279 -1.8464  1.8993  1.5095
29181SOL    HW291332  10.030   7.201   9.401  0.8427  0.0661 -0.7405
29182SOL     OW91333   1.878   1.952   2.461  0.2782  0.0793 -0.2053
29182SOL    HW191334   1.912   1.895   2.392 -0.3687 -0.6767  0.0930
29182SOL    HW291335   1.954   1.971   2.516  0.6956  0.2930 -0.8569
29183SOL     OW91336   4.285   0.485   7.720 -0.5719  0.8659  0.3424
29183SOL    HW191337   4.243   0.406   7.684  0.1320  0.4727  0.3671
29183SOL    HW291338   4.364   0.453   7.762 -0.4118  1.5620  0.5815
29184SOL     OW91339   7.808   0.018   3.140 -0.2569 -0.0635 -0.1525
29184SOL    HW191340   7.743   0.087   3.155  0.7899  0.9003  0.1327
29184SOL    HW291341   7.892   0.062   3.155  0.4070 -1.6945  1.2262
29185SOL     OW91342   3.372   3.134   1.734  0.7048  0.2710  0.4928
29185SOL    HW191343   3.441   3.072   1.758 -0.3753 -0.8698  0.7492
29185SOL    HW291344   3.416   3.219   1.734  2.1845 -0.4504  0.3216
29186SOL     OW91345   2.558   6.734   0.807 -0.0468 -0.0062 -0.0001
29186SOL    HW191346   2.467   6.712   0.829  0.0330  0.3744  0.7278
29186SOL    HW291347   2.586   6.793   0.876  0.8569 -0.3397 -0.0663
29187SOL     OW91348   3.088   4.273   9.020 -0.1095  0.3938  0.0346
29187SOL    HW191349   3.164   4.227   8.985 -0.9816  0.1537 -1.6811
29187SOL    HW291350   3.111   4.292   9.111  1.2948 -1.1692  0.0609
29188SOL     OW91351   8.090   2.074   0.994 -0.9964  0.5531 -0.4219
29188SOL    HW191352   8.053   2.036   1.074 -0.4250  1.2933  0.2022
29188SOL    HW291353   8.066   2.166   0.998 -1.9538  0.3892 -1.6935
29189SOL     OW91354   0.170   0.893   4.591 -0.0708 -0.5188  0.2370
29189SOL    HW191355   0.158   0.986   4.572  0.6099 -0.3593  0.5364
29189SOL    HW291356   0.257   0.888   4.633 -0.8674 -1.0455  1.9228
29190SOL     OW91357   8.096   8.264   3.077  0.2357  0.3248 -0.1881
29190SOL    HW191358   8.172   8.315   3.047  0.2480 -0.7518 -2.2241
29190SOL    HW291359   8.024   8.326   3.078  0.7119  0.8883 -0.4042
29191SOL     OW91360   2.639   0.749   1.493  0.4940  0.2974 -0.5565
29191SOL    HW191361   2.725   0.760   1.533  0.4873 -0.5281 -0.3014
29191SOL    HW291362   2.582   0.720   1.564  0.2186 -0.0634 -0.9188
29192SOL     OW91363   9.409   6.603   5.773 -0.4880 -0.2303  0.4442
29192SOL    HW191364   9.501   6.627   5.788  0.0738 -2.1270  0.3569
29192SOL    HW291365   9.406   6.582   5.679 -1.5943  1.9725 -0.0766
29193SOL     OW91366   1.954   2.819   0.782  0.2239  0.1220 -0.3366
29193SOL    HW191367   1.915   2.783   0.861 -0.0955 -0.8884 -0.9321
29193SOL    HW291368   2.000   2.898   0.811 -1.5872  0.9213  0.5135
29194SOL     OW91369   6.221   1.302   0.796  0.4724 -0.5498 -0.5575
29194SOL    HW191370   6.180   1.216   0.802  0.6156 -0.5166  2.0316
29194SOL    HW291371   6.303   1.287   0.749  0.0080 -1.6141 -1.0630
29195SOL     OW91372   6.450   4.626   3.100 -0.7199 -0.2588 -0.2027
29195SOL    HW191373   6.422   4.682   3.027 -0.4210 -0.4677 -0.4809
29195SOL    HW291374   6.369   4.589   3.134 -0.9333  0.4475  0.0669
29196SOL     OW91375   7.349   2.389   5.006  0.1231 -0.0246  0.4522
29196SOL    HW191376   7.308   2.465   5.046  0.4394  0.8436 -0.7958
29196SOL    HW291377   7.429   2.424   4.966  1.4530 -1.4267  1.7249
29197SOL     OW91378   6.698   1.182   0.423 -0.2074 -0.0057  0.3582
29197SOL    HW191379   6.648   1.143   0.495 -0.6793 -0.2856 -0.1097
29197SOL    HW291380   6.787   1.190   0.456  0.5328 -3.7927 -0.3507
29198SOL     OW91381   1.137   1.434   4.413  0.1686  0.1268 -0.5117
29198SOL    HW191382   1.149   1.377   4.490 -0.9202 -1.7502 -1.6516
29198SOL    HW291383   1.139   1.523   4.449  0.0357 -0.6711  1.6388
29199SOL     OW91384   5.843   1.827   0.508  0.5605 -0.0720  0.3989
29199SOL    HW191385   5.871   1.784   0.428  2.4870  0.5887  0.6760
29199SOL    HW291386   5.890   1.910   0.510 -0.2507  0.4021  1.7053
29200SOL     OW91387   1.955   8.021   7.000  0.1863  0.0512  0.4666
29200SOL    HW191388   2.015   8.038   7.072  0.2576 -0.4833  0.5360
29200SOL    HW291389   1.920   7.933   7.018  0.7560 -0.3936 -0.5331
29201SOL     OW91390   7.223   2.422   6.836  0.1100  0.3922 -0.3891
29201SOL    HW191391   7.292   2.449   6.775 -0.0301 -1.2552 -1.3346
29201SOL    HW291392   7.230   2.326   6.838 -0.9360  0.3220  0.9687
29202SOL     OW91393   5.425   7.093   6.093  0.4300 -0.7552 -0.0004
29202SOL    HW191394   5.411   7.056   6.006 -1.9182  0.9055 -0.4193
29202SOL    HW291395   5.424   7.188   6.079 -1.7179 -0.3861  2.0156
29203SOL     OW91396   3.285   0.933   0.940  0.4686  0.1132 -0.0931
29203SOL    HW191397   3.217   1.001   0.951  2.5831  2.2158  0.8330
29203SOL    HW291398   3.358   0.980   0.900  2.5145 -1.3006  1.7987
29204SOL     OW91399   8.241   0.537   2.847 -0.2183 -0.0280  0.1561
29204SOL    HW191400   8.231   0.613   2.790  0.4167  0.0997  0.2188
29204SOL    HW291401   8.269   0.467   2.787  1.9451  0.4720  0.5318
29205SOL     OW91402   3.368   2.718   7.664  0.2796  0.0564  0.0303
29205SOL    HW191403   3.359   2.651   7.596 -0.9670  0.6594 -0.4426
29205SOL    HW291404   3.362   2.669   7.746  2.4952 -0.7696 -0.2281
29206SOL     OW91405   7.929   1.702   5.774  0.0925  0.0399 -0.4528
29206SOL    HW191406   7.967   1.652   5.702 -0.5022 -0.1503 -0.6372
29206SOL    HW291407   7.920   1.638   5.845  1.6257  0.4476  0.1586
29207SOL     OW91408   9.990   9.527   0.078 -0.1861 -0.3784 -0.4706
29207SOL    HW191409   9.904   9.555   0.049 -0.3571 -0.2132  0.1738
29207SOL    HW291410   9.973   9.459   0.143  0.0989  0.7679  0.8552
29208SOL     OW91411   0.757   3.787   4.500 -0.3329  0.2459  0.0029
29208SOL    HW191412   0.787   3.700   4.474  0.7907  0.4463  0.5825
29208SOL    HW291413   0.835   3.830   4.535 -1.4549  0.4056  2.5781
29209SOL     OW91414   9.991   9.307   6.570  0.5800 -0.2697  0.0607
29209SOL    HW191415   9.929   9.235   6.558  0.2942  0.1334 -0.9763
29209SOL    HW291416  10.036   9.315   6.487  1.1737  0.2337  0.4209
29210SOL     OW91417   9.846   2.022   6.678  0.4557  0.1387  0.4939
29210SOL    HW191418   9.773   1.995   6.734 -0.1885  0.6163 -0.0926
29210SOL    HW291419   9.874   1.941   6.635 -0.1502  0.0510  0.2495
29211SOL     OW91420   5.813   8.521   7.605  0.3442 -0.5195  0.2491
29211SOL    HW191421   5.787   8.603   7.648  0.1226  0.0566 -0.9542
29211SOL    HW291422   5.892   8.494   7.652 -1.0778 -1.1040  2.4706
29212SOL     OW91423   7.713   7.216   1.249  0.0774 -0.1817 -0.0288
29212SOL    HW191424   7.647   7.178   1.306  1.0642 -0.2705  1.0874
29212SOL    HW291425   7.741   7.144   1.192  0.6820 -0.7074  0.8979
29213SOL     OW91426   9.011   2.483   7.343 -0.0039  0.1738  0.2181
29213SOL    HW191427   9.097   2.492   7.302  1.0252 -0.6627  2.0465
29213SOL    HW291428   8.979   2.572   7.352  0.6863  0.5012 -0.4629
29214SOL     OW91429   3.301   2.451   2.023 -0.5278 -0.0042 -0.2216
29214SOL    HW191430   3.244   2.414   1.956 -1.7041  2.2014 -0.5360
29214SOL    HW291431   3.250   2.524   2.060  0.6721 -0.2198  2.0522
29215SOL     OW91432   8.060   0.183   1.254  0.2090 -0.2634  0.2387
29215SOL    HW191433   8.118   0.258   1.270  0.5852 -0.0335 -1.8570
29215SOL    HW291434   7.972   0.221   1.254  0.4298  0.3442 -1.3460
29216SOL     OW91435   2.365   3.486   9.000  0.1785 -0.2662 -0.5294
29216SOL    HW191436   2.282   3.441   9.015  0.6292 -1.3069 -0.9761
29216SOL    HW291437   2.342   3.578   8.993 -0.8699 -0.4835 -0.1445
29217SOL     OW91438   7.940   6.397   0.562  0.3124  0.1614  0.4375
29217SOL    HW191439   7.971   6.486   0.546 -0.6384  0.3329 -0.5917
29217SOL    HW291440   7.846   6.401   0.546  0.2708 -1.0476  0.2972
29218SOL     OW91441   1.960   8.349   3.728  0.3050 -0.4826  0.2390
29218SOL    HW191442   1.968   8.342   3.823  1.4119 -2.0344  0.0804
29218SOL    HW291443   2.019   8.281   3.694  1.2849  1.1749 -1.6001
29219SOL     OW91444   2.699   3.714   8.087  0.4797 -0.0065 -0.0759
29219SOL    HW191445   2.740   3.773   8.024 -1.3103 -0.5609 -1.8528
29219SOL    HW291446   2.630   3.766   8.127  1.0409  0.0695  0.8301
29220SOL     OW91447   3.725   1.624  10.023 -0.1270 -0.0853 -0.6370
29220SOL    HW191448   3.749   1.543  10.067 -1.1203 -0.0741 -0.0312
29220SOL    HW291449   3.806   1.675  10.019  0.2857 -0.6910 -0.1139
29221SOL     OW91450   9.572   9.621   0.589 -0.5249  0.6619  0.5287
29221SOL    HW191451   9.658   9.589   0.616 -0.4373  1.0134  0.6756
29221SOL    HW291452   9.585   9.715   0.574 -0.5093  0.4318 -1.0111
29222SOL     OW91453   8.714   0.458   4.527 -0.2981 -0.0902 -0.1673
29222SOL    HW191454   8.642   0.395   4.524  1.7520 -2.6609  1.1334
29222SOL    HW291455   8.737   0.464   4.620  0.7983  1.1739 -0.4764
29223SOL     OW91456   1.815   3.088   6.193  0.4746 -0.2295  0.0008
29223SOL    HW191457   1.822   3.033   6.115  1.0996 -1.1582  0.6889
29223SOL    HW291458   1.853   3.035   6.263 -0.1168  0.5684  0.9506
29224SOL     OW91459   4.660   9.684   7.625 -0.5438 -0.3562  0.0052
29224SOL    HW191460   4.661   9.673   7.720  0.3757 -0.5725 -0.0264
29224SOL    HW291461   4.693   9.772   7.610  0.8064 -0.8703 -0.1737
29225SOL     OW91462   9.484   3.853   3.999  0.5592  0.5935 -0.3614
29225SOL    HW191463   9.466   3.783   4.062  1.1728  0.7028 -0.0532
29225SOL    HW291464   9.398   3.877   3.964  0.1751  0.6952  0.6136
29226SOL     OW91465   0.881   8.891   6.833  0.5223 -0.3689 -0.2468
29226SOL    HW191466   0.896   8.806   6.874  1.2680  0.5256  1.4705
29226SOL    HW291467   0.940   8.950   6.880  1.9528  0.6710 -3.1080
29227SOL     OW91468   9.241   5.530   5.165 -0.3002 -0.3791 -0.5398
29227SOL    HW191469   9.280   5.600   5.112 -1.2517 -1.5671 -3.0106
29227SOL    HW291470   9.212   5.465   5.100  1.1081 -3.4115  1.6362
29228SOL     OW91471   0.248   7.735   8.246  0.3521 -0.1210  0.2006
29228SOL    HW191472   0.256   7.671   8.175  0.9789 -0.0496  0.2005
29228SOL    HW291473   0.163   7.775   8.232  0.0057 -0.8698  0.1228
29229SOL     OW91474   6.345   5.821   3.854 -0.3071 -0.1654 -0.3222
29229SOL    HW191475   6.307   5.825   3.766  2.0113 -0.8649 -1.4440
29229SOL    HW291476   6.385   5.734   3.859 -0.2609 -0.0905  1.4104
29230SOL     OW91477   8.300   8.945   9.008 -0.5983 -0.4120  0.0933
29230SOL    HW191478   8.258   8.987   8.932 -2.0483 -1.6797  0.1438
29230SOL    HW291479   8.390   8.928   8.979 -1.5489 -2.4181 -2.0596
29231SOL     OW91480   3.314   7.858   0.532  0.0250  0.2335 -0.1593
29231SOL    HW191481   3.261   7.938   0.526  1.2549  0.9927 -1.4687
29231SOL    HW291482   3.259   7.789   0.495 -2.3361 -0.3330  3.7646
29232SOL     OW91483   9.240   3.385   6.215  0.5695 -0.5393 -0.2991
29232SOL    HW191484   9.260   3.445   6.144 -1.2254 -0.8051 -1.0763
29232SOL    HW291485   9.145   3.388   6.224  0.5966 -1.8555  0.9010
29233SOL     OW91486   8.598   0.972   1.900  0.2028 -0.2086  0.2778
29233SOL    HW191487   8.635   1.045   1.951  0.2056  1.0423 -1.4085
29233SOL    HW291488   8.667   0.906   1.898  0.9735  0.5815  0.2100
29234SOL     OW91489   4.242   4.610   7.862  0.5263 -0.3919 -0.6158
29234SOL    HW191490   4.150   4.637   7.861  0.2935 -1.1299  0.0268
29234SOL    HW291491   4.285   4.669   7.799 -0.5596 -0.6982 -1.6816
29235SOL     OW91492   1.726   4.733   8.429  0.2776 -0.1358 -0.1568
29235SOL    HW191493   1.670   4.796   8.383  0.4761  0.4489  0.3980
29235SOL    HW291494   1.814   4.771   8.426  0.8568 -1.4488 -1.7776
29236SOL     OW91495   2.481   1.077   8.694  0.4846 -0.1983  0.2240
29236SOL    HW191496   2.444   0.989   8.687 -0.8623  0.4777 -2.4249
29236SOL    HW291497   2.449   1.109   8.779 -0.7848 -1.5169  0.2817
29237SOL     OW91498   3.520   7.861   5.616  0.4935 -0.4471 -0.4302
29237SOL    HW191499   3.428   7.871   5.591  0.5743  2.0115  0.0387
29237SOL    HW291500   3.540   7.769   5.595 -2.9319 -2.0952  2.4182
29238SOL     OW91501   1.663   0.114   7.965  0.1810 -0.0848 -0.9786
29238SOL    HW191502   1.635   0.161   8.044  2.3847  0.6198 -0.5546
29238SOL    HW291503   1.674   0.182   7.899  1.4892 -0.2147 -0.9251
29239SOL     OW91504   7.536   2.767   1.053 -0.1104  0.0785  0.2431
29239SOL    HW191505   7.477   2.715   1.107  0.7405 -0.5981  0.5413
29239SOL    HW291506   7.569   2.835   1.112 -0.9463  0.7582 -0.0521
29240SOL     OW91507   9.302   9.135   5.849  0.4341  0.0129  0.0783
29240SOL    HW191508   9.321   9.085   5.769 -0.0998 -0.5267  0.2789
29240SOL    HW291509   9.211   9.113   5.870 -0.4005  2.3415 -0.7359
29241SOL     OW91510   0.798   0.543   2.021  0.8493 -0.3621  0.6127
29241SOL    HW191511   0.814   0.589   2.103 -0.2108  0.0139  0.6230
29241SOL    HW291512   0.705   0.520   2.023  0.1319  1.8608 -1.5332
29242SOL     OW91513   6.436   1.754   7.724  0.5979  0.5236  0.4655
29242SOL    HW191514   6.366   1.751   7.788 -1.3648  2.4052 -1.4424
29242SOL    HW291515   6.474   1.842   7.733  0.5265  0.6914 -0.6691
29243SOL     OW91516   5.263   7.516   9.987 -0.6883 -0.3100  0.1673
29243SOL    HW191517   5.255   7.600  10.032 -0.1486  0.2620 -0.7688
29243SOL    HW291518   5.280   7.539   9.895 -0.6989 -1.4413 -0.1398
29244SOL     OW91519   0.643   4.149   8.761  0.7024  0.2105  0.2524
29244SOL    HW191520   0.572   4.123   8.702  2.1533 -3.0119 -0.2843
29244SOL    HW291521   0.676   4.231   8.724 -1.7173  0.9902 -0.3345
29245SOL     OW91522   9.033   8.819  10.180  0.0126 -0.4597  0.1268
29245SOL    HW191523   8.958   8.879  10.176 -0.3114 -0.8838 -2.9729
29245SOL    HW291524   9.081   8.846  10.258 -1.8816  1.6627  0.6715
29246SOL     OW91525   3.694   9.087   7.746  0.8491  0.0073 -0.2656
29246SOL    HW191526   3.783   9.058   7.727  1.1206 -1.1167  2.3413
29246SOL    HW291527   3.638   9.015   7.717  1.1240 -0.9121  1.3548
29247SOL     OW91528   6.689   4.278   2.452 -0.3096 -0.2846 -0.0073
29247SOL    HW191529   6.619   4.246   2.509 -0.0289 -1.3316 -0.2294
29247SOL    HW291530   6.723   4.355   2.497 -1.4166  0.0755  0.2405
29248SOL     OW91531   4.345   9.822   6.833  0.5315 -0.8764 -0.1665
29248SOL    HW191532   4.252   9.807   6.814  0.4486 -1.5670  0.6900
29248SOL    HW291533   4.348   9.908   6.874  0.3235 -0.6923 -0.5299
29249SOL     OW91534   2.344   6.547   3.982 -0.1325 -0.3697 -0.5060
29249SOL    HW191535   2.290   6.509   3.913  0.0922 -0.4767 -0.6225
29249SOL    HW291536   2.346   6.481   4.051 -0.4330 -0.2259 -0.3519
29250SOL     OW91537   9.154   6.527   2.002 -0.2650  0.8631  0.0344
29250SOL    HW191538   9.211   6.602   2.022  1.5609 -0.1021 -1.2648
29250SOL    HW291539   9.121   6.545   1.914  0.5734 -0.0398 -0.4878
29251SOL     OW91540   1.992  10.085   4.012 -0.1462 -0.7104 -0.0984
29251SOL    HW191541   2.007  10.091   3.918 -1.2896 -0.5214 -0.2790
29251SOL    HW291542   2.003  10.174   4.044 -0.2284 -0.6934 -0.1204
29252SOL     OW91543   3.144   9.421  10.195  0.3010  1.0441 -0.7210
29252SOL    HW191544   3.127   9.402  10.287  0.1142  0.7773 -0.8097
29252SOL    HW291545   3.062   9.402  10.151  0.4150  1.0895 -0.9547
29253SOL     OW91546   7.307   0.770   8.306  0.1637 -0.5160 -1.1626
29253SOL    HW191547   7.373   0.808   8.364  0.0540  0.2099 -1.4997
29253SOL    HW291548   7.225   0.812   8.333 -0.4888 -2.6224  0.3651
29254SOL     OW91549   4.778   4.370   7.394 -0.1928 -0.8414  0.1505
29254SOL    HW191550   4.729   4.332   7.321  0.5110 -0.9108 -0.3000
29254SOL    HW291551   4.719   4.363   7.469 -1.9734  1.5680 -0.9021
29255SOL     OW91552  10.243  10.242   0.696  0.0008 -0.7856 -0.1829
29255SOL    HW191553  10.174  10.278   0.751  1.0527  2.4790 -0.7853
29255SOL    HW291554  10.197  10.195   0.626 -1.4548 -1.3014  1.0731
29256SOL     OW91555   2.965   3.826   1.419 -0.1176  0.2091 -0.1683
29256SOL    HW191556   2.869   3.831   1.417 -0.0744  1.5930  0.4921
29256SOL    HW291557   2.985   3.790   1.505 -0.0350 -0.0760 -0.3048
29257SOL     OW91558   5.517   0.952   2.429 -0.2300 -0.3251  0.5729
29257SOL    HW191559   5.523   0.891   2.355  2.0325  1.4207 -0.8329
29257SOL    HW291560   5.499   1.036   2.389 -1.1347  0.3343  2.2705
29258SOL     OW91561   8.055   6.383   3.217 -0.2577 -0.2931 -0.4417
29258SOL    HW191562   8.020   6.367   3.305  0.3839  1.9360  0.2675
29258SOL    HW291563   8.149   6.372   3.227 -0.1595  0.2211 -0.7934
29259SOL     OW91564  10.142   9.557   7.362  0.1094 -0.0345 -0.1625
29259SOL    HW191565  10.136   9.494   7.433  0.5152 -0.5772 -0.5991
29259SOL    HW291566  10.184   9.509   7.291 -1.5947  0.0467 -1.2870
29260SOL     OW91567   8.934   7.349   7.554  0.2347  0.0242  0.1482
29260SOL    HW191568   8.963   7.319   7.640  0.4659  0.9480  0.3915
29260SOL    HW291569   8.873   7.420   7.572 -0.1350 -0.1333 -0.4381
29261SOL     OW91570   4.236   8.971   2.702  0.0094  0.0965 -0.0348
29261SOL    HW191571   4.192   8.887   2.713 -2.2056  1.1597 -0.1231
29261SOL    HW291572   4.294   8.979   2.778 -0.8696 -0.8651  0.7542
29262SOL     OW91573   3.368   0.803   5.796  0.3431  0.1085  0.0473
29262SOL    HW191574   3.338   0.774   5.882  0.9002  0.1966  0.2750
29262SOL    HW291575   3.439   0.865   5.815  0.7411 -0.1753 -0.4773
29263SOL     OW91576   5.993  10.001   2.403  0.1577 -0.3783 -0.2429
29263SOL    HW191577   6.034   9.941   2.340  0.3416 -1.9255  1.2726
29263SOL    HW291578   5.924   9.949   2.443 -0.7033  0.9461  0.0456
29264SOL     OW91579   6.247   0.224   9.451 -0.1071 -0.2504 -0.1599
29264SOL    HW191580   6.280   0.184   9.371  0.9142 -1.1049  0.6604
29264SOL    HW291581   6.175   0.280   9.422 -0.6194 -1.5577 -1.5157
29265SOL     OW91582   6.807   4.295  10.149  0.1738 -0.3366  0.3863
29265SOL    HW191583   6.728   4.240  10.152 -0.3216  0.3598  0.4593
29265SOL    HW291584   6.877   4.239  10.183 -0.4822 -0.6503  1.2701
29266SOL     OW91585  10.302   7.752   3.868  0.3915 -0.2405  0.0426
29266SOL    HW191586  10.331   7.670   3.829 -0.6371 -0.5646 -0.0676
29266SOL    HW291587  10.227   7.779   3.816  0.1309  0.2823  0.6667
29267SOL     OW91588   0.488   9.052   6.519 -0.4989  0.5665 -0.1700
29267SOL    HW191589   0.538   9.032   6.598  0.9976  0.8367 -0.9909
29267SOL    HW291590   0.439   8.972   6.500 -1.7713  0.8679  1.6162
29268SOL     OW91591   5.968   4.539   4.592 -0.0410  0.0562 -0.2212
29268SOL    HW191592   6.017   4.610   4.550 -1.1430  0.3835 -1.0128
29268SOL    HW291593   5.939   4.484   4.520 -3.0110  1.2806 -0.1292
29269SOL     OW91594  10.360   5.322   8.423 -1.0663  0.4181 -0.5972
29269SOL    HW191595  10.351   5.250   8.485  1.9141  1.4956  1.2675
29269SOL    HW291596  10.424   5.292   8.359 -1.9281  0.4273 -1.5024
29270SOL     OW91597   8.521   7.389   7.697  0.0417 -0.1375 -0.4598
29270SOL    HW191598   8.594   7.331   7.676 -0.2969 -0.5192 -0.5831
29270SOL    HW291599   8.453   7.367   7.634 -1.5889 -2.3715  1.8775
29271SOL     OW91600   0.285   5.089   3.490 -0.8455  0.2001  0.3037
29271SOL    HW191601   0.295   5.037   3.410 -0.3356  1.2363 -0.3183
29271SOL    HW291602   0.198   5.064   3.523 -2.1085  1.4196 -1.8357
29272SOL     OW91603   5.155   8.034   1.395  0.7265  0.0914  0.2982
29272SOL    HW191604   5.205   8.099   1.446  0.3570  0.7418 -0.1607
29272SOL    HW291605   5.107   7.985   1.461  0.5909  0.6393  0.6173
29273SOL     OW91606   0.139   7.649  10.000 -0.5588  0.1873  0.3599
29273SOL    HW191607   0.075   7.709  10.038  1.2949  2.1596  0.5447
29273SOL    HW291608   0.212   7.705   9.974  1.0735 -1.9495  0.0721
29274SOL     OW91609   3.269   2.187   7.250 -0.0983  0.1180 -0.1251
29274SOL    HW191610   3.338   2.138   7.293 -0.8820 -1.7308 -0.8846
29274SOL    HW291611   3.214   2.121   7.207 -2.2543  1.5016  0.3010
29275SOL     OW91612   4.094   8.829   0.154  0.4298  0.3880 -0.4378
29275SOL    HW191613   4.085   8.841   0.060  0.0109  1.9836 -0.2208
29275SOL    HW291614   4.009   8.797   0.183  0.5710 -0.1408 -0.5972
29276SOL     OW91615   9.386   0.501   0.127 -0.0735  0.5289  0.2493
29276SOL    HW191616   9.338   0.432   0.082 -0.0283  0.7301 -0.1130
29276SOL    HW291617   9.446   0.455   0.185  0.5956  0.2378 -0.6450
29277SOL     OW91618   4.234   5.119   8.365 -0.0250 -0.4885 -0.3449
29277SOL    HW191619   4.185   5.054   8.315  0.0942 -1.4045  0.6718
29277SOL    HW291620   4.274   5.068   8.436  2.0213  0.3124 -0.8779
29278SOL     OW91621   0.577   3.380   7.338  0.2694  0.3626  0.2856
29278SOL    HW191622   0.586   3.354   7.430 -0.4991 -0.3013  0.1934
29278SOL    HW291623   0.664   3.365   7.300  0.4415  0.0815  0.7768
29279SOL     OW91624   9.281   7.734   8.148  0.4613 -0.3963 -0.3207
29279SOL    HW191625   9.357   7.749   8.203 -1.5652 -0.9135  2.8686
29279SOL    HW291626   9.241   7.821   8.137  1.7989  0.0153 -2.6811
29280SOL     OW91627   7.161  10.116  10.329  0.1620  0.3637  0.2123
29280SOL    HW191628   7.210  10.190  10.366  1.3008  0.1808 -0.8617
29280SOL    HW291629   7.228  10.061  10.288 -0.8885 -0.1988 -0.8128
29281SOL     OW91630   9.062   0.095   3.344  0.2259  1.0766  0.2733
29281SOL    HW191631   9.015   0.177   3.326 -0.7842  0.2898 -0.8640
29281SOL    HW291632   9.142   0.102   3.293 -1.1417  0.2369 -2.1469
29282SOL     OW91633   6.964   8.017   2.525 -0.1182  0.0222  0.2779
29282SOL    HW191634   7.003   7.932   2.508  0.6586  0.5848 -0.8203
29282SOL    HW291635   6.893   8.024   2.461 -0.4037  0.0760  0.5933
29283SOL     OW91636   2.332   2.235  10.235 -0.3864 -0.5793 -0.5780
29283SOL    HW191637   2.276   2.312  10.226  0.1261  0.0403  1.0919
29283SOL    HW291638   2.287   2.181  10.300  1.2376  0.3076  1.4154
29284SOL     OW91639   7.196   5.752   1.048 -0.6535  0.1925  0.1433
29284SOL    HW191640   7.189   5.822   1.113 -1.2154  1.2746 -1.0513
29284SOL    HW291641   7.120   5.764   0.991  0.6481  0.2936 -1.6758
29285SOL     OW91642   2.861   0.263   0.111  0.2461  0.3528 -0.0808
29285SOL    HW191643   2.855   0.246   0.205  0.3509  0.5874 -0.0290
29285SOL    HW291644   2.793   0.209   0.072  2.6167 -2.7483 -0.2840
29286SOL     OW91645   0.259   5.580   4.057  0.2763 -0.3818  0.6210
29286SOL    HW191646   0.282   5.574   4.149  0.3580  1.5717  0.7650
29286SOL    HW291647   0.172   5.619   4.056 -0.0152 -1.0198 -0.1182
29287SOL     OW91648   8.804   3.717   6.434  0.0419  0.2606 -1.0432
29287SOL    HW191649   8.781   3.761   6.352 -1.3627 -0.5801 -1.1433
29287SOL    HW291650   8.722   3.675   6.462  0.5077  0.4755  0.7614
29288SOL     OW91651   6.240   6.014   6.041  0.3075  0.5319  0.4374
29288SOL    HW191652   6.149   6.007   6.072  0.2180  1.7609  0.4938
29288SOL    HW291653   6.239   6.089   5.981  1.0840 -0.0603 -0.3361
29289SOL     OW91654   6.813   1.611   1.107 -0.4481 -0.3452 -0.0420
29289SOL    HW191655   6.810   1.705   1.127 -0.9822 -0.6989  1.7536
29289SOL    HW291656   6.741   1.598   1.045 -2.2561  0.0126  1.8717
29290SOL     OW91657   7.113   3.003   6.761 -0.1894 -0.2377  0.0615
29290SOL    HW191658   7.182   3.065   6.738 -0.1919 -0.5471 -0.8191
29290SOL    HW291659   7.117   2.936   6.693 -1.9840  0.2371 -0.5589
29291SOL     OW91660   2.944   5.461   3.344 -0.0088  0.4185 -1.0274
29291SOL    HW191661   3.035   5.468   3.313  0.6090  1.6232  0.9146
29291SOL    HW291662   2.907   5.547   3.329 -1.2146 -0.3284 -2.7085
29292SOL     OW91663   4.242   9.582  10.065 -0.0162 -0.0365  0.2999
29292SOL    HW191664   4.268   9.615   9.979  0.2439  0.1715  0.4554
29292SOL    HW291665   4.194   9.655  10.106  0.2319  0.0197  0.4960
29293SOL     OW91666   0.628   9.331   2.968  0.5896  0.0282  0.2076
29293SOL    HW191667   0.640   9.364   3.057  1.0770 -0.7141  0.4221
29293SOL    HW291668   0.664   9.399   2.912  0.3408  0.4693  0.5761
29294SOL     OW91669   7.054   4.178   8.573  0.2362 -0.3007  0.7055
29294SOL    HW191670   7.063   4.230   8.493 -1.2777  0.4254  0.9559
29294SOL    HW291671   7.102   4.098   8.555 -2.1813 -1.3522 -2.0350
29295SOL     OW91672   2.136   5.998   6.464  0.3196  0.0143  0.5112
29295SOL    HW191673   2.082   5.925   6.495 -0.2321  0.3382  0.3286
29295SOL    HW291674   2.189   5.961   6.393 -0.7376  0.0312 -0.3202
29296SOL     OW91675   3.291   6.070   0.206  0.1865  0.4077 -0.0378
29296SOL    HW191676   3.244   6.095   0.285 -0.9571 -0.5262 -0.3928
29296SOL    HW291677   3.222   6.046   0.143  1.0751  0.8506 -1.2196
29297SOL     OW91678   1.176   9.337   9.129  0.1871 -0.7593  0.2309
29297SOL    HW191679   1.170   9.258   9.182  1.1775 -0.9779  0.0421
29297SOL    HW291680   1.225   9.399   9.184  1.4286 -1.0669 -0.4830
29298SOL     OW91681   0.147   3.544   1.844 -0.2290 -0.1951  0.8042
29298SOL    HW191682   0.169   3.516   1.755  0.0787 -1.0334  1.1263
29298SOL    HW291683   0.054   3.522   1.854 -0.1979 -0.3433  0.7730
29299SOL     OW91684   0.979   6.375   4.379  0.0632 -0.0728  0.1706
29299SOL    HW191685   1.052   6.324   4.415  0.8372 -0.1536 -1.4222
29299SOL    HW291686   1.011   6.466   4.380 -0.8392  0.2719  1.8502
29300SOL     OW91687   1.906   5.286   0.056 -0.2265  0.0235 -0.1371
29300SOL    HW191688   1.827   5.328   0.091  0.2975 -0.3849  1.6269
29300SOL    HW291689   1.887   5.192   0.060  1.3014 -0.2630  2.9546
29301SOL     OW91690   2.097  10.161   1.563 -0.5034  0.2174  0.2668
29301SOL    HW191691   2.103  10.176   1.469  0.1003 -2.4633 -0.1871
29301SOL    HW291692   2.075  10.247   1.599  1.0600  1.7554 -2.1124
29302SOL     OW91693   7.607   8.703   5.639  0.1043 -0.3913 -0.5616
29302SOL    HW191694   7.538   8.660   5.587 -0.0041  0.3310 -1.0253
29302SOL    HW291695   7.679   8.640   5.640 -0.1748 -0.7203 -0.9608
29303SOL     OW91696   5.359   7.119   4.552 -0.0906  0.3675  0.0277
29303SOL    HW191697   5.401   7.056   4.494 -1.5085 -0.3672 -0.2212
29303SOL    HW291698   5.402   7.106   4.636  1.0557  0.5192 -0.5173
29304SOL     OW91699   8.002   9.689   0.992  0.2121  0.6949 -0.0957
29304SOL    HW191700   8.021   9.679   1.085  1.1172 -2.3763 -0.4825
29304SOL    HW291701   7.920   9.641   0.980  0.5662  0.2939 -1.0027
29305SOL     OW91702   3.321   3.282   0.402 -0.5335  0.2850  0.4118
29305SOL    HW191703   3.338   3.195   0.366  0.3262  0.9259 -0.8003
29305SOL    HW291704   3.226   3.286   0.412 -0.7618 -0.1066 -1.3523
29306SOL     OW91705   8.684   5.646   0.895  0.1887 -0.1120 -0.2196
29306SOL    HW191706   8.605   5.615   0.850  0.9596  0.5649 -2.1162
29306SOL    HW291707   8.746   5.663   0.825  2.0136 -0.5355  1.2291
29307SOL     OW91708   7.908   2.601   6.024  0.3920  0.1822 -0.0426
29307SOL    HW191709   7.972   2.630   6.089  1.0109 -0.7812 -0.2068
29307SOL    HW291710   7.936   2.513   6.000 -0.5533  0.0462 -0.6956
29308SOL     OW91711   5.998   0.276   4.746 -0.0177 -0.5453 -0.1413
29308SOL    HW191712   5.926   0.216   4.761  1.1413 -1.9589 -0.0446
29308SOL    HW291713   6.003   0.283   4.650  0.2519 -1.1322 -0.1744
29309SOL     OW91714   9.937   2.203   0.458  0.0821  0.4471  0.2017
29309SOL    HW191715   9.867   2.139   0.473 -1.2985  2.2819  2.1637
29309SOL    HW291716   9.936   2.217   0.363  0.2789 -2.1763 -0.2734
29310SOL     OW91717   2.721   7.508   3.773  0.0454 -0.4070 -0.1479
29310SOL    HW191718   2.749   7.502   3.864 -1.6389 -1.7541  0.3317
29310SOL    HW291719   2.643   7.452   3.768  0.4139 -0.8150 -2.5416
29311SOL     OW91720   7.140   2.186   6.266 -0.0506 -0.0632 -0.0743
29311SOL    HW191721   7.050   2.161   6.246 -0.4127  0.1803  1.1576
29311SOL    HW291722   7.147   2.177   6.361  0.0204  3.5750  0.4291
29312SOL     OW91723   5.708   5.044  10.322 -0.9166  0.4399  0.5220
29312SOL    HW191724   5.698   5.049  10.227 -1.6921  1.9790  0.6604
29312SOL    HW291725   5.766   4.968  10.336 -0.5739  0.3507 -1.1778
29313SOL     OW91726   0.332   8.352   4.683  0.5277  0.2431  0.2987
29313SOL    HW191727   0.360   8.261   4.689  1.8789  0.6976  1.6505
29313SOL    HW291728   0.266   8.353   4.614  1.4712 -1.5117 -0.6867
29314SOL     OW91729   5.550   5.807   3.368  0.0934  0.6280  0.4451
29314SOL    HW191730   5.481   5.778   3.308  0.8489  0.7200 -0.4998
29314SOL    HW291731   5.524   5.895   3.395 -1.1697 -0.0938  1.7026
29315SOL     OW91732   2.078   2.902   6.916  0.3331 -0.2365 -0.4889
29315SOL    HW191733   2.104   2.947   6.996  1.5700  0.8204 -1.4436
29315SOL    HW291734   1.995   2.942   6.891 -0.1960 -0.7621  0.3928
29316SOL     OW91735   4.382   7.453   4.175  0.4598  0.4212  0.0894
29316SOL    HW191736   4.453   7.513   4.154  0.8358  0.0220  0.2144
29316SOL    HW291737   4.343   7.431   4.090 -0.3240  1.6093  0.1091
29317SOL     OW91738   1.003   2.949   1.809  0.1766 -0.1477  0.2110
29317SOL    HW191739   0.916   2.911   1.799 -0.2190  0.7687  0.0475
29317SOL    HW291740   1.044   2.896   1.877 -0.5677 -0.4921  0.4099
29318SOL     OW91741   9.874   8.316   9.726  0.3545  0.1643 -0.7286
29318SOL    HW191742   9.895   8.386   9.788 -1.0560  0.6665 -0.7658
29318SOL    HW291743   9.915   8.345   9.644  1.7361 -0.2196 -0.2025
29319SOL     OW91744   4.218   2.883   5.145 -0.3227 -0.0884 -0.5917
29319SOL    HW191745   4.270   2.963   5.136 -0.3663 -0.0673 -0.6542
29319SOL    HW291746   4.128   2.911   5.128 -0.3584 -0.1183 -0.4492
29320SOL     OW91747   5.096   9.127   9.819  0.1780  0.3176 -0.0641
29320SOL    HW191748   5.122   9.066   9.750 -0.0619  1.5838 -1.3112
29320SOL    HW291749   5.021   9.084   9.860  0.8474 -0.8451 -0.0104
29321SOL     OW91750   5.847   1.735   0.887 -0.7036 -0.2363  0.3383
29321SOL    HW191751   5.852   1.642   0.862 -1.3359 -0.4231  0.8576
29321SOL    HW291752   5.881   1.737   0.977 -2.6401 -0.3400  1.1304
29322SOL     OW91753   5.687   9.618   9.959  0.1789 -0.3595  0.2240
29322SOL    HW191754   5.727   9.548  10.011  0.0479 -0.2173  0.5197
29322SOL    HW291755   5.756   9.684   9.951  0.6765 -1.0107 -1.0178
29323SOL     OW91756   6.258   3.964   2.103  0.1554 -1.0121  0.1762
29323SOL    HW191757   6.236   4.013   2.024 -0.1784 -2.4721 -0.6695
29323SOL    HW291758   6.296   3.882   2.071  0.4165 -1.4415  1.5334
29324SOL     OW91759   3.467   2.719   9.952 -0.6778  0.1906 -0.0166
29324SOL    HW191760   3.424   2.721   9.867  0.1610 -1.3926 -0.5096
29324SOL    HW291761   3.423   2.649  10.000  0.6707 -0.7970 -0.1799
29325SOL     OW91762   2.488   3.765   5.035  0.4457 -0.3985  0.1203
29325SOL    HW191763   2.466   3.690   4.980 -0.2669 -1.1665  1.3941
29325SOL    HW291764   2.423   3.831   5.014  0.9117 -0.2207 -0.8151
29326SOL     OW91765   5.723   9.946   4.382  0.5098  0.5432 -0.0145
29326SOL    HW191766   5.660   9.915   4.317  0.5859 -0.9099  0.5661
29326SOL    HW291767   5.676   9.940   4.466  1.3327 -0.3504  0.3966
29327SOL     OW91768   7.046   6.646   9.240 -0.6895  0.6631  0.6087
29327SOL    HW191769   7.012   6.558   9.257 -1.5511  0.7263 -0.7016
29327SOL    HW291770   7.097   6.637   9.159 -0.7323  1.3577  0.5016
29328SOL     OW91771  10.311   4.353   2.468  0.4431 -0.1339 -0.0342
29328SOL    HW191772  10.272   4.282   2.416  0.6800 -0.9949  0.9299
29328SOL    HW291773  10.323   4.315   2.555  0.4233  1.1512  0.5571
29329SOL     OW91774   8.472   4.205   6.106  0.2339 -0.2643 -0.0775
29329SOL    HW191775   8.395   4.220   6.052 -0.6443  0.0409  1.2047
29329SOL    HW291776   8.438   4.164   6.186  1.2121  0.9961  1.0294
29330SOL     OW91777   5.743   5.444   3.321 -0.3775  0.0670 -0.0084
29330SOL    HW191778   5.798   5.366   3.319 -0.1757  0.0883  2.1864
29330SOL    HW291779   5.801   5.512   3.355 -0.1890  1.5715 -2.9467
29331SOL     OW91780   3.039   5.152   9.721  0.1335 -0.1147  0.2369
29331SOL    HW191781   3.073   5.086   9.660 -0.3594 -1.1958  1.1025
29331SOL    HW291782   2.974   5.106   9.773  0.0185  0.9748  1.1017
29332SOL     OW91783   7.847   3.380   9.498  0.5345  0.4554 -0.2858
29332SOL    HW191784   7.836   3.472   9.522 -1.0523  0.1023  0.4612
29332SOL    HW291785   7.762   3.340   9.517  1.6003 -1.4506  0.7392
29333SOL     OW91786   2.287   3.020   3.220  0.1188 -0.5954  0.6152
29333SOL    HW191787   2.336   3.101   3.205 -0.6848 -0.1369  0.4295
29333SOL    HW291788   2.267   2.987   3.132  1.3693 -1.5938  0.6623
29334SOL     OW91789   0.760   0.101   7.829  0.3516 -0.0321 -0.4834
29334SOL    HW191790   0.822   0.027   7.827  1.2088  0.6858 -1.3898
29334SOL    HW291791   0.811   0.174   7.863 -0.2852  0.3335 -0.2989
29335SOL     OW91792   8.408   7.549   3.626  0.1373  0.2770  0.1751
29335SOL    HW191793   8.357   7.631   3.628 -1.5838 -0.7568  1.7185
29335SOL    HW291794   8.343   7.480   3.614  1.7439 -0.8474 -3.4069
29336SOL     OW91795   8.520   2.372   7.436  0.2849 -0.1466  0.0577
29336SOL    HW191796   8.487   2.389   7.524  0.6006 -0.7439  0.2991
29336SOL    HW291797   8.614   2.364   7.447  0.0639 -4.4285  0.4493
29337SOL     OW91798  10.105   2.382   5.225 -0.0943 -0.2283 -0.4674
29337SOL    HW191799  10.182   2.399   5.278  0.9735 -0.5718 -1.8541
29337SOL    HW291800  10.046   2.333   5.283  0.6545  0.1696  0.6507
29338SOL     OW91801   1.349   9.675   2.211  0.1511 -0.4987  0.4186
29338SOL    HW191802   1.409   9.603   2.191 -0.4856 -1.2768  1.2546
29338SOL    HW291803   1.373   9.704   2.299 -1.1763 -1.3561  1.1037
29339SOL     OW91804   9.379   9.125  10.204  0.0661  0.3404  0.5270
29339SOL    HW191805   9.473   9.112  10.210 -0.1491 -0.9777  1.4102
29339SOL    HW291806   9.341   9.057  10.260 -1.3984  1.0580  0.4653
29340SOL     OW91807   2.149   5.203   9.593  0.3507  0.1513  0.2371
29340SOL    HW191808   2.228   5.183   9.542  1.2229 -0.2237  1.6789
29340SOL    HW291809   2.159   5.295   9.617  0.3194  0.1211  0.3662
29341SOL     OW91810   5.139   4.969   6.147 -0.2531  0.2440 -0.7476
29341SOL    HW191811   5.133   4.958   6.052 -2.2640 -0.3568 -0.5946
29341SOL    HW291812   5.166   4.883   6.179  1.8144  0.8130 -0.8317
29342SOL     OW91813   4.860  10.151   6.379  0.0087  0.7074 -0.3837
29342SOL    HW191814   4.905  10.208   6.441 -0.2295  0.6343 -0.1426
29342SOL    HW291815   4.782  10.201   6.352 -0.7579  0.1006  0.6104
29343SOL     OW91816   2.466   8.577   2.017 -0.1740  0.2599 -0.7246
29343SOL    HW191817   2.493   8.498   1.969 -2.6003 -1.7296  0.8845
29343SOL    HW291818   2.502   8.565   2.105 -0.3681  1.0950 -0.5263
29344SOL     OW91819   3.608   3.507   1.883 -0.3568  0.6701 -0.0270
29344SOL    HW191820   3.558   3.461   1.815 -0.8531  0.1416  0.6766
29344SOL    HW291821   3.541   3.552   1.935 -0.0402  0.5421  0.4937
29345SOL     OW91822   6.469   2.546   5.992  0.3441 -0.3295  0.2105
29345SOL    HW191823   6.485   2.609   5.922  1.3613 -1.1351 -0.2997
29345SOL    HW291824   6.428   2.472   5.948  0.7182 -0.7213  0.5148
29346SOL     OW91825   0.143   1.695   3.868 -0.6426  0.0415  0.4059
29346SOL    HW191826   0.067   1.645   3.898 -0.5135 -0.7449 -0.4957
29346SOL    HW291827   0.205   1.628   3.839  0.0482  0.7022  0.3238
29347SOL     OW91828   1.530   0.508   1.776 -0.3544  0.2129  0.3465
29347SOL    HW191829   1.461   0.447   1.801 -0.7321 -0.2462 -1.6904
29347SOL    HW291830   1.605   0.452   1.754  0.1123  0.6215  0.8685
29348SOL     OW91831   7.762   0.076   6.940 -0.2165  0.4415 -0.1834
29348SOL    HW191832   7.722   0.049   6.857 -1.4700 -0.0335  0.5393
29348SOL    HW291833   7.801   0.161   6.923 -0.0536  0.1366 -1.3750
29349SOL     OW91834   8.315   8.194   3.717 -0.0397  0.3195  0.1490
29349SOL    HW191835   8.343   8.210   3.627  1.4765 -1.9799  0.1028
29349SOL    HW291836   8.347   8.269   3.766  0.9574  0.6319 -0.9290
29350SOL     OW91837   8.740   3.796   2.073  0.4032  0.0048  0.7586
29350SOL    HW191838   8.791   3.822   1.997 -0.9932 -0.3777 -0.3605
29350SOL    HW291839   8.719   3.879   2.117 -0.5091  0.4461 -0.4464
29351SOL     OW91840   9.006   2.300   8.239 -0.0087 -0.0715  0.8588
29351SOL    HW191841   9.034   2.256   8.158  1.4309 -0.9832  1.8018
29351SOL    HW291842   9.069   2.271   8.305  0.8088  3.1898  1.6423
29352SOL     OW91843   3.712   0.700   4.245 -0.3456 -0.1252  0.1798
29352SOL    HW191844   3.620   0.724   4.250 -0.4774 -0.7330  0.9859
29352SOL    HW291845   3.736   0.678   4.336  0.1928 -1.3731 -0.2471
29353SOL     OW91846   9.565   4.829   7.498  0.2376  0.3616 -0.2974
29353SOL    HW191847   9.659   4.825   7.518 -0.3860  0.0062  3.1987
29353SOL    HW291848   9.525   4.766   7.558 -2.2449  0.1947 -1.9981
29354SOL     OW91849   6.325   6.781   0.152  0.9314  0.1029 -0.1596
29354SOL    HW191850   6.267   6.749   0.221 -1.2927  0.6278 -1.6732
29354SOL    HW291851   6.336   6.874   0.172  1.3048 -0.0073  0.1560
29355SOL     OW91852   4.309   3.125   8.273 -0.3517  0.3189  0.0500
29355SOL    HW191853   4.288   3.081   8.191 -0.3441  0.3786  0.0167
29355SOL    HW291854   4.304   3.056   8.339  0.9475 -0.0232 -0.1716
29356SOL     OW91855   0.708   6.503   9.857  0.2656 -0.2382 -0.2698
29356SOL    HW191856   0.739   6.588   9.888  1.6658 -0.2448 -1.4773
29356SOL    HW291857   0.661   6.465   9.931  0.6810  1.0687  0.7011
29357SOL     OW91858   5.215   4.519   1.554  0.3182  0.0068  0.1560
29357SOL    HW191859   5.159   4.450   1.591  0.9648 -1.5719 -1.6413
29357SOL    HW291860   5.297   4.513   1.602  0.3480 -0.4569  0.0501
29358SOL     OW91861   8.276   2.048   7.506 -0.2281  0.0179 -0.8283
29358SOL    HW191862   8.212   2.050   7.577 -0.6187 -0.1340 -1.1732
29358SOL    HW291863   8.348   2.102   7.538  0.1668 -1.0793  0.2114
29359SOL     OW91864   9.643   5.111   0.013  0.1293  0.2798  0.4076
29359SOL    HW191865   9.581   5.050   0.053  0.3012  1.2047  2.1918
29359SOL    HW291866   9.605   5.197   0.027  1.0700  0.7546  0.1440
29360SOL     OW91867   7.245   8.317   4.375  0.4291  0.9797  0.4648
29360SOL    HW191868   7.216   8.338   4.286  1.3905 -0.2073 -0.1609
29360SOL    HW291869   7.165   8.320   4.428 -0.3681  0.4841 -0.6737
29361SOL     OW91870   6.845   0.800   4.946 -0.3031  0.0581  0.3620
29361SOL    HW191871   6.877   0.710   4.937  0.8842  0.4098  0.8589
29361SOL    HW291872   6.859   0.839   4.859 -0.9857 -0.2710  0.0942
29362SOL     OW91873   3.209   7.868   1.664  0.1162  0.0274  0.0257
29362SOL    HW191874   3.151   7.819   1.606 -1.1617  1.8806 -0.3561
29362SOL    HW291875   3.232   7.805   1.733 -1.3101 -1.1488 -0.5068
29363SOL     OW91876   5.485   0.943   5.011 -0.0501 -0.2629  0.1133
29363SOL    HW191877   5.523   1.030   5.023  0.0452 -0.2785 -0.0749
29363SOL    HW291878   5.557   0.883   5.030 -0.2449 -0.3132  0.7263
29364SOL     OW91879   8.777   6.765   5.512  0.3701 -0.4911  0.0386
29364SOL    HW191880   8.843   6.719   5.565 -1.4580 -1.3671  1.7058
29364SOL    HW291881   8.693   6.727   5.540 -1.0417  2.0375 -0.4333
29365SOL     OW91882   0.875   7.232   3.251 -0.0091  0.2821 -0.4836
29365SOL    HW191883   0.899   7.249   3.343  1.2957  0.7433 -0.8846
29365SOL    HW291884   0.958   7.209   3.209 -0.6252 -0.0991 -1.5152
29366SOL     OW91885   1.777   5.547   2.421  0.0072  0.2625 -0.0034
29366SOL    HW191886   1.703   5.593   2.381  1.0946  1.6608 -0.4751
29366SOL    HW291887   1.855   5.591   2.387  1.0381  0.1902  2.0784
29367SOL     OW91888   0.968   3.495   1.185 -0.9741 -0.3912  0.2125
29367SOL    HW191889   0.957   3.434   1.111  1.2320 -1.0167  0.3475
29367SOL    HW291890   1.018   3.567   1.148 -1.0608 -0.0449  0.7757
29368SOL     OW91891   3.328   9.850   9.665 -0.1747  0.1491 -0.8492
29368SOL    HW191892   3.387   9.774   9.656 -0.3909 -0.3535  1.2369
29368SOL    HW291893   3.387   9.925   9.666  0.2163 -0.1472 -1.2341
29369SOL     OW91894   9.940   8.815   2.415 -0.5067  0.5232  0.3457
29369SOL    HW191895   9.920   8.839   2.506  0.3450  1.3346  0.3301
29369SOL    HW291896   9.854   8.813   2.372 -0.7694  1.9888  0.7282
29370SOL     OW91897   3.504   2.807   1.673  0.1225  0.2111  0.8511
29370SOL    HW191898   3.560   2.741   1.713  1.0031  1.3028  1.4910
29370SOL    HW291899   3.550   2.830   1.592 -1.1177 -1.2384 -0.3202
29371SOL     OW91900   2.507  10.311   6.506  0.2209  0.5391  0.1685
29371SOL    HW191901   2.512  10.330   6.600  1.1374 -0.1332  0.2754
29371SOL    HW291902   2.508  10.216   6.500 -2.3669  0.4770 -0.4440
29372SOL     OW91903   5.237   5.813   3.625  0.3881 -0.3745 -0.0461
29372SOL    HW191904   5.173   5.800   3.555  0.6807 -1.1097 -0.1920
29372SOL    HW291905   5.194   5.872   3.687  0.2019  0.4618 -0.9407
29373SOL     OW91906   9.062   4.572   5.236 -0.7728 -0.0488 -0.6501
29373SOL    HW191907   9.131   4.580   5.170 -1.7726 -0.5318 -1.8033
29373SOL    HW291908   9.052   4.661   5.270 -0.3681  0.2574 -1.2965
29374SOL     OW91909   9.774   3.916   8.388 -0.3168  0.9040  0.3448
29374SOL    HW191910   9.811   3.977   8.324 -0.9476 -0.1595 -1.0882
29374SOL    HW291911   9.809   3.830   8.363 -1.9918  0.1966  0.2742
29375SOL     OW91912   0.437   0.048   5.677  0.5428  0.1015  0.6956
29375SOL    HW191913   0.427   0.120   5.615  2.0168 -0.0880  0.1890
29375SOL    HW291914   0.387  -0.024   5.639  1.6058 -0.0787 -0.4195
29376SOL     OW91915   4.348  10.042   3.432  0.2271  0.6248  0.3092
29376SOL    HW191916   4.256  10.063   3.448  0.5010  1.3676  0.9575
29376SOL    HW291917   4.380  10.112   3.376  0.5824  0.7637  0.6819
29377SOL     OW91918   0.883   2.275   0.794 -0.1496  0.6796  0.1480
29377SOL    HW191919   0.965   2.275   0.844 -0.1051 -1.7027  0.1579
29377SOL    HW291920   0.908   2.245   0.706 -1.0897 -0.6992  0.3296
29378SOL     OW91921   5.603   7.430   1.738  0.1846  0.2703  0.4340
29378SOL    HW191922   5.555   7.405   1.817  0.1891 -0.1891  0.2975
29378SOL    HW291923   5.678   7.371   1.737 -0.3924 -0.4700 -0.4837
29379SOL     OW91924   2.808   6.992   0.983 -0.5184  0.5308 -0.3327
29379SOL    HW191925   2.740   6.949   1.036 -0.3026  0.0205 -0.4697
29379SOL    HW291926   2.836   7.066   1.036 -0.0708 -0.1641  0.4247
29380SOL     OW91927   2.409   8.150   4.742  0.1577 -0.2792 -0.0534
29380SOL    HW191928   2.376   8.209   4.674  0.8077 -0.0354 -0.1640
29380SOL    HW291929   2.412   8.204   4.821  2.2846  0.3536 -0.4916
29381SOL     OW91930   5.976   2.854   4.134  0.3501  0.2773 -0.6153
29381SOL    HW191931   5.946   2.932   4.182 -0.1203 -0.9294  1.1369
29381SOL    HW291932   6.030   2.807   4.196  2.9671  0.5036 -2.5291
29382SOL     OW91933   6.171   1.524   2.162  0.8945 -0.2574  0.1494
29382SOL    HW191934   6.144   1.511   2.071  0.3924  2.0293 -0.0830
29382SOL    HW291935   6.144   1.444   2.206  0.4630 -1.1092 -1.5556
29383SOL     OW91936   2.309   0.587   0.031  0.0025 -0.9498 -0.3522
29383SOL    HW191937   2.332   0.679   0.047  1.2130 -1.1841 -0.6233
29383SOL    HW291938   2.320   0.544   0.115 -2.1197 -0.5810  0.1666
29384SOL     OW91939   8.279   5.554   9.649 -0.1689  0.2891  0.4193
29384SOL    HW191940   8.242   5.507   9.574  3.3002 -0.3421 -1.0836
29384SOL    HW291941   8.312   5.486   9.707 -0.0231  0.8322  0.9906
29385SOL     OW91942   1.275   7.084   7.310  0.0412  0.1606 -0.1164
29385SOL    HW191943   1.339   7.141   7.353  0.3181  0.0583 -0.3831
29385SOL    HW291944   1.285   7.104   7.216  1.1962 -1.3486 -0.3610
29386SOL     OW91945   5.179   2.979   2.369 -0.0644 -0.3819 -0.2095
29386SOL    HW191946   5.211   2.976   2.279 -0.9681 -0.5856 -0.5351
29386SOL    HW291947   5.133   2.897   2.381  0.5623 -0.6207  0.6497
29387SOL     OW91948   6.438   1.295   0.623  0.0690 -0.3178 -0.1607
29387SOL    HW191949   6.512   1.254   0.668  0.7467 -0.0948 -1.0407
29387SOL    HW291950   6.471   1.381   0.595 -0.5482 -0.1762 -0.4850
29388SOL     OW91951   6.275   8.306   7.835  0.2041 -0.0561  0.5528
29388SOL    HW191952   6.294   8.306   7.929  2.0265 -2.8682  0.3044
29388SOL    HW291953   6.361   8.304   7.793 -0.5520  2.1107 -1.2729
29389SOL     OW91954   7.568   2.308   3.431 -0.0762 -0.5016  0.6166
29389SOL    HW191955   7.528   2.351   3.507  0.0801 -0.6673  0.7947
29389SOL    HW291956   7.516   2.338   3.356  1.3455  1.7185  0.4505
29390SOL     OW91957   4.152   5.156   9.545 -0.4248  0.3472  0.2944
29390SOL    HW191958   4.203   5.203   9.611 -0.7390  1.5381 -0.2845
29390SOL    HW291959   4.217   5.126   9.482 -0.2076 -0.1328  0.7348
29391SOL     OW91960   0.478   3.455   4.575  0.1317  0.5356 -0.4345
29391SOL    HW191961   0.533   3.521   4.616  1.1205  0.0460 -0.9090
29391SOL    HW291962   0.466   3.388   4.643  0.1963  0.6149 -0.3454
29392SOL     OW91963   6.539   5.594   7.422 -0.1704  0.1070 -0.0095
29392SOL    HW191964   6.627   5.594   7.461  0.0744  0.3630 -0.5476
29392SOL    HW291965   6.514   5.502   7.421  0.6742 -0.1415 -1.0981
29393SOL     OW91966   0.360   6.084   4.371  0.1371  0.2125  0.6506
29393SOL    HW191967   0.406   6.139   4.433 -0.5638  0.6103  0.8293
29393SOL    HW291968   0.272   6.121   4.366 -0.5470 -1.2414  1.2333
29394SOL     OW91969   0.838   1.299   1.758  0.1770  0.1992  0.3128
29394SOL    HW191970   0.847   1.391   1.781 -2.2938  0.8442 -1.0177
29394SOL    HW291971   0.905   1.284   1.691  2.0315  0.3908  2.0423
29395SOL     OW91972   8.106   9.416   5.696  0.0928 -0.0320  0.5417
29395SOL    HW191973   8.054   9.443   5.772 -2.8484  2.6371 -2.1108
29395SOL    HW291974   8.052   9.351   5.652  0.4137  0.4747 -0.6535
29396SOL     OW91975   8.888   5.930   4.409  0.2605  0.0693  0.2836
29396SOL    HW191976   8.805   5.957   4.448  0.3864  1.1195 -0.1536
29396SOL    HW291977   8.909   5.999   4.346  1.8673  0.2274  0.9508
29397SOL     OW91978   5.941   7.299   3.567 -0.1304  0.0575  0.0373
29397SOL    HW191979   5.879   7.256   3.508 -0.9922  0.2236  0.8003
29397SOL    HW291980   5.932   7.252   3.650  2.2597 -1.2772 -0.3499
29398SOL     OW91981   5.115   2.072   2.082 -0.6872  0.0190  0.0351
29398SOL    HW191982   5.099   2.137   2.150 -0.3795  1.6312 -1.3755
29398SOL    HW291983   5.059   2.098   2.009  0.7713 -0.2041 -1.2279
29399SOL     OW91984   7.834   7.790   7.438 -0.7441 -0.7848  0.4984
29399SOL    HW191985   7.847   7.732   7.514 -1.9196 -0.3508  1.0512
29399SOL    HW291986   7.921   7.795   7.398 -0.8269 -4.0186 -0.3887
29400SOL     OW91987   9.965   0.124  10.115  0.6351  0.2991  0.4460
29400SOL    HW191988   9.899   0.123  10.046  0.7152  0.4017  0.3659
29400SOL    HW291989  10.048   0.111  10.069  0.7253  0.7259  0.4763
29401SOL     OW91990   8.601   8.380  10.211 -0.3034  0.2396  0.4293
29401SOL    HW191991   8.664   8.367  10.282 -0.2864 -0.3368  0.3148
29401SOL    HW291992   8.519   8.343  10.244 -1.1472  2.7073  1.3515
29402SOL     OW91993   2.749   2.069   2.862 -0.3809 -0.1830  0.0736
29402SOL    HW191994   2.813   2.035   2.799  0.5519 -0.7705  1.3009
29402SOL    HW291995   2.748   2.005   2.933 -0.1101  1.3182  1.4949
29403SOL     OW91996   8.578   8.964   1.188 -0.2964  0.1899  0.0285
29403SOL    HW191997   8.503   8.906   1.203 -0.7926  0.6761 -0.5126
29403SOL    HW291998   8.636   8.947   1.262  0.8737 -2.9677 -1.4309
29404SOL     OW91999   9.301   6.646   2.765  0.4435  0.4425 -0.7799
29404SOL    HW192000   9.243   6.721   2.756 -0.2695  0.1330  0.9262
29404SOL    HW292001   9.379   6.670   2.714  0.6998  2.8385  0.5628
29405SOL     OW92002   6.693   3.324   9.387  0.0810 -0.1952  0.2236
29405SOL    HW192003   6.787   3.313   9.376 -0.0371  0.0731 -1.1537
29405SOL    HW292004   6.662   3.239   9.417  0.7642 -0.2577  0.7804
29406SOL     OW92005   2.842   4.404   7.360  0.6353  0.0352  0.1203
29406SOL    HW192006   2.812   4.484   7.317  0.9682  0.0170 -0.1458
29406SOL    HW292007   2.937   4.415   7.368  0.7884 -0.6905 -0.6493
29407SOL     OW92008   7.978   7.446   0.956  0.3983 -0.0486  0.0236
29407SOL    HW192009   7.937   7.420   0.873  0.1455  1.6246 -0.4052
29407SOL    HW292010   8.038   7.516   0.932  1.5268 -0.6296  1.0510
29408SOL     OW92011   3.123   9.813   8.238  0.0911  0.3164 -0.5830
29408SOL    HW192012   3.131   9.907   8.256 -0.3446 -0.0507  1.8675
29408SOL    HW292013   3.212   9.779   8.248  0.2299  0.4467 -1.3605
29409SOL     OW92014   8.156   6.906   1.804 -0.6149  0.4038  0.0080
29409SOL    HW192015   8.090   6.972   1.781 -0.4579  0.4027 -0.4610
29409SOL    HW292016   8.221   6.953   1.855 -0.8642  0.4543  0.2830
29410SOL     OW92017   7.476   0.046   3.019  0.2807 -0.5871  0.1721
29410SOL    HW192018   7.413  -0.011   3.065 -2.2159  1.4553 -0.4818
29410SOL    HW292019   7.478   0.013   2.930 -2.4253  1.1090 -0.6433
29411SOL     OW92020   9.986   5.014   4.461 -0.3041 -0.2430  0.3517
29411SOL    HW192021   9.909   5.055   4.500 -0.7610 -1.7319  1.0594
29411SOL    HW292022   9.972   4.920   4.471  1.6675 -0.5531  0.6373
29412SOL     OW92023   9.915   7.129   9.867 -0.2474  0.2603  0.0536
29412SOL    HW192024   9.841   7.150   9.810 -0.2521  1.3190  0.4333
29412SOL    HW292025   9.952   7.049   9.829 -2.1963 -0.8958  0.4710
29413SOL     OW92026   4.903   8.459   4.739 -0.0680  0.0335  0.3880
29413SOL    HW192027   4.890   8.429   4.829 -0.4703 -0.2804  0.2285
29413SOL    HW292028   4.947   8.386   4.696 -0.5060 -0.0905  0.1514
29414SOL     OW92029   4.206   7.884   3.610 -0.1359 -0.3930 -0.2081
29414SOL    HW192030   4.287   7.933   3.627 -0.6849 -0.0111  1.4882
29414SOL    HW292031   4.212   7.859   3.518  0.8731  1.5891 -0.7327
29415SOL     OW92032   0.160   1.379   8.622 -0.4850  0.4027  0.0748
29415SOL    HW192033   0.206   1.300   8.593  2.1008  1.9644 -0.3811
29415SOL    HW292034   0.087   1.388   8.561  0.1352 -0.7608 -0.8856
29416SOL     OW92035   1.296   0.436   5.918 -0.0282 -0.2899  0.4882
29416SOL    HW192036   1.246   0.361   5.949 -1.2360  0.3657  0.2061
29416SOL    HW292037   1.318   0.415   5.828 -1.4164  0.1765  0.0127
29417SOL     OW92038   2.631   6.447   4.006  0.5934 -0.1534  0.1646
29417SOL    HW192039   2.535   6.453   4.009  0.6537  1.3887  0.2069
29417SOL    HW292040   2.649   6.366   3.959 -0.7538 -0.0663 -0.5678
29418SOL     OW92041   1.876   8.632   8.616 -0.5362  0.5912  0.2946
29418SOL    HW192042   1.851   8.546   8.649 -1.5094  1.5592  2.2204
29418SOL    HW292043   1.853   8.629   8.523 -0.3837 -1.2643  0.2806
29419SOL     OW92044   6.289   2.772   3.180  0.7249 -0.4996 -0.0587
29419SOL    HW192045   6.363   2.717   3.152  2.4299  2.4838 -1.9924
29419SOL    HW292046   6.215   2.740   3.130  1.5986 -1.1974 -0.9520
29420SOL     OW92047   5.616   8.207  10.338 -0.3720 -0.2942 -0.0482
29420SOL    HW192048   5.552   8.267  10.375  0.6166  0.7885 -0.0486
29420SOL    HW292049   5.663   8.259  10.273 -0.0647 -1.3157 -0.6748
29421SOL     OW92050   5.511   8.074  10.099  0.3179 -0.4350 -0.0771
29421SOL    HW192051   5.526   8.102  10.189  0.5668  1.1370 -0.5762
29421SOL    HW292052   5.591   8.099  10.052 -0.5495  0.4861 -1.1051
29422SOL     OW92053   3.799   8.696   2.307  0.2291  0.2382  0.2018
29422SOL    HW192054   3.708   8.715   2.327  0.0243 -0.9586  0.4508
29422SOL    HW292055   3.817   8.613   2.352  1.7609  1.0054  1.0914
29423SOL     OW92056   1.574   9.795   5.563 -0.1758  0.0703 -0.3646
29423SOL    HW192057   1.590   9.706   5.534 -1.5997  0.6424 -3.3028
29423SOL    HW292058   1.500   9.789   5.624 -0.1393 -0.7598 -0.4011
29424SOL     OW92059   1.894   2.510   9.747 -0.1716  0.2417  0.0011
29424SOL    HW192060   1.841   2.439   9.711 -0.6224  0.7062 -0.2658
29424SOL    HW292061   1.979   2.501   9.705  0.0863 -0.7324  0.7030
29425SOL     OW92062   9.879   7.203   2.487 -0.3494  0.1378 -0.8692
29425SOL    HW192063   9.933   7.163   2.419 -1.0945 -0.9266 -0.8502
29425SOL    HW292064   9.801   7.234   2.440 -0.5313  0.0571 -0.6240
29426SOL     OW92065   9.611   7.028   3.996 -0.0158  0.8415  0.4376
29426SOL    HW192066   9.574   7.055   4.080  0.6283 -1.7336  1.6643
29426SOL    HW292067   9.599   6.933   3.995  2.9576  0.3835 -0.8694
29427SOL     OW92068   0.112   7.645   7.516 -0.3826  0.3372  0.3260
29427SOL    HW192069   0.105   7.549   7.513  0.8020  0.1810  1.6965
29427SOL    HW292070   0.189   7.665   7.462 -0.8335  0.5646 -0.2466
29428SOL     OW92071   9.156   5.636   6.998 -0.3609 -0.0463  0.1195
29428SOL    HW192072   9.109   5.555   7.016  0.4465 -0.8563 -1.2714
29428SOL    HW292073   9.124   5.665   6.913  0.7681  0.0349 -0.2939
29429SOL     OW92074   2.810   2.383   0.628 -0.4465  0.6122  0.0867
29429SOL    HW192075   2.835   2.456   0.571 -0.0762  2.2062  2.1823
29429SOL    HW292076   2.733   2.415   0.676  0.0432 -0.1621  1.4292
29430SOL     OW92077   6.459   5.840   9.679 -0.1279 -0.1247  0.3476
29430SOL    HW192078   6.465   5.769   9.744  1.0302  0.6480  1.1166
29430SOL    HW292079   6.493   5.801   9.599  1.8103 -0.0737  1.1052
29431SOL     OW92080   6.184   8.857   7.364  0.7259 -0.1152  0.6379
29431SOL    HW192081   6.188   8.766   7.337  1.4441 -1.1268  3.6927
29431SOL    HW292082   6.109   8.893   7.318  0.3721 -2.2622 -0.5787
29432SOL     OW92083   4.723   4.861   2.365 -0.0373 -0.1998 -0.1441
29432SOL    HW192084   4.722   4.919   2.288 -1.8956 -2.1557 -1.7071
29432SOL    HW292085   4.758   4.778   2.332  0.7766 -0.5936  1.5877
29433SOL     OW92086   9.820   5.250   8.703 -0.0991 -0.1271 -0.1312
29433SOL    HW192087   9.902   5.260   8.655  0.2832 -1.9968  0.0489
29433SOL    HW292088   9.776   5.177   8.660 -1.3806  0.4358  0.1834
29434SOL     OW92089   8.209   0.439   3.341  0.1430  0.2583 -0.1422
29434SOL    HW192090   8.185   0.363   3.394  3.1875 -0.9413 -0.2886
29434SOL    HW292091   8.303   0.431   3.328  0.2009  2.8052 -2.2066
29435SOL     OW92092   2.297   5.966   8.417  0.2421  0.2695  0.0218
29435SOL    HW192093   2.283   5.920   8.334 -0.6863  0.2316  0.1883
29435SOL    HW292094   2.349   5.905   8.469 -0.2332 -0.2462 -0.0880
29436SOL     OW92095   4.759   4.175   2.877  0.0301 -0.0687 -0.2445
29436SOL    HW192096   4.757   4.218   2.792 -0.5474  0.7837  0.1789
29436SOL    HW292097   4.742   4.083   2.859 -1.6645  0.3524 -0.9062
29437SOL     OW92098   7.332   1.983   7.135  0.1080  0.0179 -0.3127
29437SOL    HW192099   7.250   2.003   7.179  0.6498  1.0784  0.2729
29437SOL    HW292100   7.397   1.980   7.205  0.7042 -0.0104 -0.8508
29438SOL     OW92101   4.869   0.322   8.124 -0.0362 -0.1191 -0.5009
29438SOL    HW192102   4.905   0.352   8.208 -0.5415 -0.2889 -0.2168
29438SOL    HW292103   4.904   0.234   8.113  3.1762  1.2088 -2.3550
29439SOL     OW92104   2.898   9.388   1.361  0.3917  0.1109  0.6194
29439SOL    HW192105   2.956   9.349   1.426 -1.4645 -1.0731  1.6473
29439SOL    HW292106   2.815   9.401   1.407 -0.3813  1.1179 -0.9688
29440SOL     OW92107   6.915   7.172   3.401  0.0578 -0.1683 -0.5508
29440SOL    HW192108   6.986   7.127   3.356 -0.7277 -0.8288 -1.1689
29440SOL    HW292109   6.882   7.235   3.336 -0.0256  0.0255 -0.3229
29441SOL     OW92110   1.481   9.938   7.775 -0.5840 -0.1313  0.0707
29441SOL    HW192111   1.476   9.905   7.865  1.2329 -1.9977 -0.4208
29441SOL    HW292112   1.437   9.871   7.723 -2.9861  1.6585 -0.3812
29442SOL     OW92113   1.880   9.318   6.214 -0.1460  0.4749  0.2272
29442SOL    HW192114   1.885   9.302   6.119 -1.8120  1.2271 -0.0210
29442SOL    HW292115   1.879   9.231   6.253  1.1212  0.1661 -0.4041
29443SOL     OW92116   1.069   9.471   2.618  0.5384 -0.3000 -0.1068
29443SOL    HW192117   1.083   9.394   2.562  0.4409 -0.3675 -0.0405
29443SOL    HW292118   1.063   9.544   2.557 -1.8725 -0.6543 -0.4087
29444SOL     OW92119   1.850   7.693   6.014 -0.2586  0.2068  0.4403
29444SOL    HW192120   1.756   7.708   6.012 -0.1161  1.6381  2.0759
29444SOL    HW292121   1.886   7.758   5.953 -0.3187 -0.4908 -0.3584
29445SOL     OW92122   0.136   9.504   1.805  0.4605 -0.2805  0.0698
29445SOL    HW192123   0.152   9.579   1.748 -0.0747  0.2834  0.6454
29445SOL    HW292124   0.165   9.429   1.754  2.4386  0.4390  0.0459
29446SOL     OW92125   2.264   6.223   3.056  0.0100  0.3827  0.3217
29446SOL    HW192126   2.179   6.268   3.062 -0.2944  0.1878 -1.7804
29446SOL    HW292127   2.322   6.288   3.017  0.6992  0.3188  1.2171
29447SOL     OW92128   0.146   9.864   1.164  0.3239  0.7274 -0.0736
29447SOL    HW192129   0.073   9.802   1.173  1.4262 -0.6065 -0.1532
29447SOL    HW292130   0.103   9.949   1.155 -1.2103  0.1071  0.9008
29448SOL     OW92131   1.814   4.037   3.903  0.1846  0.0160 -0.3867
29448SOL    HW192132   1.769   4.095   3.965 -0.2340  0.3483 -0.9880
29448SOL    HW292133   1.894   4.085   3.881 -0.1209  0.3381 -0.8191
29449SOL     OW92134   8.900   1.678   4.805 -0.1229  0.1940  0.0490
29449SOL    HW192135   8.871   1.766   4.830  1.1208  0.2298  1.5013
29449SOL    HW292136   8.935   1.640   4.885  0.3112 -1.2544 -0.7835
29450SOL     OW92137   5.621   4.789   6.081 -0.7551  0.4762  0.2098
29450SOL    HW192138   5.573   4.707   6.069 -0.2202  0.0070  1.1825
29450SOL    HW292139   5.604   4.814   6.172 -0.8952  1.4347 -0.0726
29451SOL     OW92140   3.656   1.938   0.573 -0.1610 -0.0430  0.6389
29451SOL    HW192141   3.728   1.887   0.611 -0.1750  0.0937  0.8501
29451SOL    HW292142   3.685   1.958   0.484 -0.0132 -0.1364  0.6656
29452SOL     OW92143  10.086   5.524   4.331 -0.0749 -0.4313 -0.0466
29452SOL    HW192144  10.113   5.565   4.413  2.3824 -2.1909  0.1353
29452SOL    HW292145  10.137   5.569   4.264 -0.3501 -0.5485 -0.3378
29453SOL     OW92146   7.089   6.087   0.609  0.4062 -0.2175 -0.2333
29453SOL    HW192147   7.040   6.116   0.532  1.8822  0.3782 -0.9896
29453SOL    HW292148   7.153   6.024   0.574  1.1619  0.1322  0.4863
29454SOL     OW92149   1.048   9.589   5.632  0.1871  0.2881  0.5177
29454SOL    HW192150   0.989   9.664   5.632  1.2039  1.1315  1.8029
29454SOL    HW292151   1.086   9.588   5.720  1.2827 -0.8622  0.0647
29455SOL     OW92152   9.784   8.865  10.173  0.1527  0.1787  0.9898
29455SOL    HW192153   9.706   8.814  10.150  0.5157 -0.9199  2.0809
29455SOL    HW292154   9.769   8.891  10.264  0.7936  0.4741  1.0104
29456SOL     OW92155   3.458   4.847   2.868 -0.3070 -0.4118  0.1573
29456SOL    HW192156   3.367   4.869   2.885  0.0781  3.8324 -1.9936
29456SOL    HW292157   3.509   4.904   2.926  1.0587 -2.1440  0.7676
29457SOL     OW92158   1.465   0.232   0.445  0.0864 -0.4264  0.3313
29457SOL    HW192159   1.545   0.254   0.396  0.6819 -0.4241  1.2768
29457SOL    HW292160   1.399   0.292   0.412  0.4856 -0.4013 -0.4395
29458SOL     OW92161   4.963   9.398   2.948  0.1681 -0.1016 -0.0842
29458SOL    HW192162   5.020   9.473   2.964 -0.4416  0.2197  0.6653
29458SOL    HW292163   4.984   9.336   3.018  0.5355 -0.5669 -0.5905
29459SOL     OW92164   2.200  10.356   2.614 -0.1146 -0.2117  0.0100
29459SOL    HW192165   2.264  10.367   2.684 -0.2114  1.2515 -0.1110
29459SOL    HW292166   2.129  10.415   2.636  0.5808  1.5454 -2.1248
29460SOL     OW92167  10.048   2.601   9.246 -0.1595 -0.1654 -0.3819
29460SOL    HW192168  10.068   2.560   9.331 -2.7049 -0.7289  0.0411
29460SOL    HW292169   9.963   2.565   9.223 -0.2250  1.1996 -2.4449
29461SOL     OW92170   0.956   3.230  10.102  0.3706  0.0298 -0.1417
29461SOL    HW192171   1.021   3.218  10.032 -1.4102  0.5577 -1.9793
29461SOL    HW292172   1.002   3.282  10.169  1.8377  0.4119 -1.3909
29462SOL     OW92173   6.205   1.919   2.362 -0.3767  0.3714 -0.1037
29462SOL    HW192174   6.150   1.992   2.388  1.6099  1.7718  0.4193
29462SOL    HW292175   6.275   1.959   2.311  0.7478 -1.1647  0.1622
29463SOL     OW92176   1.210   7.433   8.001 -0.7439  1.0594  0.0951
29463SOL    HW192177   1.161   7.503   7.957 -0.6361  1.8018  1.1176
29463SOL    HW292178   1.282   7.479   8.046 -0.0361  0.1652 -0.0919
29464SOL     OW92179   7.940   8.314   9.810 -0.2801 -0.0368 -0.1684
29464SOL    HW192180   7.942   8.396   9.761 -2.0272 -1.1373 -2.2220
29464SOL    HW292181   7.861   8.321   9.865  0.7869  0.5226  1.3508
29465SOL     OW92182   9.191   3.079   2.532 -0.2661  0.2088 -0.2189
29465SOL    HW192183   9.238   3.153   2.493  2.0760 -0.1714  1.6213
29465SOL    HW292184   9.232   3.002   2.493  0.4792 -0.1363  1.2062
29466SOL     OW92185   8.692   6.013   0.134  0.1126  0.3652 -0.2115
29466SOL    HW192186   8.681   6.020   0.039 -0.6072  1.2868 -0.0718
29466SOL    HW292187   8.604   5.997   0.168  0.3341  0.2300  0.3177
29467SOL     OW92188   2.517   0.222   8.304  0.3871  0.2262 -0.2890
29467SOL    HW192189   2.433   0.250   8.341  0.8504  0.7018  0.4227
29467SOL    HW292190   2.533   0.282   8.231 -0.2798 -0.3899 -0.9672
29468SOL     OW92191   9.564   5.516   1.844 -0.4555  0.3127 -0.2186
29468SOL    HW192192   9.479   5.532   1.802 -1.8433 -1.1257  1.8348
29468SOL    HW292193   9.556   5.556   1.931  1.9682  2.3577 -0.8112
29469SOL     OW92194   6.399   4.874   0.075  0.5534 -0.8179  0.2677
29469SOL    HW192195   6.338   4.918   0.016  0.3668  1.0252  1.7306
29469SOL    HW292196   6.481   4.924   0.066  1.2151 -1.9293 -0.0855
29470SOL     OW92197   1.778   3.904   2.756  0.2195 -0.2114 -0.2987
29470SOL    HW192198   1.752   3.960   2.683  0.9936  0.5841  0.0107
29470SOL    HW292199   1.874   3.914   2.760  0.1229  0.2990  1.2410
29471SOL     OW92200   3.684   6.936   2.719 -0.0949  0.1418  0.3026
29471SOL    HW192201   3.600   6.978   2.701 -0.2000 -0.0716  0.2892
29471SOL    HW292202   3.664   6.871   2.786 -0.1257 -0.5709 -0.3881
29472SOL     OW92203   4.226   1.149   5.389  0.0571  0.8244  0.2798
29472SOL    HW192204   4.259   1.063   5.416  2.1999  1.5875  0.2930
29472SOL    HW292205   4.183   1.183   5.467  0.2638  0.2636  0.6483
29473SOL     OW92206   6.329   1.560   6.211 -0.3926 -0.1125  0.0914
29473SOL    HW192207   6.376   1.506   6.274 -0.0053 -0.5615 -0.5662
29473SOL    HW292208   6.391   1.572   6.139 -1.0830 -0.2274 -0.5373
29474SOL     OW92209   0.222   0.018   4.188  0.4427 -0.7504  0.5586
29474SOL    HW192210   0.235   0.084   4.120  2.1913 -0.8341  0.7517
29474SOL    HW292211   0.173  -0.052   4.146 -1.7618  0.7566  0.4356
29475SOL     OW92212   6.769  10.318   9.577 -0.8198 -0.7404  0.2267
29475SOL    HW192213   6.794  10.254   9.643 -0.3437 -0.3256  0.4571
29475SOL    HW292214   6.767  10.402   9.625 -0.5222 -0.4466 -0.2646
29476SOL     OW92215   5.711   4.389   9.894  0.1136 -0.0390  0.7720
29476SOL    HW192216   5.664   4.311   9.863  1.6569 -0.2294 -1.2771
29476SOL    HW292217   5.737   4.367   9.984  0.8507 -2.0676  0.1082
29477SOL     OW92218   8.083   3.376   8.859  0.0688 -0.4556 -0.4118
29477SOL    HW192219   8.117   3.445   8.801 -0.6269  1.8364  1.7324
29477SOL    HW292220   8.161   3.332   8.892  0.7307  1.0145  0.0935
29478SOL     OW92221   7.281   0.270   6.839  0.1990 -0.1654 -0.0601
29478SOL    HW192222   7.263   0.275   6.745 -0.8668  1.1411  0.1869
29478SOL    HW292223   7.369   0.306   6.848  1.0688 -1.9561 -0.7154
29479SOL     OW92224   4.845   0.268   3.248 -0.1725  0.4200 -0.0636
29479SOL    HW192225   4.842   0.325   3.171 -0.1839 -0.7335 -0.9518
29479SOL    HW292226   4.919   0.209   3.232 -0.2969  0.0341  0.7148
29480SOL     OW92227   0.196   8.216  10.261  0.0776 -0.2980  0.1458
29480SOL    HW192228   0.188   8.156  10.335  0.5384 -1.1805 -0.4982
29480SOL    HW292229   0.283   8.255  10.271  0.0013 -0.1584  0.2622
29481SOL     OW92230   9.021   4.713   2.810 -0.4194 -1.0648  0.1238
29481SOL    HW192231   8.939   4.692   2.765 -0.0615 -1.3274 -0.4186
29481SOL    HW292232   9.087   4.714   2.740 -0.0803 -0.1504  0.4407
29482SOL     OW92233   1.961   2.080   6.924 -0.1187  0.5484  0.0312
29482SOL    HW192234   1.896   2.010   6.916  0.8681 -0.7854  2.6814
29482SOL    HW292235   2.043   2.041   6.893 -0.1068  1.5809 -1.3712
29483SOL     OW92236   0.446   7.441   2.144  0.2066  0.1222  0.5515
29483SOL    HW192237   0.492   7.522   2.169  1.1846 -0.4280  0.5767
29483SOL    HW292238   0.357   7.454   2.177 -0.3613  2.1949 -1.5366
29484SOL     OW92239   0.864   4.768   4.187 -0.4070  0.8229  0.5212
29484SOL    HW192240   0.815   4.850   4.187 -0.4088  0.8218  0.5304
29484SOL    HW292241   0.860   4.737   4.097  1.0375  1.6834  0.1260
29485SOL     OW92242   8.804   8.079   4.449  0.1377 -0.8114 -0.7204
29485SOL    HW192243   8.839   7.992   4.469  2.6974  0.4138  0.6001
29485SOL    HW292244   8.758   8.105   4.529  1.0507 -0.2040 -0.3817
29486SOL     OW92245   6.184   4.731   9.843  0.6950 -0.4363  0.0398
29486SOL    HW192246   6.234   4.757   9.920 -0.5918 -0.2444  0.8312
29486SOL    HW292247   6.106   4.688   9.877 -1.2431  1.9727 -0.9876
29487SOL     OW92248   8.563   3.043   3.370  0.0993 -0.2472  0.3240
29487SOL    HW192249   8.655   3.026   3.389  0.5836 -1.0230 -2.2718
29487SOL    HW292250   8.524   2.956   3.361 -0.1617  0.0087 -1.4577
29488SOL     OW92251   4.984   4.075   4.561 -0.2308 -0.3495  0.0796
29488SOL    HW192252   5.036   4.027   4.496 -0.1257 -1.2987  0.8484
29488SOL    HW292253   4.924   4.128   4.508  0.3823 -0.5042 -0.8015
29489SOL     OW92254   0.207   9.150   8.386 -0.0689 -0.3662  0.2598
29489SOL    HW192255   0.172   9.202   8.314 -1.7209 -0.4974  0.9390
29489SOL    HW292256   0.222   9.063   8.348  0.2387 -0.1104 -0.2186
29490SOL     OW92257   0.433   3.557   2.844 -0.1430 -0.1796  0.3949
29490SOL    HW192258   0.345   3.569   2.809 -0.1866 -1.2904  0.1107
29490SOL    HW292259   0.490   3.603   2.782 -0.3428 -1.0866 -0.4918
29491SOL     OW92260   1.364   4.792   9.974 -0.1507 -0.2689 -0.0487
29491SOL    HW192261   1.283   4.743   9.991 -0.2830  0.2477  0.8848
29491SOL    HW292262   1.371   4.853  10.047  0.5467  0.4107 -0.6620
29492SOL     OW92263   6.036  10.317   4.310 -0.0548 -0.4715  0.9938
29492SOL    HW192264   5.997  10.272   4.386 -1.7581  0.5381  0.7563
29492SOL    HW292265   6.005  10.407   4.318 -1.6083 -0.6717 -1.7365
29493SOL     OW92266   5.216   2.089   8.058 -0.1105  0.1440  0.2841
29493SOL    HW192267   5.132   2.116   8.094 -0.3541  0.5165 -0.5473
29493SOL    HW292268   5.224   2.136   7.976  0.4544 -0.6531 -0.1406
29494SOL     OW92269  10.290   6.421   0.428  0.2178 -0.7711 -0.2506
29494SOL    HW192270  10.256   6.333   0.415  0.6725 -0.9442 -0.2975
29494SOL    HW292271  10.222   6.466   0.477  1.0030 -1.9041  2.0335
29495SOL     OW92272   1.137   9.000  10.153 -0.2511 -0.2910  0.4536
29495SOL    HW192273   1.122   8.959  10.068  1.0952 -0.1953  0.1413
29495SOL    HW292274   1.231   9.020  10.154 -0.0894 -0.9211  2.2465
29496SOL     OW92275   2.227   5.145   3.473  0.0957  0.1309 -0.4600
29496SOL    HW192276   2.132   5.138   3.487  0.2124 -2.1965 -0.4129
29496SOL    HW292277   2.254   5.057   3.449  2.0796  1.0304 -1.7983
29497SOL     OW92278   6.705   6.645   1.986 -0.1007  0.7978  0.4636
29497SOL    HW192279   6.658   6.574   2.028  1.2743  0.0996  0.9026
29497SOL    HW292280   6.703   6.623   1.893 -0.9712  0.9900  0.4364
29498SOL     OW92281   4.956   4.214   2.588 -0.2603 -0.4695  0.0841
29498SOL    HW192282   4.945   4.308   2.605  1.7886  0.3146 -2.2200
29498SOL    HW292283   4.881   4.190   2.534 -1.5297 -0.5683  1.8043
29499SOL     OW92284   5.374   6.384   5.735 -0.4754 -0.4560 -0.1639
29499SOL    HW192285   5.405   6.314   5.679 -1.8755 -0.2824 -1.2196
29499SOL    HW292286   5.344   6.340   5.815 -2.0914 -1.2135 -1.1309
29500SOL     OW92287   9.231  10.143   0.576 -0.0009 -0.0307 -0.3873
29500SOL    HW192288   9.273  10.174   0.656  0.2196  0.4800 -0.7003
29500SOL    HW292289   9.137  10.160   0.591  0.1784  1.6391 -0.8983
29501SOL     OW92290   9.935   3.073   2.378 -0.2752  0.3897  0.1041
29501SOL    HW192291   9.975   3.149   2.336 -1.4524 -0.1475 -2.1716
29501SOL    HW292292   9.841   3.093   2.380 -0.7217 -1.2878 -1.3472
29502SOL     OW92293   8.650   1.180   9.604 -0.3155 -0.2321  0.0529
29502SOL    HW192294   8.648   1.097   9.652  0.1240  0.0194  0.5231
29502SOL    HW292295   8.640   1.155   9.512 -1.3041 -0.7085  0.2871
29503SOL     OW92296   2.033   0.298   8.353 -0.1910 -0.1135  0.7223
29503SOL    HW192297   1.971   0.283   8.282  0.4891 -0.5440  0.2130
29503SOL    HW292298   2.066   0.387   8.337  0.3692 -0.4138  0.1744
29504SOL     OW92299   6.533   3.608   8.855 -0.4591 -0.1794  0.1477
29504SOL    HW192300   6.563   3.598   8.764 -1.3433  2.2171 -0.4925
29504SOL    HW292301   6.576   3.688   8.885 -0.5227 -0.7146  1.7124
29505SOL     OW92302   9.351   1.115   1.794  0.2852  0.6578 -0.1276
29505SOL    HW192303   9.323   1.186   1.851  0.3141  0.6499 -0.1043
29505SOL    HW292304   9.442   1.098   1.818  0.3232  0.7096 -0.2305
29506SOL     OW92305   7.106   7.923   4.341 -0.5392  0.8051 -0.1214
29506SOL    HW192306   7.035   7.938   4.403 -0.2452 -0.9089  0.6909
29506SOL    HW292307   7.148   7.842   4.371  1.0515  1.1541 -1.2405
29507SOL     OW92308   9.273   8.921   7.011 -0.0663  0.2091  0.2384
29507SOL    HW192309   9.304   8.901   6.922 -1.4096  1.0938 -0.4599
29507SOL    HW292310   9.220   9.000   7.001  2.2795  2.2451  2.3434
29508SOL     OW92311   5.752   9.779   9.655  0.3365  1.0913 -0.2372
29508SOL    HW192312   5.758   9.830   9.575 -0.0178  0.8744 -0.4004
29508SOL    HW292313   5.800   9.831   9.720 -1.3999  2.4435  0.0246
29509SOL     OW92314   5.563   7.566   8.969  0.2086  0.6488 -0.6118
29509SOL    HW192315   5.522   7.541   9.052 -0.7748  1.4732 -0.8376
29509SOL    HW292316   5.495   7.551   8.904  1.0023 -0.0661 -1.2992
29510SOL     OW92317   5.560  10.171   2.232 -0.5319 -0.0313 -0.0178
29510SOL    HW192318   5.655  10.177   2.246 -0.3910 -1.4786 -0.2183
29510SOL    HW292319   5.524  10.157   2.319 -0.3888 -1.1120 -0.1147
29511SOL     OW92320   6.070   4.109   0.227 -0.1518 -0.0316 -0.3627
29511SOL    HW192321   6.009   4.157   0.283 -0.3356  1.3742 -1.7178
29511SOL    HW292322   6.110   4.175   0.171 -0.9759 -1.4989 -2.8559
29512SOL     OW92323   7.692   3.825   6.498 -0.4443 -0.1072  0.7443
29512SOL    HW192324   7.690   3.738   6.457 -0.2945 -0.2588  1.0570
29512SOL    HW292325   7.663   3.810   6.588 -1.8805  0.3978  0.4047
29513SOL     OW92326   9.002   7.604   5.499  0.2607  0.1139  0.9478
29513SOL    HW192327   9.090   7.568   5.490  0.0117 -0.2528 -0.2130
29513SOL    HW292328   8.962   7.590   5.413 -1.8329 -2.1189  2.1982
29514SOL     OW92329   2.946   4.332   8.171  0.0651 -0.1270  0.1439
29514SOL    HW192330   3.020   4.301   8.224  0.3145  1.4179  0.7645
29514SOL    HW292331   2.937   4.267   8.102  0.3689 -1.6988  1.5173
29515SOL     OW92332   6.229   3.705   1.806  0.6108 -0.3711 -0.6980
29515SOL    HW192333   6.184   3.789   1.801 -0.7724 -1.0755 -0.6295
29515SOL    HW292334   6.314   3.726   1.845  0.7943  1.1610 -1.8327
29516SOL     OW92335   8.246   6.875   3.946  0.4226  0.0080  0.3492
29516SOL    HW192336   8.172   6.890   3.887 -0.0097  1.0656  1.1368
29516SOL    HW292337   8.237   6.942   4.013  1.8507 -0.1299  0.7057
29517SOL     OW92338   3.159   2.443   7.346  0.2446 -0.4100 -0.3241
29517SOL    HW192339   3.177   2.350   7.356  0.0682 -0.4824 -0.6772
29517SOL    HW292340   3.071   2.447   7.308 -0.2448 -0.0749  0.7795
29518SOL     OW92341   6.414   2.825   7.674  0.0939  0.5753 -0.5131
29518SOL    HW192342   6.441   2.763   7.743  0.5235  0.0018 -1.1892
29518SOL    HW292343   6.355   2.774   7.618 -0.8919  1.2718 -0.1325
29519SOL     OW92344   2.134   7.032   1.982  0.2544  0.1757  0.1991
29519SOL    HW192345   2.118   7.028   2.076  0.1611 -2.3456  0.1368
29519SOL    HW292346   2.202   6.966   1.966  3.0703  3.0751 -1.0566
29520SOL     OW92347   3.104   6.508   4.725  0.2363  0.0861  0.6338
29520SOL    HW192348   3.037   6.520   4.657  1.1928 -0.3876 -0.4344
29520SOL    HW292349   3.073   6.560   4.799 -2.3490 -1.7066  0.9557
29521SOL     OW92350   4.600   1.735   7.037 -0.2256 -0.1910 -0.0858
29521SOL    HW192351   4.568   1.675   7.104 -2.0198 -0.7839 -1.3846
29521SOL    HW292352   4.554   1.817   7.053 -1.9943 -0.8379 -1.5419
29522SOL     OW92353   6.537   0.041   3.110 -0.1812  0.1172  0.4746
29522SOL    HW192354   6.448   0.052   3.144 -1.1442 -1.3797 -1.3043
29522SOL    HW292355   6.571  -0.035   3.156 -0.2748  0.0025  0.3571
29523SOL     OW92356  10.358   2.751  10.252  0.0674 -0.6408  0.1156
29523SOL    HW192357  10.302   2.700  10.311 -0.6148 -0.4930 -0.3818
29523SOL    HW292358  10.313   2.745  10.167  0.5775 -0.1406 -0.1907
29524SOL     OW92359   3.377   3.668   5.852 -0.5087  0.3258 -0.5463
29524SOL    HW192360   3.326   3.611   5.794 -0.6172 -0.2809  0.1277
29524SOL    HW292361   3.312   3.723   5.894 -0.9159 -1.7680  1.7952
29525SOL     OW92362   0.121   9.324   5.648 -0.1205  0.1061  0.0995
29525SOL    HW192363   0.068   9.370   5.583  0.9512  0.2738 -0.6714
29525SOL    HW292364   0.201   9.376   5.655 -0.3594  0.2975  1.8387
29526SOL     OW92365   2.103   4.044   6.380 -0.0181 -0.3608 -0.5268
29526SOL    HW192366   2.066   3.980   6.440 -0.9266 -0.3454 -1.0469
29526SOL    HW292367   2.144   4.109   6.436 -2.1073  0.4316  0.1874
29527SOL     OW92368  10.129   2.117   3.435 -0.7011  0.5205  0.2783
29527SOL    HW192369  10.195   2.148   3.496 -0.3031 -0.3195  0.2885
29527SOL    HW292370  10.160   2.031   3.407 -0.5928  1.1046 -1.5302
29528SOL     OW92371   9.745   9.492   9.368  0.0245 -0.7248  0.1011
29528SOL    HW192372   9.763   9.467   9.277  1.2244  0.3136  0.0259
29528SOL    HW292373   9.715   9.411   9.409  1.1462 -1.6359 -0.7880
29529SOL     OW92374   2.143   0.336   6.624 -0.5871 -0.0349 -0.5543
29529SOL    HW192375   2.181   0.338   6.711  0.9825  0.6162 -1.2215
29529SOL    HW292376   2.050   0.355   6.638 -0.7178 -1.5728  1.1140
29530SOL     OW92377   3.935   6.727   4.389  0.3159  0.0665  0.3366
29530SOL    HW192378   3.868   6.747   4.455  0.1874 -0.6287  0.4291
29530SOL    HW292379   3.887   6.726   4.306  0.4597  0.8488  0.2425
29531SOL     OW92380   4.766   1.255   6.086 -0.2797  0.3274 -0.1546
29531SOL    HW192381   4.685   1.256   6.035  1.0467  0.3234 -2.4127
29531SOL    HW292382   4.806   1.341   6.069  0.7002 -0.0825  0.0255
29532SOL     OW92383   3.796   5.797   0.511 -0.0252  0.5619 -0.3155
29532SOL    HW192384   3.771   5.888   0.526  0.6372  0.6193  0.4727
29532SOL    HW292385   3.864   5.779   0.576  2.1515  0.4646 -2.4954
29533SOL     OW92386   4.015   0.413   9.185  0.4441 -0.4267 -0.7524
29533SOL    HW192387   3.928   0.399   9.146  0.4884  0.4477 -1.1765
29533SOL    HW292388   4.012   0.502   9.220  1.1358 -0.4276 -0.6794
29534SOL     OW92389   9.202   5.694   1.026 -0.4078 -0.3095 -0.2126
29534SOL    HW192390   9.161   5.713   1.111 -0.4473  1.0441 -0.5009
29534SOL    HW292391   9.152   5.748   0.964  0.6674 -0.0126 -0.8393
29535SOL     OW92392   6.497   6.455   0.320  0.0706 -0.1229  0.5754
29535SOL    HW192393   6.583   6.487   0.346  1.0930 -1.6489 -0.7178
29535SOL    HW292394   6.482   6.379   0.376  0.3535 -0.8493 -0.3001
29536SOL     OW92395   1.924   7.986   3.380  0.1137  0.0923 -0.3423
29536SOL    HW192396   1.902   7.915   3.440 -0.0653  0.0648 -0.4407
29536SOL    HW292397   2.019   7.995   3.387 -0.0790  1.2599  1.2872
29537SOL     OW92398   5.534   9.582   9.073 -0.4689 -0.1058 -0.3546
29537SOL    HW192399   5.455   9.633   9.056  0.3070  1.0892 -0.5203
29537SOL    HW292400   5.545   9.584   9.168 -0.3344  0.2112 -0.3757
29538SOL     OW92401   2.026   9.917   1.267  0.2987  0.2415 -0.4583
29538SOL    HW192402   2.120   9.920   1.250  0.1622 -1.2604 -1.6936
29538SOL    HW292403   2.017   9.856   1.340  0.2284 -0.3182 -0.9294
29539SOL     OW92404   2.897   2.177   7.341 -0.0683 -0.1192  0.6622
29539SOL    HW192405   2.821   2.120   7.328 -1.1498  1.6164 -1.2403
29539SOL    HW292406   2.889   2.208   7.431 -1.1852 -0.5796  0.7393
29540SOL     OW92407   3.814   8.299   7.088 -0.8228  0.3712  0.0631
29540SOL    HW192408   3.813   8.208   7.116  2.5384 -0.1750 -1.0950
29540SOL    HW292409   3.776   8.298   7.001  0.4419 -0.2355 -0.5110
29541SOL     OW92410   7.307   5.539   3.462 -0.8426  0.6024 -0.0214
29541SOL    HW192411   7.294   5.447   3.487 -1.5720  0.1812 -1.8240
29541SOL    HW292412   7.287   5.542   3.368  2.5911  1.9107 -0.8623
29542SOL     OW92413   8.595   8.005   9.058  0.2191 -0.3886 -0.5839
29542SOL    HW192414   8.552   7.927   9.023  0.3799 -0.4015 -0.7518
29542SOL    HW292415   8.575   8.003   9.151 -0.0313 -0.4671 -0.6387
29543SOL     OW92416   3.997   5.433   9.854 -0.4195 -0.6021  0.4193
29543SOL    HW192417   3.938   5.460   9.783  1.0062 -1.1858 -1.0600
29543SOL    HW292418   4.006   5.339   9.842  1.5206 -0.3957 -0.0012
29544SOL     OW92419   9.776   3.421   5.050 -0.0958  0.7033  0.1938
29544SOL    HW192420   9.759   3.329   5.069  1.0425  0.1947 -1.1168
29544SOL    HW292421   9.701   3.467   5.088 -1.6236 -0.9367 -0.6843
29545SOL     OW92422   6.548  10.257   0.163 -0.1485 -0.2839 -0.1060
29545SOL    HW192423   6.598  10.330   0.128  1.1417 -0.8559  0.4680
29545SOL    HW292424   6.457  10.282   0.150  0.2537  1.4804  0.1747
29546SOL     OW92425   0.793   2.066   1.801 -0.4238  0.0277 -0.5016
29546SOL    HW192426   0.781   2.009   1.725 -1.1731 -0.7325  0.1616
29546SOL    HW292427   0.709   2.109   1.812  0.2976  1.7430 -1.3318
29547SOL     OW92428  10.074   1.219  10.309 -0.0485  0.0904 -0.1061
29547SOL    HW192429  10.118   1.136  10.327  0.9752  0.3918 -1.0541
29547SOL    HW292430  10.040   1.209  10.220  1.5917  1.2643 -0.9183
29548SOL     OW92431   0.711   3.240   8.580  0.2471  0.2271  0.4433
29548SOL    HW192432   0.782   3.290   8.540  1.2235 -1.8223 -0.5298
29548SOL    HW292433   0.637   3.254   8.522  0.8002 -0.2338 -0.3987
29549SOL     OW92434  10.122   0.878   8.672  0.2720 -1.0415 -0.2122
29549SOL    HW192435  10.093   0.789   8.649  0.2774 -0.8893 -0.8492
29549SOL    HW292436  10.087   0.933   8.601 -0.6946 -0.3585  0.7510
29550SOL     OW92437   3.876   9.243   2.792  0.2846  0.2741  0.0801
29550SOL    HW192438   3.864   9.287   2.876  1.0939  0.2302  0.2278
29550SOL    HW292439   3.969   9.254   2.772  0.5393 -1.4256  0.1511
29551SOL     OW92440   7.549   9.474   4.645 -0.3297  0.3152 -0.3210
29551SOL    HW192441   7.478   9.467   4.581 -1.9422  1.7812  1.1876
29551SOL    HW292442   7.593   9.556   4.622  0.1815 -0.0216 -0.5641
29552SOL     OW92443   0.915   9.484   0.736 -0.2290  0.2771 -0.2595
29552SOL    HW192444   0.847   9.516   0.795 -0.3160 -0.6777  0.1705
29552SOL    HW292445   0.974   9.559   0.725  1.0476 -0.1535  2.8384
29553SOL     OW92446   2.484   2.095   3.137  0.2355 -0.1423  0.1644
29553SOL    HW192447   2.523   2.166   3.188  0.7916  0.4500 -1.0319
29553SOL    HW292448   2.442   2.139   3.063 -0.6608 -0.9623  0.1688
29554SOL     OW92449   2.111   9.359   2.961  0.2411 -0.0062  0.3189
29554SOL    HW192450   2.143   9.334   3.047 -0.1860 -0.7421  0.2688
29554SOL    HW292451   2.159   9.304   2.900  1.5834  1.4936 -0.0451
29555SOL     OW92452   4.257   2.998   8.040  0.0685  0.2118  0.5188
29555SOL    HW192453   4.167   2.972   8.058  0.0626 -0.5521 -0.5643
29555SOL    HW292454   4.309   2.919   8.055 -0.0408 -0.8595 -3.5517
29556SOL     OW92455   5.875   9.639   6.355 -0.4788  0.2433 -0.3301
29556SOL    HW192456   5.830   9.698   6.294  1.3741  1.3787 -0.6644
29556SOL    HW292457   5.833   9.656   6.439 -0.8494  1.0883 -0.6678
29557SOL     OW92458   4.835   4.969   6.620 -0.3449 -0.5456 -0.0006
29557SOL    HW192459   4.788   4.896   6.580  0.8324 -1.1588 -0.2903
29557SOL    HW292460   4.895   4.999   6.552 -1.1333  1.0150 -0.0454
29558SOL     OW92461   0.726   8.497   6.452 -0.3773 -0.4535  0.3314
29558SOL    HW192462   0.642   8.451   6.448  0.6538 -2.5916  1.6268
29558SOL    HW292463   0.703   8.589   6.445 -2.8117 -0.9889  0.4008
29559SOL     OW92464   1.035   9.706   6.259 -0.2816  0.7974  0.1019
29559SOL    HW192465   1.123   9.669   6.255 -0.7423 -0.3499  0.2499
29559SOL    HW292466   0.985   9.658   6.194 -0.6501  1.9017 -0.4556
29560SOL     OW92467   0.686   8.261   8.184  0.2193 -0.0537 -0.0993
29560SOL    HW192468   0.680   8.259   8.089  4.4325  0.1558 -0.5675
29560SOL    HW292469   0.711   8.172   8.208  1.9674  0.5191  0.3931
29561SOL     OW92470   9.241   0.391   5.742 -0.1748  0.1001  0.3458
29561SOL    HW192471   9.285   0.475   5.732 -0.9843  0.5522  0.4527
29561SOL    HW292472   9.274   0.355   5.824  0.7222 -0.0260 -0.0678
29562SOL     OW92473   0.867   3.267   9.820  0.6846  0.2367  0.2013
29562SOL    HW192474   0.962   3.261   9.828  0.7850 -0.5080 -1.1953
29562SOL    HW292475   0.845   3.351   9.860  1.8097  0.0164  1.3677
29563SOL     OW92476   1.231   5.776   5.895  0.3319 -0.5570 -0.0489
29563SOL    HW192477   1.316   5.733   5.895 -0.4501 -2.1762 -0.4987
29563SOL    HW292478   1.208   5.785   5.987  0.4330 -1.2817  0.0488
29564SOL     OW92479   6.581   2.555   8.252  0.9403 -0.0348  0.0900
29564SOL    HW192480   6.517   2.524   8.317 -0.3045 -1.1412 -1.5788
29564SOL    HW292481   6.618   2.635   8.291  0.1391 -0.5633  2.0625
29565SOL     OW92482   0.136   3.245   3.304 -0.4710 -0.0177 -0.3373
29565SOL    HW192483   0.059   3.197   3.273  0.1644 -0.3477 -1.4733
29565SOL    HW292484   0.132   3.239   3.399 -1.3381 -0.8572 -0.4165
29566SOL     OW92485   3.276   1.334   7.508  0.1624 -0.6842  0.0992
29566SOL    HW192486   3.258   1.291   7.425  0.3049  1.6785 -1.2506
29566SOL    HW292487   3.328   1.411   7.485 -0.8382  0.7470  2.2232
29567SOL     OW92488   2.536   1.714   2.449 -0.0687 -0.4627  0.1676
29567SOL    HW192489   2.493   1.722   2.364  2.3239  0.3499 -1.0588
29567SOL    HW292490   2.506   1.792   2.497  0.1631  0.1919 -0.7194
29568SOL     OW92491   5.491   4.512   0.361 -0.1333 -0.9796 -0.4189
29568SOL    HW192492   5.433   4.512   0.284 -0.9981 -1.8584  0.1959
29568SOL    HW292493   5.446   4.456   0.424 -1.0271  2.1143  1.9306
29569SOL     OW92494   1.962   5.554   4.736  0.3072  0.0024  0.3387
29569SOL    HW192495   2.051   5.519   4.742  0.0792 -1.0501 -1.5805
29569SOL    HW292496   1.934   5.562   4.827  1.6712 -1.5021  0.9634
29570SOL     OW92497   1.847   8.470   4.483 -0.0473 -0.0063 -0.5415
29570SOL    HW192498   1.768   8.420   4.504  0.0413  0.5967  1.4689
29570SOL    HW292499   1.829   8.509   4.398 -2.5889  1.3362  0.5082
29571SOL     OW92500   6.670   9.218   3.737  0.9748 -0.1830  0.4201
29571SOL    HW192501   6.656   9.215   3.831  1.0755  1.9321  0.5534
29571SOL    HW292502   6.717   9.300   3.722 -1.2681  0.8679 -1.6771
29572SOL     OW92503   0.987   0.057   6.849  0.6716  0.7832  0.2447
29572SOL    HW192504   0.992  -0.007   6.920  2.4655 -0.1864 -0.6921
29572SOL    HW292505   0.895   0.055   6.822  0.0613  0.8148  2.1738
29573SOL     OW92506   1.167   8.497   7.714  0.6045 -0.3254 -0.8958
29573SOL    HW192507   1.179   8.423   7.773 -0.4843  1.1455  1.2957
29573SOL    HW292508   1.078   8.527   7.732 -0.4347 -0.7328 -4.4902
29574SOL     OW92509   4.916   8.377   1.698  0.4067  0.2641 -0.9599
29574SOL    HW192510   4.839   8.339   1.655 -0.6837  1.9253 -0.5785
29574SOL    HW292511   4.901   8.471   1.695  1.2705  0.5362  1.2935
29575SOL     OW92512   7.326  10.274   9.495 -0.3731  0.0153 -0.3594
29575SOL    HW192513   7.347  10.339   9.427 -1.2409 -1.0057 -1.6492
29575SOL    HW292514   7.240  10.300   9.527 -0.2280  0.1482 -0.0770
29576SOL     OW92515   8.396   6.023  10.111 -0.4986 -0.0860 -0.2607
29576SOL    HW192516   8.465   5.968  10.147 -1.2108 -1.0607 -0.3637
29576SOL    HW292517   8.374   6.083  10.182 -0.8290 -0.9858  0.4052
29577SOL     OW92518   2.125   8.405   0.462 -0.2034 -0.2735 -0.2191
29577SOL    HW192519   2.109   8.396   0.556  0.6232  0.6891  0.0351
29577SOL    HW292520   2.085   8.489   0.439  0.1179 -0.2200 -0.5908
29578SOL     OW92521   2.070   2.724   1.314  0.0596 -0.2250 -0.1211
29578SOL    HW192522   2.017   2.781   1.370  0.0180  0.6089 -0.9861
29578SOL    HW292523   2.157   2.726   1.353 -0.1887 -0.3851  0.4410
29579SOL     OW92524   7.168   2.475   9.773 -0.8958 -0.0450  0.3510
29579SOL    HW192525   7.108   2.500   9.844 -0.4800  1.2132  0.2678
29579SOL    HW292526   7.207   2.392   9.803  0.3156  1.1468  2.2627
29580SOL     OW92527   0.336   6.256   8.621  0.4250  0.2800  0.2604
29580SOL    HW192528   0.266   6.321   8.610  0.4553  0.9629  3.2007
29580SOL    HW292529   0.399   6.276   8.551 -0.0560  2.8052  0.4566
29581SOL     OW92530   5.361   3.836   8.431 -0.3156  0.2338  0.5021
29581SOL    HW192531   5.393   3.909   8.378 -0.6869  1.6936  2.1951
29581SOL    HW292532   5.429   3.769   8.423 -0.5283  0.2490 -2.0421
29582SOL     OW92533   8.430   9.467   5.870  0.1117  0.3172  0.0983
29582SOL    HW192534   8.424   9.372   5.856  0.2450  0.4773 -1.1373
29582SOL    HW292535   8.487   9.476   5.946  2.0026 -0.5545 -1.1347
29583SOL     OW92536   5.850  10.318   3.907  0.1832 -0.4522 -0.1266
29583SOL    HW192537   5.795  10.396   3.901  0.5183 -0.0967  1.1090
29583SOL    HW292538   5.883  10.305   3.818 -2.4147 -1.1053 -1.0961
29584SOL     OW92539   8.829   7.255   5.958 -0.4770 -0.1958 -0.3027
29584SOL    HW192540   8.816   7.296   5.873 -1.7275  0.9568  0.4117
29584SOL    HW292541   8.741   7.238   5.991 -0.0607  0.3788  1.2213
29585SOL     OW92542   8.674   6.962   1.071  0.2473  0.1082  0.4828
29585SOL    HW192543   8.669   6.996   0.982  0.6283 -1.2232 -0.0698
29585SOL    HW292544   8.723   7.028   1.120 -0.5525  1.1677 -0.1149
29586SOL     OW92545   3.410   4.191   6.519 -0.3452  0.5859 -0.7298
29586SOL    HW192546   3.447   4.280   6.523 -3.0137  1.8653 -1.7294
29586SOL    HW292547   3.442   4.148   6.598 -0.4122  3.0845  0.7729
29587SOL     OW92548   7.806   4.638   1.051  0.1030  0.3398  0.0617
29587SOL    HW192549   7.727   4.584   1.045 -0.7014  1.6493 -2.2222
29587SOL    HW292550   7.793   4.691   1.129 -0.9817  0.1050  0.0531
29588SOL     OW92551   9.329   0.131  10.175 -0.5027  0.5131 -0.3456
29588SOL    HW192552   9.271   0.068  10.131  0.3403 -1.1615  0.8128
29588SOL    HW292553   9.386   0.163  10.106 -0.8469 -0.1359 -0.9513
29589SOL     OW92554   1.665   3.439   9.693 -0.2720  0.5357  0.0035
29589SOL    HW192555   1.742   3.421   9.747  0.3797  2.3407 -0.2465
29589SOL    HW292556   1.664   3.369   9.628  1.2373  0.5332 -0.0450
29590SOL     OW92557   5.601   3.301   5.076 -0.1199 -0.2910  0.2858
29590SOL    HW192558   5.639   3.265   4.996 -0.2645  0.0368  0.0659
29590SOL    HW292559   5.513   3.264   5.081 -0.6557  0.8136 -0.4937
29591SOL     OW92560   6.440   4.573   9.341  0.4571 -0.0353  0.3375
29591SOL    HW192561   6.370   4.627   9.378 -1.4466 -0.7084 -2.0212
29591SOL    HW292562   6.407   4.484   9.348  1.8097 -0.5352  0.5838
29592SOL     OW92563   9.428   2.764   3.861 -0.2941  0.0777  0.0987
29592SOL    HW192564   9.425   2.710   3.782  0.3214 -0.3565  0.3630
29592SOL    HW292565   9.432   2.701   3.933 -0.0034  0.4725  0.4299
29593SOL     OW92566   6.732   9.754  10.015  0.1627 -0.3552 -0.2343
29593SOL    HW192567   6.778   9.737  10.097 -1.5097 -0.3458  0.7517
29593SOL    HW292568   6.746   9.847   9.999 -2.2634  0.5053  1.9324
29594SOL     OW92569   9.065   4.496   5.642  0.0167  0.1645  0.0845
29594SOL    HW192570   9.071   4.454   5.727 -0.7160  0.4327  0.2816
29594SOL    HW292571   9.060   4.590   5.662  1.2406  0.3287 -0.3282
29595SOL     OW92572   5.093   8.961   4.163  0.5623  0.1544 -0.5786
29595SOL    HW192573   5.127   8.875   4.137 -1.3921 -0.1124 -2.6237
29595SOL    HW292574   5.162   9.023   4.138  1.3123 -0.6803 -0.6324
29596SOL     OW92575   1.560   2.639   4.167 -0.1036  0.2623  0.4509
29596SOL    HW192576   1.467   2.615   4.168 -0.0457  0.0424  0.6883
29596SOL    HW292577   1.577   2.668   4.257  0.2335 -0.3933  0.6074
29597SOL     OW92578   7.547   9.288   7.660 -0.3467 -0.4587 -0.6401
29597SOL    HW192579   7.630   9.307   7.616 -0.0163 -1.1089 -0.3062
29597SOL    HW292580   7.539   9.193   7.657 -0.7536 -0.4496 -0.0760
29598SOL     OW92581   5.276   2.539   8.038 -0.3309 -0.2972 -0.6806
29598SOL    HW192582   5.370   2.524   8.054 -0.2822  1.6066  1.2211
29598SOL    HW292583   5.275   2.612   7.976 -0.4619  1.6402  1.4751
29599SOL     OW92584   3.184   0.568   4.532  0.2665 -0.2369  0.4401
29599SOL    HW192585   3.106   0.591   4.482  0.6752  1.1657  0.4074
29599SOL    HW292586   3.154   0.561   4.622  0.0871  0.2120  0.4146
29600SOL     OW92587   6.001   4.877   9.470  0.3570 -0.2172 -0.0093
29600SOL    HW192588   5.937   4.933   9.428  1.6612  1.4286  0.0821
29600SOL    HW292589   5.992   4.896   9.564  0.6821 -0.2928  0.0393
29601SOL     OW92590   2.527   5.505   9.669  0.0447 -0.3370  0.3437
29601SOL    HW192591   2.615   5.509   9.631  0.5785 -2.3067  1.2411
29601SOL    HW292592   2.517   5.415   9.699 -1.9882  0.0394  1.0042
29602SOL     OW92593   0.287   5.601   5.489 -0.1093 -0.4559 -0.3562
29602SOL    HW192594   0.335   5.566   5.564 -0.2404  0.4486  0.1631
29602SOL    HW292595   0.333   5.567   5.412  0.6065 -0.6070  0.1355
29603SOL     OW92596   4.360  10.241   3.261  0.9758  0.0843  0.6343
29603SOL    HW192597   4.315  10.313   3.306  2.0245  0.4723  1.1038
29603SOL    HW292598   4.316  10.235   3.176 -0.6409 -0.2619  1.4572
29604SOL     OW92599   1.498   8.010   0.828  0.1973 -0.3904 -0.7053
29604SOL    HW192600   1.549   7.934   0.856 -1.2964 -1.6327 -1.2311
29604SOL    HW292601   1.428   8.018   0.894  0.3403  0.5497 -0.6479
29605SOL     OW92602   5.358   0.325   9.663 -0.5505 -0.2445 -0.5036
29605SOL    HW192603   5.441   0.298   9.702 -0.6646  2.7232  2.2178
29605SOL    HW292604   5.291   0.295   9.725 -1.0508  1.4718 -0.1563
29606SOL     OW92605   3.092   1.343   5.448 -0.0816  0.0668 -0.0999
29606SOL    HW192606   3.012   1.310   5.407 -0.1970  0.6471 -0.3495
29606SOL    HW292607   3.102   1.290   5.527  0.2342 -1.1904 -0.9326
29607SOL     OW92608   8.815   2.004  10.118 -0.1622  0.2386 -0.0665
29607SOL    HW192609   8.764   1.982  10.040  0.0459  1.3972 -0.5462
29607SOL    HW292610   8.883   1.936  10.122 -0.3696 -0.0103 -0.6982
29608SOL     OW92611   0.447   0.493   2.610 -0.2269  0.2290 -0.3997
29608SOL    HW192612   0.521   0.513   2.667  0.1999 -2.3313  0.0553
29608SOL    HW292613   0.481   0.505   2.521  1.0060 -1.5261 -0.2202
29609SOL     OW92614   5.596   8.017   9.305 -0.6413 -0.1458  0.2822
29609SOL    HW192615   5.642   7.952   9.253  0.7139  1.2421 -0.3297
29609SOL    HW292616   5.523   7.969   9.346 -1.2687 -1.4515 -2.2055
29610SOL     OW92617   8.481   1.106   8.530 -0.4329  0.0573 -0.5523
29610SOL    HW192618   8.449   1.020   8.559 -2.2204  1.1757  1.0816
29610SOL    HW292619   8.576   1.096   8.527 -0.6051 -2.0800 -0.8307
29611SOL     OW92620   1.797   7.655   9.929  0.4511 -0.0932 -0.4988
29611SOL    HW192621   1.856   7.580   9.924  1.4493  0.7390 -2.3394
29611SOL    HW292622   1.754   7.658   9.843 -0.9405  0.3940  0.1768
29612SOL     OW92623   5.203   1.422   9.825  0.0581  0.9497  0.2584
29612SOL    HW192624   5.268   1.455   9.887 -0.6434 -1.0512  2.1929
29612SOL    HW292625   5.122   1.468   9.849 -0.0083  0.8589  0.2083
29613SOL     OW92626   4.121   2.340   9.177  0.1396  0.0359 -0.4651
29613SOL    HW192627   4.105   2.247   9.193  1.2462 -0.4304 -1.9466
29613SOL    HW292628   4.195   2.342   9.117 -1.1642  1.8137 -2.1224
29614SOL     OW92629   5.277   5.414   1.866  0.0225 -0.0217 -0.0376
29614SOL    HW192630   5.196   5.372   1.895  0.1702 -0.5272 -0.3419
29614SOL    HW292631   5.312   5.456   1.945  1.0717 -2.4360  0.8734
29615SOL     OW92632   6.546   1.351   1.644  0.1212 -0.0498  0.5176
29615SOL    HW192633   6.480   1.419   1.658  0.1003  0.0984 -0.2210
29615SOL    HW292634   6.625   1.386   1.683 -0.3110 -0.3794  1.7217
29616SOL     OW92635   9.100   4.159   1.571  0.6668 -0.1154 -0.3693
29616SOL    HW192636   9.057   4.222   1.629  0.4962  0.8479 -1.4968
29616SOL    HW292637   9.028   4.117   1.524  0.7946 -1.0141  0.2098
29617SOL     OW92638   2.118   4.041   5.402  0.1869  0.4004  0.0805
29617SOL    HW192639   2.063   4.056   5.326 -0.6348 -0.3025  0.5152
29617SOL    HW292640   2.167   3.961   5.382 -0.4325 -0.0966  0.4894
29618SOL     OW92641  10.163  10.303   2.299  0.2261  0.1457 -0.0648
29618SOL    HW192642  10.243  10.277   2.344  0.8003  0.6537 -0.7724
29618SOL    HW292643  10.188  10.381   2.249  0.0584 -1.3066 -2.5819
29619SOL     OW92644   0.620   6.265  10.360  0.3749  0.3127  0.1055
29619SOL    HW192645   0.592   6.236  10.446  2.0338  0.2088  0.6543
29619SOL    HW292646   0.708   6.228  10.350  0.3370  0.5831 -1.5013
29620SOL     OW92647   8.712   8.814   6.778 -0.8026 -0.2076  0.0991
29620SOL    HW192648   8.798   8.853   6.762 -0.8185  0.1055  0.7487
29620SOL    HW292649   8.680   8.791   6.691 -1.6550  3.0626 -0.5866
29621SOL     OW92650   8.752   8.828   6.351  0.5126 -0.6099 -0.0488
29621SOL    HW192651   8.723   8.794   6.266  0.0232 -0.2430 -0.0293
29621SOL    HW292652   8.843   8.854   6.336  0.0123  0.7485 -0.8475
29622SOL     OW92653   2.875   0.989   5.701 -0.2037 -0.3251 -0.3032
29622SOL    HW192654   2.870   0.929   5.626 -0.1313 -1.5854  0.6723
29622SOL    HW292655   2.796   1.043   5.694 -1.5584 -2.1384  0.0940
29623SOL     OW92656   9.070   4.379   8.472 -0.5988  0.5046 -0.0117
29623SOL    HW192657   9.023   4.310   8.519  0.1784  0.2530  0.4045
29623SOL    HW292658   9.026   4.383   8.387 -2.0621  1.0118  0.7278
29624SOL     OW92659   7.123   6.679   8.179  0.6379 -0.0883  0.2540
29624SOL    HW192660   7.052   6.632   8.223 -0.7334  1.0517 -0.6816
29624SOL    HW292661   7.130   6.637   8.093 -0.6674  1.4069 -0.6295
29625SOL     OW92662   9.429   0.161   7.975  0.0719 -0.2251 -0.1957
29625SOL    HW192663   9.399   0.250   7.956 -0.8731 -0.5577 -0.3518
29625SOL    HW292664   9.359   0.124   8.030 -0.0844 -1.2259 -1.0416
29626SOL     OW92665   6.261   2.037   0.304 -0.2029 -0.0406  0.3232
29626SOL    HW192666   6.182   2.091   0.295  0.0818  0.1729 -1.0428
29626SOL    HW292667   6.328   2.083   0.253  0.4099 -0.9740  0.2651
29627SOL     OW92668   5.922   3.141   4.260 -0.6184 -0.2611 -0.1305
29627SOL    HW192669   5.849   3.146   4.199 -0.1631 -0.2725 -0.6807
29627SOL    HW292670   5.997   3.176   4.211 -0.2433 -0.3004  0.4065
29628SOL     OW92671   8.692   9.599   8.672 -0.3061  0.5062  0.2912
29628SOL    HW192672   8.709   9.613   8.579  1.3017 -0.6442  0.3693
29628SOL    HW292673   8.702   9.504   8.683 -1.5930  0.4835  1.4387
29629SOL     OW92674   9.316   7.878   3.787  0.1630 -0.0225  0.1478
29629SOL    HW192675   9.230   7.873   3.830  0.0791  1.2286  0.1441
29629SOL    HW292676   9.296   7.880   3.694  0.1994  0.3099  0.1483
29630SOL     OW92677   2.851   9.859   8.266  0.0318  0.1555 -0.6425
29630SOL    HW192678   2.945   9.847   8.254 -0.0050  0.0765 -0.8496
29630SOL    HW292679   2.821   9.898   8.184 -0.1650 -0.0906 -0.6878
29631SOL     OW92680   1.994   4.354   9.729  0.0257  0.0203  0.2247
29631SOL    HW192681   1.900   4.341   9.716  0.0833  0.5187 -0.8507
29631SOL    HW292682   2.015   4.304   9.808 -1.6908  2.3531  2.3099
29632SOL     OW92683   7.859   6.788   6.058 -0.0792  0.5478 -0.2962
29632SOL    HW192684   7.827   6.754   5.974 -2.8938 -0.5454  1.0916
29632SOL    HW292685   7.787   6.843   6.090  1.2248  1.5082  1.0982
29633SOL     OW92686   1.468   4.349   5.728 -0.1328 -0.1722  0.0721
29633SOL    HW192687   1.525   4.368   5.654  0.2264  0.7238  0.5624
29633SOL    HW292688   1.423   4.268   5.704  0.4111 -0.2064 -0.8638
29634SOL     OW92689   0.583   2.084  10.125 -0.1151  0.4494  0.2960
29634SOL    HW192690   0.515   2.022  10.152  1.4427 -0.7664  1.6117
29634SOL    HW292691   0.592   2.069  10.031  0.5155 -1.7025  0.6394
29635SOL     OW92692   0.824   0.400  10.147 -0.0131  0.2964  0.0515
29635SOL    HW192693   0.893   0.338  10.170 -0.7945 -0.8323 -0.5588
29635SOL    HW292694   0.749   0.373  10.199 -0.1014  1.3242  0.4722
29636SOL     OW92695   4.900   3.159   0.742 -0.3049  0.2724 -0.0219
29636SOL    HW192696   4.941   3.186   0.824  1.0631  0.9598 -0.8767
29636SOL    HW292697   4.806   3.159   0.760  0.0286 -1.0448  1.9365
29637SOL     OW92698   0.996   4.098   7.706  0.3393 -0.0648 -0.1905
29637SOL    HW192699   1.089   4.090   7.689  0.1640 -2.4712 -0.3588
29637SOL    HW292700   0.954   4.052   7.632 -0.9580  0.5508  0.1311
29638SOL     OW92701   4.702   7.059   4.596 -0.1738 -0.3408  0.6818
29638SOL    HW192702   4.699   7.133   4.535 -0.8501  1.0813  2.3551
29638SOL    HW292703   4.617   7.060   4.639  0.6133 -0.6724  2.3196
29639SOL     OW92704   6.524   4.925   8.360 -0.3912  0.2410 -0.1549
29639SOL    HW192705   6.451   4.877   8.321 -1.6618  1.5606  0.5044
29639SOL    HW292706   6.565   4.862   8.420 -0.9344 -0.5304 -0.5794
29640SOL     OW92707   8.042   7.966   0.208 -0.0775  0.3349 -0.0435
29640SOL    HW192708   8.077   7.896   0.152 -1.6678  0.6942 -1.5767
29640SOL    HW292709   7.993   8.022   0.148 -0.1409  1.9043  1.4202
29641SOL     OW92710  10.133   9.861   6.907 -0.3021 -0.1709 -0.4381
29641SOL    HW192711  10.176   9.776   6.901 -0.9459 -0.4859 -0.6273
29641SOL    HW292712  10.138   9.885   6.999  2.4256  0.9255 -0.7884
29642SOL     OW92713   2.876   1.504   2.794 -0.0862  0.1237 -0.4018
29642SOL    HW192714   2.814   1.549   2.737  1.5333  0.3488 -2.1225
29642SOL    HW292715   2.954   1.493   2.739  0.7935 -1.6796  1.0861
29643SOL     OW92716   7.553   8.820   9.587  0.2521  0.3007 -0.2453
29643SOL    HW192717   7.512   8.838   9.672  0.1567 -2.5777  0.4362
29643SOL    HW292718   7.589   8.904   9.560  1.5634  1.0992  3.3615
29644SOL     OW92719   3.729   1.342   7.557  0.4527 -0.6062  0.1093
29644SOL    HW192720   3.722   1.422   7.504 -1.9779 -0.9785 -0.2555
29644SOL    HW292721   3.821   1.318   7.552  0.8472  1.0190 -1.5176
29645SOL     OW92722   6.951   4.668   6.050  0.0153  0.1135  0.1070
29645SOL    HW192723   6.971   4.580   6.019  1.2069  0.1443  0.6897
29645SOL    HW292724   6.858   4.666   6.072 -0.1175 -0.8040 -0.4973
29646SOL     OW92725   7.610   9.510   9.578 -0.4344  0.6006 -0.2399
29646SOL    HW192726   7.634   9.426   9.619 -0.2405  0.4463 -0.6580
29646SOL    HW292727   7.694   9.553   9.563 -0.5403  0.9020  0.0453
29647SOL     OW92728   9.721   7.034   6.150  0.5565 -0.4761  0.4501
29647SOL    HW192729   9.777   6.988   6.088  0.9981 -0.0439  0.5179
29647SOL    HW292730   9.636   6.990   6.144 -0.2725  1.2863 -2.5251
29648SOL     OW92731   4.526   2.001   7.012  0.0243 -0.5907 -0.3248
29648SOL    HW192732   4.540   2.018   6.918 -1.3909  0.0544 -0.4453
29648SOL    HW292733   4.434   2.024   7.027  0.1596 -0.9411  1.1746
29649SOL     OW92734   4.351   8.110   1.338 -0.4788 -0.3455 -0.3279
29649SOL    HW192735   4.311   8.194   1.361 -1.1819 -0.2986 -1.6335
29649SOL    HW292736   4.279   8.057   1.305  0.6357  0.2800 -4.2898
29650SOL     OW92737   9.983   9.543   1.394  0.1066 -0.2301 -0.0606
29650SOL    HW192738   9.950   9.509   1.478  1.4101  0.2879  0.7032
29650SOL    HW292739   9.968   9.637   1.399  1.6643  0.0383  0.3511
29651SOL     OW92740   8.072   9.624   0.718 -0.0258 -0.5071  0.8421
29651SOL    HW192741   8.037   9.642   0.806  0.2445  0.8002  0.7084
29651SOL    HW292742   8.018   9.679   0.660  1.1538  0.2678  0.4471
29652SOL     OW92743   9.518   8.646   8.113 -0.1855 -0.4091 -0.3830
29652SOL    HW192744   9.455   8.662   8.184  0.6455  0.7957  0.1035
29652SOL    HW292745   9.469   8.593   8.050 -1.6969  0.4690 -0.0125
29653SOL     OW92746   1.714   0.831   2.481  0.4439 -0.0435 -0.2277
29653SOL    HW192747   1.641   0.892   2.467  1.2348  0.9771 -0.0037
29653SOL    HW292748   1.791   0.879   2.450  1.0868 -0.9340 -0.0372
29654SOL     OW92749   7.840   7.087   4.573  0.2477  0.4036 -0.3110
29654SOL    HW192750   7.903   7.132   4.517  2.8194  0.3396  2.3411
29654SOL    HW292751   7.871   6.996   4.577 -0.7145  0.0776  0.1134
29655SOL     OW92752   9.242   3.445   7.044  0.1762 -0.1556  0.2161
29655SOL    HW192753   9.306   3.375   7.049  0.1658 -0.1600  0.2806
29655SOL    HW292754   9.216   3.447   6.951  0.8060  0.3246  0.0425
29656SOL     OW92755   4.085   0.934   6.998  0.1723  0.3535 -0.2749
29656SOL    HW192756   4.180   0.931   6.983  0.1516  0.7737 -0.4905
29656SOL    HW292757   4.061   0.843   7.017  0.5846  0.2102 -0.4304
29657SOL     OW92758   3.791   0.881   7.247  0.1903  0.4815  0.1254
29657SOL    HW192759   3.782   0.786   7.237  0.0198  0.2296  2.3353
29657SOL    HW292760   3.886   0.896   7.248  0.2229  0.2635  0.3211
29658SOL     OW92761   3.439   1.144  10.333 -0.4170  0.2671 -0.4388
29658SOL    HW192762   3.354   1.185  10.317 -1.5233 -1.2585  1.1497
29658SOL    HW292763   3.499   1.217  10.345 -1.7936  1.4002 -0.1516
29659SOL     OW92764   8.671   8.672   6.552 -0.8093 -0.2373  0.2161
29659SOL    HW192765   8.692   8.730   6.479  1.3149  0.2118  1.1029
29659SOL    HW292766   8.697   8.584   6.522 -1.6483 -0.3394 -0.2159
29660SOL     OW92767   7.277   4.235   1.446  0.5786  0.8265 -0.4698
29660SOL    HW192768   7.296   4.233   1.540  0.2764 -0.2592 -0.4177
29660SOL    HW292769   7.200   4.291   1.439  0.5046  0.7846 -0.0512
29661SOL     OW92770   1.305   7.286   9.218 -0.2418 -0.1482  0.0227
29661SOL    HW192771   1.313   7.218   9.284 -2.5163 -1.5282 -1.0011
29661SOL    HW292772   1.340   7.247   9.138  0.6619  0.7947 -0.0716
29662SOL     OW92773   2.595   0.236   1.108  0.0477 -0.1620 -0.4698
29662SOL    HW192774   2.544   0.284   1.174 -1.8193 -1.2341 -1.0498
29662SOL    HW292775   2.677   0.216   1.152 -1.2854 -1.2056  1.7455
29663SOL     OW92776   2.245  10.068   6.349 -0.3778 -0.0783 -0.0433
29663SOL    HW192777   2.174  10.130   6.362 -1.7320 -1.6274  0.3422
29663SOL    HW292778   2.297  10.073   6.429 -1.2979 -0.4403  0.5869
29664SOL     OW92779   7.400   2.124   4.998  0.1445 -0.0261 -0.4105
29664SOL    HW192780   7.357   2.209   5.003  0.6562  0.1563  2.0933
29664SOL    HW292781   7.357   2.071   5.065 -0.4477 -1.9277 -2.1786
29665SOL     OW92782   2.831   9.078   9.567 -0.6564 -0.4363  0.1502
29665SOL    HW192783   2.819   9.054   9.659 -2.2336  1.8642  0.6322
29665SOL    HW292784   2.922   9.107   9.562 -0.4831 -0.8166  0.9412
29666SOL     OW92785   4.730   1.935   7.452  0.6605  0.1114 -0.2886
29666SOL    HW192786   4.784   1.894   7.519 -0.0120  0.5704  0.5527
29666SOL    HW292787   4.653   1.879   7.447  0.6320  0.1756 -0.5558
29667SOL     OW92788   7.798   1.898   2.276 -0.2152 -0.0733  0.0321
29667SOL    HW192789   7.826   1.879   2.366 -1.7470 -0.2482  0.5014
29667SOL    HW292790   7.851   1.973   2.250  0.5171 -0.2478  0.9483
29668SOL     OW92791   1.133   2.060  10.269  0.3603 -0.4349 -0.0758
29668SOL    HW192792   1.213   2.114  10.267 -0.3171  0.5910 -0.3548
29668SOL    HW292793   1.070   2.109  10.216 -0.5182 -1.1350  0.2970
29669SOL     OW92794   9.607   6.195   3.347  0.5921  0.1085  0.3477
29669SOL    HW192795   9.622   6.288   3.357  2.2544 -0.3237  2.4659
29669SOL    HW292796   9.579   6.165   3.433 -1.4709 -1.1386 -0.6743
29670SOL     OW92797   9.884   3.741  10.007 -0.3786  0.9831 -0.2737
29670SOL    HW192798   9.912   3.738  10.098  1.6218  1.0088 -0.8355
29670SOL    HW292799   9.964   3.761   9.958 -1.5135  1.5332 -1.9892
29671SOL     OW92800   6.502   9.061   9.613 -0.2579 -0.3087  0.1103
29671SOL    HW192801   6.465   9.006   9.682 -1.5003  1.5158  0.9854
29671SOL    HW292802   6.480   9.015   9.532 -1.9429 -0.7534  0.7753
29672SOL     OW92803   1.415   3.634   5.191  0.6406  0.5926 -0.2388
29672SOL    HW192804   1.486   3.616   5.253  0.1876  1.7814  0.6608
29672SOL    HW292805   1.402   3.729   5.196 -1.1989  0.3849 -0.1370
29673SOL     OW92806   8.315   1.538   9.111  0.0977 -0.2541 -0.3087
29673SOL    HW192807   8.253   1.548   9.040 -0.4357 -1.6350 -0.0557
29673SOL    HW292808   8.319   1.625   9.152  0.8156  0.7041 -2.2983
29674SOL     OW92809   0.610   1.153   9.132 -0.7086 -0.5102 -0.2518
29674SOL    HW192810   0.692   1.175   9.087 -1.1324 -0.0163 -0.7934
29674SOL    HW292811   0.637   1.093   9.202  0.0827 -0.5469 -0.5730
29675SOL     OW92812   9.835   1.740   5.462 -0.1180 -0.1783 -0.4203
29675SOL    HW192813   9.745   1.766   5.481  0.4644 -0.1051  3.0407
29675SOL    HW292814   9.828   1.652   5.426 -1.5968  0.3825 -1.5934
29676SOL     OW92815   0.788   5.426  10.215 -0.0041  0.9953  0.2634
29676SOL    HW192816   0.849   5.457  10.282  0.4409 -0.2195  0.4520
29676SOL    HW292817   0.840   5.427  10.134 -0.2767  1.6238  0.0891
29677SOL     OW92818   9.348   1.137   6.039 -0.5460  0.0481  0.0654
29677SOL    HW192819   9.414   1.068   6.026  0.5538  1.4250 -2.2813
29677SOL    HW292820   9.359   1.163   6.131  0.7969 -1.1097  0.2756
29678SOL     OW92821   6.084   6.145   1.106 -0.2321  0.3402  0.3540
29678SOL    HW192822   6.063   6.068   1.053 -0.8044  0.5660  0.2479
29678SOL    HW292823   6.007   6.158   1.161  0.3568  0.1047  1.2511
29679SOL     OW92824   0.052   5.365   4.037 -0.6045  0.4785 -0.3041
29679SOL    HW192825   0.061   5.283   4.085 -0.3193 -0.3078 -1.6539
29679SOL    HW292826   0.104   5.428   4.088 -0.1104 -0.3865  0.2887
29680SOL     OW92827   2.068   7.052   4.081  0.4377 -0.6153 -0.0002
29680SOL    HW192828   1.998   6.990   4.059 -0.5851  0.4484  0.1454
29680SOL    HW292829   2.065   7.059   4.176 -1.7925  2.1599 -0.1341
29681SOL     OW92830   4.936   1.576  10.308 -0.9942 -0.0133  0.1032
29681SOL    HW192831   4.888   1.658  10.319 -0.7517  0.3145 -1.1572
29681SOL    HW292832   5.025   1.603  10.283  0.1028 -0.5819  2.9253
29682SOL     OW92833   4.792   5.909   0.372  0.1188  0.5902  0.2291
29682SOL    HW192834   4.741   5.970   0.319  1.7067  2.8325  1.1428
29682SOL    HW292835   4.792   5.947   0.460 -0.0027 -1.5111  1.2200
29683SOL     OW92836   5.915   8.516   9.753  0.2271 -0.2831  0.3641
29683SOL    HW192837   5.989   8.456   9.764 -1.0192 -1.6099  1.8939
29683SOL    HW292838   5.934   8.589   9.812  1.0956  0.2445 -0.5194
29684SOL     OW92839   5.714   7.899   1.079 -0.1273 -0.8567 -0.4471
29684SOL    HW192840   5.809   7.894   1.094  0.3328  1.0700 -2.1692
29684SOL    HW292841   5.703   7.978   1.025 -2.8876 -0.1442  0.9815
29685SOL     OW92842   2.367   5.713   7.108 -0.3204  0.5356 -0.3346
29685SOL    HW192843   2.314   5.634   7.094 -0.3380  0.5723 -0.4727
29685SOL    HW292844   2.396   5.739   7.021  2.7201 -1.3762 -0.0189
29686SOL     OW92845   9.107   2.407   4.668 -0.3850  0.6520  0.0575
29686SOL    HW192846   9.079   2.497   4.683 -0.9250  0.3068  1.2643
29686SOL    HW292847   9.193   2.401   4.709 -0.9280  0.2858  1.2001
29687SOL     OW92848   3.282   7.579   5.776 -0.8560 -0.3661 -0.1315
29687SOL    HW192849   3.214   7.541   5.831 -1.3065  1.1582  0.4300
29687SOL    HW292850   3.233   7.626   5.707 -0.4036  0.6572  0.2190
29688SOL     OW92851   9.968   2.165  10.173 -0.1900  0.0135  0.1120
29688SOL    HW192852  10.020   2.240  10.143 -0.6592 -0.6923 -2.7399
29688SOL    HW292853   9.900   2.203  10.228  0.6337  1.4730  0.1635
29689SOL     OW92854   6.681   7.064   0.739 -0.1541 -0.0089  0.2098
29689SOL    HW192855   6.716   7.111   0.664  0.5911  1.9204  1.6882
29689SOL    HW292856   6.586   7.077   0.734 -0.1151  0.0563 -0.4011
29690SOL     OW92857   8.846   1.095   1.070  0.4061  0.1877 -0.0849
29690SOL    HW192858   8.790   1.017   1.067 -1.5492  1.4932  0.6336
29690SOL    HW292859   8.791   1.163   1.109  0.4399  3.1997 -4.6088
29691SOL     OW92860   7.569   5.343   7.857 -0.4466 -0.3415  0.2114
29691SOL    HW192861   7.494   5.284   7.851  0.3567 -1.2682 -1.3540
29691SOL    HW292862   7.629   5.300   7.918 -0.6263 -0.2603  0.4445
29692SOL     OW92863   2.844   1.295  10.165 -0.3276 -0.4768 -0.1046
29692SOL    HW192864   2.750   1.292  10.146 -0.4413 -0.5167  0.4602
29692SOL    HW292865   2.871   1.203  10.164 -0.0551 -0.4029 -1.4111
29693SOL     OW92866   3.509   2.730   1.070 -0.0220  0.5009 -0.1692
29693SOL    HW192867   3.563   2.791   1.020 -3.7703  1.2399 -3.7912
29693SOL    HW292868   3.456   2.785   1.127  0.1571  0.1205  0.3794
29694SOL     OW92869   2.754   7.355   3.021 -0.6493  0.7627 -0.6659
29694SOL    HW192870   2.833   7.308   3.048 -0.4342  0.7536 -1.3037
29694SOL    HW292871   2.703   7.290   2.973 -0.7461  0.9504 -0.8145
29695SOL     OW92872   3.966   6.165   4.667 -0.2154 -0.1234  0.5964
29695SOL    HW192873   3.926   6.084   4.700 -0.2955  0.2432  1.4215
29695SOL    HW292874   4.060   6.150   4.677 -0.2658  0.6864  2.7923
29696SOL     OW92875   8.234  10.245   7.962 -0.4176 -0.2283  0.2958
29696SOL    HW192876   8.244  10.241   7.867 -0.3820 -1.3907  0.3408
29696SOL    HW292877   8.312  10.292   7.992 -0.2212 -0.2270 -0.2090
29697SOL     OW92878   8.489   0.561   1.954 -0.1933 -0.4861  0.3178
29697SOL    HW192879   8.492   0.467   1.974 -2.6010 -1.0129 -1.3383
29697SOL    HW292880   8.422   0.596   2.013  0.1820  0.0476  0.4302
29698SOL     OW92881   1.534   1.025   2.426  0.0405  0.0061 -0.5653
29698SOL    HW192882   1.441   1.018   2.404 -0.5500  1.6037  1.0934
29698SOL    HW292883   1.561   1.109   2.389 -0.0086  0.9360  1.3390
29699SOL     OW92884   2.292   3.457   2.244 -0.0090 -0.6115  0.2507
29699SOL    HW192885   2.335   3.469   2.329 -1.2080 -0.5367  0.8716
29699SOL    HW292886   2.284   3.362   2.236  0.7580 -0.6491 -0.1268
29700SOL     OW92887  10.350   2.139   1.560  0.0623 -0.0155  0.0646
29700SOL    HW192888  10.346   2.138   1.655 -2.3524  2.4694  0.1153
29700SOL    HW292889  10.443   2.155   1.540  1.0105 -2.6769  1.8288
29701SOL     OW92890   9.017   3.337   0.752  0.1185 -0.6055  0.8803
29701SOL    HW192891   9.111   3.319   0.750  0.0425 -0.9745 -0.5995
29701SOL    HW292892   8.976   3.251   0.761 -0.1313 -0.9353 -2.2217
29702SOL     OW92893   8.424   3.298   5.927 -0.7782 -0.3087  0.6795
29702SOL    HW192894   8.400   3.250   5.848 -0.7462  1.3916 -0.4149
29702SOL    HW292895   8.342   3.307   5.976 -1.3356  0.8107 -0.4178
29703SOL     OW92896   5.157   9.379   8.683 -0.0523  0.6268 -0.3784
29703SOL    HW192897   5.127   9.345   8.598  0.5083  1.8081 -1.0652
29703SOL    HW292898   5.076   9.396   8.731 -0.4244  1.3085 -1.2239
29704SOL     OW92899   9.167   0.051   1.258 -0.7411  0.4225  0.1846
29704SOL    HW192900   9.259   0.071   1.275 -0.7609  1.7691 -1.1613
29704SOL    HW292901   9.166  -0.044   1.242  0.3835  0.3783  0.2856
29705SOL     OW92902   5.236   1.109   8.253 -0.7036  0.2820 -0.6885
29705SOL    HW192903   5.212   1.107   8.345 -1.0202  1.5754 -0.7212
29705SOL    HW292904   5.292   1.187   8.244  1.5590 -1.2917 -1.0915
29706SOL     OW92905  10.069   5.480   7.547 -0.4152 -0.0431  0.0072
29706SOL    HW192906  10.106   5.409   7.494 -2.4331 -0.8526 -0.4334
29706SOL    HW292907  10.054   5.551   7.485  2.6084  1.3247  0.6301
29707SOL     OW92908   1.277   4.469   6.824  0.1269  0.1689  0.2700
29707SOL    HW192909   1.367   4.501   6.819 -0.3770  1.4784 -1.7066
29707SOL    HW292910   1.237   4.496   6.741 -1.3913 -2.6215 -0.0390
29708SOL     OW92911   5.770   4.381   2.224  0.7730  0.3403 -0.3021
29708SOL    HW192912   5.732   4.372   2.137 -0.0285  1.1340 -0.0487
29708SOL    HW292913   5.695   4.373   2.284  1.1150  1.0917  0.2483
29709SOL     OW92914   2.337   3.192   9.567  0.7175 -0.0067 -0.2194
29709SOL    HW192915   2.355   3.166   9.477 -1.4604  1.0397 -1.0292
29709SOL    HW292916   2.410   3.157   9.618  2.1219 -0.4055 -2.4136
29710SOL     OW92917   2.301   1.004   3.044 -0.0967 -0.0458 -0.0503
29710SOL    HW192918   2.349   0.926   3.017  2.7576  1.6889 -0.4382
29710SOL    HW292919   2.241   1.022   2.972  0.9314 -0.5628 -1.0702
29711SOL     OW92920   4.199   3.552   8.970  0.2553  0.4217  0.0754
29711SOL    HW192921   4.182   3.478   9.029  0.1591  1.0204  0.8019
29711SOL    HW292922   4.272   3.599   9.011  1.2547 -0.0503 -1.1105
29712SOL     OW92923   1.560   2.111   9.733 -0.1612 -0.5452  0.2876
29712SOL    HW192924   1.497   2.172   9.772 -0.6744 -1.5117  0.9948
29712SOL    HW292925   1.508   2.060   9.671 -0.0302 -1.1825  0.6954
29713SOL     OW92926   7.690   2.662   3.285 -0.2271 -0.2319 -0.3207
29713SOL    HW192927   7.611   2.653   3.339 -1.4106 -0.5258 -2.0198
29713SOL    HW292928   7.679   2.746   3.241  1.9677  1.2562  1.7335
29714SOL     OW92929   3.560  10.216   4.241  0.3840  0.2555  0.0999
29714SOL    HW192930   3.475  10.203   4.201  0.0333  0.8631  0.6309
29714SOL    HW292931   3.580  10.132   4.285  1.5725 -1.0668 -2.7247
29715SOL     OW92932   9.725   9.957   3.006  0.2226  0.4046 -0.3039
29715SOL    HW192933   9.804   9.981   2.956  0.4823 -0.9287 -0.5653
29715SOL    HW292934   9.758   9.900   3.076 -0.4227  0.4447  0.0352
29716SOL     OW92935   5.252   4.339   7.764  0.1117  0.5284 -0.0368
29716SOL    HW192936   5.325   4.333   7.702  0.5325 -0.2693  0.5132
29716SOL    HW292937   5.281   4.287   7.839 -0.7717  0.7241  0.4467
29717SOL     OW92938   6.891   0.460   1.748  0.0056 -0.0400  0.4251
29717SOL    HW192939   6.879   0.421   1.662  1.0227 -0.9239  0.6628
29717SOL    HW292940   6.899   0.554   1.730 -1.9893  0.0613 -0.1966
29718SOL     OW92941   7.735   1.746   8.255 -0.2036  0.6408 -0.3739
29718SOL    HW192942   7.828   1.738   8.274 -0.4560  0.3162  0.7793
29718SOL    HW292943   7.693   1.683   8.313 -1.2140  1.3596 -0.3062
29719SOL     OW92944   3.370   7.386   1.136 -0.0913 -0.5614  0.7649
29719SOL    HW192945   3.339   7.299   1.164 -2.9895  0.2806  0.5239
29719SOL    HW292946   3.349   7.444   1.209 -0.1944  0.2900  0.0808
29720SOL     OW92947   2.380   7.764   3.105 -0.3073  0.8050  0.0778
29720SOL    HW192948   2.415   7.714   3.032  2.4522 -0.8354  2.2990
29720SOL    HW292949   2.402   7.855   3.086  1.7002  0.2378 -0.4835
29721SOL     OW92950   0.332   7.550   3.124  0.5821 -1.3237 -0.3921
29721SOL    HW192951   0.310   7.506   3.042  1.2199 -2.2004 -0.1188
29721SOL    HW292952   0.420   7.585   3.110 -0.1399  0.3823 -0.7947
29722SOL     OW92953   0.811   7.703   1.613  0.0233  0.2086  0.4993
29722SOL    HW192954   0.845   7.786   1.645  1.8048 -0.9855  1.8672
29722SOL    HW292955   0.740   7.681   1.674  0.4241  0.0899  0.9213
29723SOL     OW92956   2.430   1.803   4.548  0.3490  0.4269 -0.0541
29723SOL    HW192957   2.434   1.789   4.454 -1.4660  1.1217 -0.2716
29723SOL    HW292958   2.373   1.734   4.581 -0.2116  1.0448  0.3089
29724SOL     OW92959   0.480   8.238   1.003  0.0780 -0.5083  0.2786
29724SOL    HW192960   0.500   8.150   1.034 -1.9043 -1.1114 -0.0686
29724SOL    HW292961   0.424   8.225   0.927 -2.3022  1.0473  1.6474
29725SOL     OW92962   5.886   3.417   5.123  0.6810 -0.1670 -0.2074
29725SOL    HW192963   5.812   3.388   5.069  0.2698  0.9248 -0.2543
29725SOL    HW292964   5.876   3.368   5.204  1.7145 -2.3658 -1.3385
29726SOL     OW92965   8.077   7.696   7.993 -0.3774 -0.0359  0.8213
29726SOL    HW192966   7.987   7.721   8.011 -1.0107 -2.5747  1.6274
29726SOL    HW292967   8.127   7.737   8.064 -0.9615  0.8293  0.7546
29727SOL     OW92968   8.466   2.027   0.404 -0.4491 -0.3607 -0.0050
29727SOL    HW192969   8.483   1.956   0.342  0.6205  0.2583 -0.4585
29727SOL    HW292970   8.407   2.086   0.357  0.5339  0.2190 -0.5597
29728SOL     OW92971   8.646   3.727   2.390  0.9140  0.3838  0.0390
29728SOL    HW192972   8.728   3.693   2.428  1.5187  1.3289 -0.3784
29728SOL    HW292973   8.662   3.820   2.379 -0.2903  0.6106  0.0825
29729SOL     OW92974   9.805   4.632   7.303  0.3461  0.2789 -0.1379
29729SOL    HW192975   9.832   4.574   7.232  0.7680  1.5457 -1.0498
29729SOL    HW292976   9.870   4.703   7.302 -1.5661  2.1149 -0.7638
29730SOL     OW92977   4.011   1.184   2.844 -0.0481 -0.1167 -0.0696
29730SOL    HW192978   4.054   1.266   2.820 -1.9482  0.9249 -0.1372
29730SOL    HW292979   3.981   1.197   2.934  0.0336 -0.9343  0.0907
29731SOL     OW92980   8.654   7.305   1.990  0.1429  0.3446 -0.4325
29731SOL    HW192981   8.708   7.379   1.965  0.1012  0.4321 -0.2658
29731SOL    HW292982   8.597   7.290   1.914 -0.9832  1.5239  0.1329
29732SOL     OW92983   9.289   8.490   0.759  0.2456 -0.0189 -0.0436
29732SOL    HW192984   9.217   8.433   0.735 -0.0953  0.4615 -0.1842
29732SOL    HW292985   9.252   8.578   0.755  1.0723  0.3127 -1.0373
29733SOL     OW92986   2.455   7.290   3.999 -0.3605  0.3778 -0.1711
29733SOL    HW192987   2.395   7.216   3.999  0.6258 -0.4482 -0.1077
29733SOL    HW292988   2.532   7.259   3.951  0.9434  0.6049  1.6542
29734SOL     OW92989   9.258   1.755   8.791  0.0585 -0.7235 -0.2315
29734SOL    HW192990   9.315   1.686   8.826 -0.1669 -1.1987 -0.7829
29734SOL    HW292991   9.198   1.775   8.864 -0.0084 -1.2623 -0.1312
29735SOL     OW92992   9.993   1.625   4.566 -0.5291  0.1611  0.1903
29735SOL    HW192993   9.933   1.623   4.641 -0.0239 -1.1419  0.5842
29735SOL    HW292994  10.059   1.690   4.590  0.1432 -0.8972  1.3020
29736SOL     OW92995  10.016   8.661   2.019  0.1415 -0.6044  0.2449
29736SOL    HW192996   9.985   8.573   2.041 -1.5975 -0.0843 -0.0127
29736SOL    HW292997  10.023   8.661   1.924 -2.5824  0.3284 -0.0328
29737SOL     OW92998   0.124   1.684   7.533  0.2174 -0.1573  0.2861
29737SOL    HW192999   0.055   1.747   7.512  1.3814  1.5838  1.4091
29737SOL    HW293000   0.201   1.717   7.486  1.0389 -0.2903  1.4921
29738SOL     OW93001   1.793   1.389   6.655  0.1175  0.1875 -0.0588
29738SOL    HW193002   1.762   1.298   6.656  1.0852 -0.1431  0.3494
29738SOL    HW293003   1.714   1.441   6.669 -0.2248 -0.6547  1.2894
29739SOL     OW93004   1.808   5.576   2.706 -0.0455 -0.3199 -0.3589
29739SOL    HW193005   1.785   5.572   2.613 -0.4970 -0.7568 -0.2324
29739SOL    HW293006   1.737   5.530   2.750  1.8015 -3.0947 -0.0598
29740SOL     OW93007   7.906   0.407   6.423 -0.1902 -0.5266  0.1004
29740SOL    HW193008   7.827   0.442   6.465  0.5920  1.6312 -0.1030
29740SOL    HW293009   7.973   0.473   6.440  1.6128 -2.3433  0.3117
29741SOL     OW93010   4.518   2.965   9.641  0.4697  0.1816  0.2158
29741SOL    HW193011   4.430   2.927   9.648  0.6235 -0.3697 -0.6729
29741SOL    HW293012   4.553   2.929   9.559  2.7012 -2.1217  1.9965
29742SOL     OW93013   3.197   5.516   3.264 -0.5811  0.0818  0.1371
29742SOL    HW193014   3.259   5.534   3.193  0.4667  0.9143  1.2269
29742SOL    HW293015   3.196   5.597   3.315 -0.7985 -0.7325  1.4517
29743SOL     OW93016   4.689   2.013   1.980  0.1333 -0.3727 -0.3485
29743SOL    HW193017   4.723   2.097   2.011 -1.6345 -0.0296  0.7964
29743SOL    HW293018   4.661   2.030   1.890 -1.2012  0.5903  0.2206
29744SOL     OW93019  10.334   4.646   4.022 -0.1663 -0.4104 -0.0956
29744SOL    HW193020  10.359   4.557   4.044  1.1234  0.2133  1.1795
29744SOL    HW293021  10.241   4.642   4.003 -0.2596 -1.9091  0.5862
29745SOL     OW93022   4.963   3.485   4.098  0.4432  0.0790  0.3581
29745SOL    HW193023   5.023   3.445   4.036  1.3133  0.9280  0.6325
29745SOL    HW293024   4.887   3.426   4.099  1.4758 -1.3087  0.4097
29746SOL     OW93025   0.642   3.461   9.586  0.2438 -0.0159 -0.0510
29746SOL    HW193026   0.566   3.513   9.561  0.7904 -0.1620 -2.2507
29746SOL    HW293027   0.618   3.421   9.669 -2.0683 -0.0230 -0.6543
29747SOL     OW93028   0.402   3.567   2.080 -0.1211 -0.1308 -0.0016
29747SOL    HW193029   0.407   3.615   1.997  3.5475  0.7007  0.5060
29747SOL    HW293030   0.344   3.494   2.061 -2.4325  2.0459 -2.1271
29748SOL     OW93031   1.188  10.353   8.947 -0.8065  0.4539 -0.3697
29748SOL    HW193032   1.165  10.297   8.872 -1.7078  0.5150 -0.1518
29748SOL    HW293033   1.147  10.437   8.926  1.3594  1.3825 -1.1735
29749SOL     OW93034   9.776   4.900  10.197  0.5379 -0.2037 -0.3268
29749SOL    HW193035   9.862   4.942  10.198  0.3729  0.1637  1.1686
29749SOL    HW293036   9.721   4.958  10.250 -0.0261 -1.6335  0.7000
29750SOL     OW93037   9.128   2.917   6.770  0.1994  0.0382  0.3138
29750SOL    HW193038   9.135   2.882   6.681  2.0791  0.2345  0.3283
29750SOL    HW293039   9.165   3.006   6.763 -1.9913  1.0397  0.8071
29751SOL     OW93040   0.857   0.628   4.046  0.0173  0.3481 -0.2980
29751SOL    HW193041   0.910   0.553   4.073  0.8959  0.8969 -0.4531
29751SOL    HW293042   0.810   0.654   4.125  0.6993  0.4238  0.0917
29752SOL     OW93043   2.733  10.110   4.429 -0.1009 -0.0967 -0.2306
29752SOL    HW193044   2.696  10.033   4.386 -0.2413  0.9752 -2.1228
29752SOL    HW293045   2.656  10.160   4.458 -0.0276 -0.1078 -0.0131
29753SOL     OW93046   5.359   9.913   4.382  0.4245 -0.7090  0.2434
29753SOL    HW193047   5.417   9.951   4.448  0.8894 -0.0643 -0.5038
29753SOL    HW293048   5.375   9.819   4.386  0.4962 -0.6714  0.9901
29754SOL     OW93049   1.790   5.794   1.084  1.1288  0.2695  0.3693
29754SOL    HW193050   1.740   5.800   1.003 -1.2046  1.8334  1.7948
29754SOL    HW293051   1.740   5.734   1.139  1.9905  0.1782  1.0773
29755SOL     OW93052   5.000   1.126   4.487  0.2755 -0.2032 -0.3830
29755SOL    HW193053   5.060   1.200   4.497  2.3365 -1.8588  0.2081
29755SOL    HW293054   5.001   1.082   4.573 -1.0065 -0.8518 -0.6706
29756SOL     OW93055   6.761   4.287   9.744 -0.7371  0.0273 -0.0579
29756SOL    HW193056   6.745   4.357   9.806  2.4946  2.4668 -1.6775
29756SOL    HW293057   6.708   4.310   9.668 -0.3785  0.2427 -0.2477
29757SOL     OW93058   3.386   1.991   9.201  0.2565 -0.4037 -0.2760
29757SOL    HW193059   3.390   2.074   9.152 -0.1090  0.3250  0.8923
29757SOL    HW293060   3.473   1.981   9.238  0.1929 -0.3439 -0.1089
29758SOL     OW93061   2.062   7.393   6.464 -0.0916 -0.2767 -0.1796
29758SOL    HW193062   2.139   7.380   6.409 -0.5976 -2.0120 -0.5540
29758SOL    HW293063   1.991   7.409   6.402  0.1698  2.9406  0.2118
29759SOL     OW93064   9.752   3.412   5.872 -0.0990 -0.4133 -0.2937
29759SOL    HW193065   9.708   3.335   5.908 -1.2339 -0.3567 -1.4900
29759SOL    HW293066   9.803   3.379   5.798  2.2280 -0.5336  1.2508
29760SOL     OW93067   8.089   2.383   1.308 -0.2951 -0.0250  0.1073
29760SOL    HW193068   8.035   2.314   1.347  1.6779 -1.9777 -0.4479
29760SOL    HW293069   8.025   2.444   1.271 -2.1742 -2.3649 -0.8244
29761SOL     OW93070   7.436   2.590   7.531 -0.6270 -0.1656  0.8619
29761SOL    HW193071   7.361   2.636   7.493 -0.3637 -1.1666 -0.9667
29761SOL    HW293072   7.433   2.502   7.492  2.4784  0.2784 -0.7087
29762SOL     OW93073   1.090   2.799   2.810  0.3804 -0.1763  0.1916
29762SOL    HW193074   1.052   2.861   2.747 -0.6622 -0.1109  0.8554
29762SOL    HW293075   1.170   2.768   2.768 -0.4277 -0.3461 -1.3015
29763SOL     OW93076   7.886   3.125   0.001 -0.6609  0.4704 -0.1992
29763SOL    HW193077   7.944   3.132   0.078 -1.1342  0.1874  0.1907
29763SOL    HW293078   7.863   3.032  -0.003  0.7991  0.1379 -1.7736
29764SOL     OW93079   0.962   5.028   9.079  0.0593  0.1165 -0.1078
29764SOL    HW193080   0.905   5.105   9.065 -1.4375 -0.7967  0.7063
29764SOL    HW293081   1.014   5.050   9.155  0.7557  0.9306 -0.8010
29765SOL     OW93082   5.375   9.794   0.887 -0.0694 -0.4177  0.0470
29765SOL    HW193083   5.441   9.772   0.822 -0.3252  0.4053 -0.4926
29765SOL    HW293084   5.425   9.812   0.967  0.2829 -0.8074 -0.0829
29766SOL     OW93085   6.924  10.167   4.644 -0.0274  0.3370 -0.3358
29766SOL    HW193086   6.929  10.157   4.549 -0.4245 -3.0652 -0.1180
29766SOL    HW293087   7.014  10.161   4.673 -0.1087 -1.4808 -0.3632
29767SOL     OW93088   2.765   9.746   9.168 -0.3052  0.3489  0.2431
29767SOL    HW193089   2.822   9.670   9.160 -0.3196  0.3045  0.5458
29767SOL    HW293090   2.822   9.822   9.156 -0.6272  0.2726 -2.1483
29768SOL     OW93091   0.847   6.642   0.519  0.0488 -0.0275  0.2843
29768SOL    HW193092   0.920   6.639   0.457 -0.3410 -2.4670 -0.1685
29768SOL    HW293093   0.772   6.608   0.470 -0.6185 -0.6229  1.6649
29769SOL     OW93094   3.992   9.163   0.691 -0.2151 -0.4232 -0.5401
29769SOL    HW193095   3.909   9.121   0.717  0.0385 -2.2545 -2.4310
29769SOL    HW293096   3.966   9.247   0.654 -0.9671  0.1424  1.1790
29770SOL     OW93097   8.794   6.780   9.222 -0.1566 -0.1198 -0.2355
29770SOL    HW193098   8.727   6.824   9.168 -1.0871  2.8547  2.9876
29770SOL    HW293099   8.867   6.842   9.223  0.5905 -0.9968  0.4142
29771SOL     OW93100   1.308   6.431   7.140  0.1899  0.1270 -0.1206
29771SOL    HW193101   1.269   6.401   7.057 -2.8124 -0.0887  1.2183
29771SOL    HW293102   1.390   6.382   7.147  0.2223 -0.3226 -2.6444
29772SOL     OW93103   4.793   2.639   2.696 -0.2471 -0.4201  0.1941
29772SOL    HW193104   4.757   2.570   2.640 -2.3162 -0.5426  1.5501
29772SOL    HW293105   4.741   2.633   2.777  0.3989  1.8749  0.8429
29773SOL     OW93106   5.319   8.908   0.193 -0.0775  0.3010 -0.1416
29773SOL    HW193107   5.244   8.868   0.237  1.8108 -0.6080  2.5284
29773SOL    HW293108   5.308   9.002   0.207 -0.7636  0.1839  0.1400
29774SOL     OW93109   4.141   4.886   3.595  0.0071  0.2376 -0.1377
29774SOL    HW193110   4.086   4.890   3.516 -1.9790  0.2665  1.1779
29774SOL    HW293111   4.143   4.793   3.618 -0.7420  0.4069  0.6432
29775SOL     OW93112   5.952   7.613   9.943 -0.1149 -0.4123  0.4684
29775SOL    HW193113   5.950   7.527   9.985 -1.4333  0.0683  1.4346
29775SOL    HW293114   5.874   7.658   9.975  1.0107  1.4846  0.6754
29776SOL     OW93115   8.685   1.934   4.494 -0.3798  0.0916  0.5694
29776SOL    HW193116   8.623   1.980   4.437  0.0372  0.0669  0.0914
29776SOL    HW293117   8.765   1.985   4.489 -0.4593  0.3238  1.4684
29777SOL     OW93118   1.714   7.541   0.244 -0.8312  0.0716  0.0022
29777SOL    HW193119   1.656   7.527   0.170  1.8425 -1.2384 -1.9866
29777SOL    HW293120   1.710   7.459   0.294 -0.1347 -0.3298 -0.5838
29778SOL     OW93121   7.852   2.780   0.010 -0.2735 -0.1964 -0.1199
29778SOL    HW193122   7.781   2.784  -0.054 -0.6152 -0.9146  0.2118
29778SOL    HW293123   7.811   2.745   0.089 -0.0672  1.4819  0.7918
29779SOL     OW93124   3.604   6.091   9.254 -0.3019  0.2148 -0.1689
29779SOL    HW193125   3.667   6.021   9.272  1.0148  1.6823  1.2857
29779SOL    HW293126   3.642   6.169   9.295 -0.4531  2.4408 -3.7967
29780SOL     OW93127   9.936   3.216   5.505 -0.9672  0.2365  0.5878
29780SOL    HW193128  10.019   3.212   5.457 -1.0979 -0.4921  0.4137
29780SOL    HW293129   9.876   3.162   5.455 -0.7026 -1.7934  2.2913
29781SOL     OW93130   5.600   0.229  10.303 -0.5651  0.0841 -0.0441
29781SOL    HW193131   5.626   0.144  10.267 -2.1105  0.8314 -3.3141
29781SOL    HW293132   5.611   0.290  10.230 -2.1268  2.1647  1.3614
29782SOL     OW93133   9.627   1.875   0.200  0.4988  0.0538  0.2260
29782SOL    HW193134   9.660   1.834   0.119  0.3714 -0.3963  0.3974
29782SOL    HW293135   9.596   1.961   0.173  0.8904  0.0890 -0.1213
29783SOL     OW93136   7.855   4.901   5.348 -0.1823 -0.7065  0.6455
29783SOL    HW193137   7.892   4.916   5.261  0.2999  0.2599  0.9978
29783SOL    HW293138   7.917   4.943   5.407 -0.4605 -1.4346  1.4701
29784SOL     OW93139   8.244   6.074   4.836  0.4985  0.4309  0.5444
29784SOL    HW193140   8.269   6.082   4.927  0.7333 -0.8999  0.6261
29784SOL    HW293141   8.196   6.154   4.816 -0.5404  0.2339  2.1502
29785SOL     OW93142   0.345   7.752   9.173 -0.7335  0.5391  0.1662
29785SOL    HW193143   0.433   7.719   9.151 -0.8769 -4.9294  4.9957
29785SOL    HW293144   0.290   7.726   9.099  0.9813 -1.2284 -0.5974
29786SOL     OW93145   0.343   1.612   5.805 -0.0042 -0.2140  0.7253
29786SOL    HW193146   0.304   1.667   5.736 -1.0698 -0.3386  1.2066
29786SOL    HW293147   0.393   1.546   5.757 -0.6316 -0.2260  0.0598
29787SOL     OW93148   5.198   1.284   4.570  0.4200 -0.2592  0.6400
29787SOL    HW193149   5.262   1.305   4.638  0.2997  0.9612  0.3950
29787SOL    HW293150   5.200   1.359   4.511 -0.6428 -0.5731  0.1845
29788SOL     OW93151   2.963   5.491   2.308  0.0206 -0.1739 -0.3857
29788SOL    HW193152   2.897   5.480   2.377 -0.3597 -1.7364 -0.9685
29788SOL    HW293153   3.038   5.530   2.354 -0.8642  0.5536  0.5168
29789SOL     OW93154   4.253   1.152   3.302 -0.4464 -0.0222  0.4439
29789SOL    HW193155   4.302   1.222   3.346  0.1096 -0.1736  0.0795
29789SOL    HW293156   4.191   1.197   3.245  0.4093  0.1904 -0.3403
29790SOL     OW93157   1.685   6.002   2.809  0.3140  0.9886 -0.5453
29790SOL    HW193158   1.621   6.073   2.817  0.1916  0.8901 -0.6513
29790SOL    HW293159   1.652   5.934   2.867  1.1912  1.5716  0.6932
29791SOL     OW93160   0.235  10.301   5.188 -0.3208  0.3220 -0.0153
29791SOL    HW193161   0.302  10.235   5.204 -2.5276 -2.2999 -0.8005
29791SOL    HW293162   0.215  10.337   5.275  1.3178  0.3910  0.3547
29792SOL     OW93163   2.662   6.067   3.121 -0.1569  0.7707  0.2409
29792SOL    HW193164   2.636   6.027   3.204 -1.7448 -2.2548 -1.5317
29792SOL    HW293165   2.580   6.079   3.074  0.8444  0.6534 -1.6190
29793SOL     OW93166   5.332   9.522   4.168  0.4057 -0.1362 -0.0693
29793SOL    HW193167   5.251   9.564   4.140  0.9758  1.2468  0.2455
29793SOL    HW293168   5.315   9.428   4.160 -0.7515  0.1510 -1.2805
29794SOL     OW93169   6.020   4.338   7.663 -0.2548  0.2911 -0.4907
29794SOL    HW193170   5.992   4.248   7.643  0.1268 -0.2837  1.3759
29794SOL    HW293171   6.024   4.381   7.577 -3.3025 -0.5971 -1.2378
29795SOL     OW93172   0.636   8.624   2.464  0.4759 -0.3253 -0.0915
29795SOL    HW193173   0.681   8.672   2.394  1.0821  1.5872  1.5139
29795SOL    HW293174   0.691   8.638   2.541 -2.0141  0.7863  1.6114
29796SOL     OW93175   9.721   4.434   3.696 -0.7980 -0.5009  0.3863
29796SOL    HW193176   9.774   4.355   3.702  2.6602  1.5710 -0.3520
29796SOL    HW293177   9.720   4.469   3.785 -0.3386 -0.2141  0.2823
29797SOL     OW93178   5.624   4.885   4.271  0.9181  0.3079  0.7331
29797SOL    HW193179   5.608   4.792   4.286  1.1692  0.2769  0.8049
29797SOL    HW293180   5.616   4.925   4.357  0.9157  0.3390  0.7187
29798SOL     OW93181   9.056   6.467   3.683  0.6022  0.5821  0.0390
29798SOL    HW193182   9.072   6.540   3.743  1.3310 -0.1339  0.7454
29798SOL    HW293183   9.007   6.505   3.610 -0.6758  1.4030  1.2765
29799SOL     OW93184  10.144   1.851   3.396 -0.2330  0.3398 -0.0674
29799SOL    HW193185  10.125   1.801   3.317  0.6727  0.3307 -0.2883
29799SOL    HW293186  10.111   1.796   3.468 -2.9906  1.2538 -0.4898
29800SOL     OW93187  10.160   3.637   9.833  0.0486 -0.2465  0.4669
29800SOL    HW193188  10.182   3.555   9.789 -0.3987 -1.0792  1.7418
29800SOL    HW293189  10.122   3.692   9.765  0.3870 -1.0829 -0.4149
29801SOL     OW93190   2.740   8.570   5.455  0.0417 -0.3151 -0.4854
29801SOL    HW193191   2.677   8.528   5.514  0.0583 -0.8753 -0.8550
29801SOL    HW293192   2.819   8.517   5.463 -0.3422 -1.1644 -1.9326
29802SOL     OW93193   8.660   9.205   1.457 -0.3314  0.0231 -0.1906
29802SOL    HW193194   8.750   9.209   1.426  0.3131  1.3701  1.6937
29802SOL    HW293195   8.607   9.222   1.379  1.0372 -0.5512 -1.2752
29803SOL     OW93196   4.482   3.503   3.775  0.5922 -0.2868 -0.0187
29803SOL    HW193197   4.392   3.482   3.749 -0.7937  3.2799  1.3388
29803SOL    HW293198   4.515   3.559   3.704  1.8163 -1.5500 -0.4949
29804SOL     OW93199   2.213   3.454   3.195  0.0287  0.2564 -0.4882
29804SOL    HW193200   2.152   3.512   3.150 -1.3374  0.9729  2.0903
29804SOL    HW293201   2.159   3.408   3.259  1.4502 -2.4617 -1.1226
29805SOL     OW93202   9.121   2.868   5.662  0.1881 -0.4442  0.3705
29805SOL    HW193203   9.185   2.897   5.727 -0.6095  2.5402 -0.0132
29805SOL    HW293204   9.036   2.886   5.703 -0.3268  0.3630 -1.0093
29806SOL     OW93205   9.184   8.704   1.597 -0.3708  0.6556  0.1247
29806SOL    HW193206   9.174   8.621   1.550 -1.5045  0.5084  0.5784
29806SOL    HW293207   9.158   8.771   1.534 -0.2439  0.5930  0.0069
29807SOL     OW93208   3.719   4.091   1.312  0.0519 -0.5963  0.7615
29807SOL    HW193209   3.756   4.110   1.398 -1.3982  1.1016  1.0756
29807SOL    HW293210   3.626   4.075   1.329 -0.4687  0.7949 -0.5675
29808SOL     OW93211   6.859   2.235   6.001 -0.2485  0.1682 -0.5792
29808SOL    HW193212   6.827   2.145   6.000  0.1262  0.0304 -0.3419
29808SOL    HW293213   6.863   2.261   5.909  0.1003 -0.2194 -0.6738
29809SOL     OW93214   2.442   9.826   4.851  0.1102 -0.5551  0.1335
29809SOL    HW193215   2.426   9.735   4.874 -1.7173  0.2369  2.3383
29809SOL    HW293216   2.361   9.871   4.874  1.1621  1.7391 -0.3797
29810SOL     OW93217   1.531   0.024   3.388 -0.2938  0.2501 -0.1546
29810SOL    HW193218   1.585   0.051   3.314 -0.3754  0.3831 -0.1663
29810SOL    HW293219   1.566  -0.061   3.414 -0.8131 -0.2130 -0.9039
29811SOL     OW93220   7.599   9.855   1.983  0.0515  0.7021 -0.0016
29811SOL    HW193221   7.509   9.849   1.953  0.0948  0.6779 -0.1254
29811SOL    HW293222   7.592   9.882   2.075 -0.1487 -0.9899  0.5189
29812SOL     OW93223   5.895   8.132   3.543 -0.7151 -0.0427  0.2902
29812SOL    HW193224   5.801   8.148   3.533 -0.4551  1.0797 -0.5187
29812SOL    HW293225   5.922   8.191   3.613 -0.1802  1.5042 -1.1539
29813SOL     OW93226   7.226   8.260   7.391  0.5316 -0.3339  0.1635
29813SOL    HW193227   7.260   8.175   7.419  1.8189  0.9073  2.6591
29813SOL    HW293228   7.155   8.279   7.452 -1.2667 -0.5132 -1.7464
29814SOL     OW93229   5.435   9.438   5.547  0.1641  0.2698  0.1463
29814SOL    HW193230   5.346   9.467   5.530  1.0734  2.3655 -1.5599
29814SOL    HW293231   5.450   9.460   5.639 -0.5612  1.4884  0.0006
29815SOL     OW93232   7.739   5.876   3.083 -0.9341  0.1372 -0.2990
29815SOL    HW193233   7.660   5.822   3.081 -0.1990 -1.0865  1.5028
29815SOL    HW293234   7.810   5.815   3.098 -0.0495  1.5453  1.7348
29816SOL     OW93235   0.608   9.691   3.200  0.1494 -0.5684 -0.2189
29816SOL    HW193236   0.626   9.597   3.203  2.4133 -0.2269 -0.6367
29816SOL    HW293237   0.598   9.710   3.107  0.3385 -0.3205 -0.1906
29817SOL     OW93238   3.349   4.756   3.542 -0.0025 -1.0705 -0.1029
29817SOL    HW193239   3.319   4.784   3.628  1.9624 -0.1998  0.3664
29817SOL    HW293240   3.412   4.686   3.560  0.3882 -0.9207 -0.8333
29818SOL     OW93241   0.467   8.696   9.213  0.2228  0.2231 -0.3025
29818SOL    HW193242   0.531   8.627   9.199 -0.2148 -0.0663 -0.9468
29818SOL    HW293243   0.429   8.676   9.299  1.5723  0.8852  0.4620
29819SOL     OW93244   4.050   2.841  10.193  0.1176  0.3785  0.1700
29819SOL    HW193245   4.065   2.908  10.125 -0.1170  2.5803  2.1497
29819SOL    HW293246   4.082   2.760  10.154  1.9306  1.9248 -1.8063
29820SOL     OW93247   4.391   9.814   7.366  0.4242 -0.1675 -0.2543
29820SOL    HW193248   4.330   9.779   7.301  0.2288  0.4764 -0.4242
29820SOL    HW293249   4.455   9.744   7.379 -0.4134 -0.8935  0.0161
29821SOL     OW93250   8.601   6.163   5.514 -0.2669 -0.3498 -0.1955
29821SOL    HW193251   8.554   6.147   5.596  0.0432 -1.2259 -0.1784
29821SOL    HW293252   8.651   6.243   5.530 -0.7992 -0.0904  0.2083
29822SOL     OW93253   5.225   4.812   4.528  0.0987 -0.0784  0.1011
29822SOL    HW193254   5.219   4.806   4.433 -0.5737  0.9157  0.0559
29822SOL    HW293255   5.190   4.729   4.560 -1.2018  0.2106 -0.5045
29823SOL     OW93256   9.202   4.714   2.601 -0.2356  0.6316 -0.7560
29823SOL    HW193257   9.210   4.707   2.505  1.4172  2.1433 -0.7839
29823SOL    HW293258   9.287   4.683   2.634 -0.9683 -0.3560  0.2900
29824SOL     OW93259   9.012   3.966   9.676  0.1817  0.0192 -0.1791
29824SOL    HW193260   9.008   3.891   9.617  3.6597 -1.6785  1.4198
29824SOL    HW293261   9.032   4.040   9.619 -0.2908 -0.8335 -1.4970
29825SOL     OW93262   0.429   9.631   5.114  0.3478  0.3030 -0.1168
29825SOL    HW193263   0.484   9.553   5.108 -0.8215 -0.5155 -0.6507
29825SOL    HW293264   0.362   9.619   5.047  1.0069  2.5094 -1.2913
29826SOL     OW93265   8.090   5.702   2.445  0.1671 -0.1189 -0.3044
29826SOL    HW193266   8.122   5.730   2.531  0.9219 -0.1791 -0.5579
29826SOL    HW293267   8.065   5.784   2.401  0.6921  0.0081 -0.3801
29827SOL     OW93268   4.347   5.591   5.850  0.2430  0.5312 -0.1758
29827SOL    HW193269   4.332   5.548   5.935 -1.1608 -0.3953 -0.8552
29827SOL    HW293270   4.418   5.652   5.867  0.4153 -0.0751  1.5259
29828SOL     OW93271   7.488   5.299   2.058 -0.0604  0.2324  0.0443
29828SOL    HW193272   7.396   5.295   2.084  0.2133 -0.6651  0.9410
29828SOL    HW293273   7.496   5.232   1.990  0.0004  0.0648  0.2153
29829SOL     OW93274   6.693   3.266   4.926 -0.1748 -0.0989  0.3820
29829SOL    HW193275   6.690   3.234   5.016  2.4334 -1.4790  0.0750
29829SOL    HW293276   6.753   3.341   4.930  1.3470 -1.2376 -0.4422
29830SOL     OW93277   9.121   8.629   1.194  0.0255  0.1347 -0.0401
29830SOL    HW193278   9.091   8.643   1.104  1.6467 -4.7637 -1.6656
29830SOL    HW293279   9.198   8.684   1.203  0.1030  0.3771 -1.8839
29831SOL     OW93280   5.966   7.088   8.486  0.4429  0.1530  0.5281
29831SOL    HW193281   5.988   7.073   8.394 -0.2507  1.0405  0.2033
29831SOL    HW293282   5.985   7.005   8.529 -2.3046 -1.3813 -0.9964
29832SOL     OW93283   5.008   1.606   1.500  0.4320 -0.4983  0.1668
29832SOL    HW193284   4.958   1.685   1.518 -0.3546 -1.3194  1.8290
29832SOL    HW293285   5.091   1.637   1.465 -0.0701  1.0270  0.2609
29833SOL     OW93286   9.544   6.347  10.171 -0.0172 -0.2638  0.4708
29833SOL    HW193287   9.613   6.326  10.233  0.5913  0.0675 -0.0806
29833SOL    HW293288   9.477   6.280  10.186  1.6619 -2.4344 -0.9464
29834SOL     OW93289   9.066   9.480   8.664 -0.0978 -0.3591  0.1606
29834SOL    HW193290   9.154   9.502   8.694 -0.3962  1.1476 -0.0259
29834SOL    HW293291   9.066   9.499   8.571 -1.1147  1.4132  0.4732
29835SOL     OW93292   3.665   4.787   8.735  0.5286 -0.0932  0.2776
29835SOL    HW193293   3.596   4.813   8.674  0.8263  2.9981  1.0749
29835SOL    HW293294   3.734   4.750   8.680 -0.3908 -0.0774 -0.9094
29836SOL     OW93295   6.243   3.016   1.144 -0.3622  0.6134  0.2158
29836SOL    HW193296   6.187   2.953   1.190  1.7529 -1.9646 -0.5045
29836SOL    HW293297   6.210   3.018   1.055  0.8614 -1.2640 -0.3290
29837SOL     OW93298   0.787   5.714  10.061  0.5941  0.0732 -0.1924
29837SOL    HW193299   0.717   5.705  10.126 -0.5123  0.4428 -1.2947
29837SOL    HW293300   0.851   5.772  10.103 -0.3309  0.7090  0.3823
29838SOL     OW93301   9.412   9.564   2.344 -0.3895  0.3705  0.5441
29838SOL    HW193302   9.434   9.655   2.365  1.1152  0.0880  0.3400
29838SOL    HW293303   9.496   9.518   2.349 -0.6584 -0.5235 -1.8407
29839SOL     OW93304   7.982   8.986   7.338 -0.0983  0.0977  0.3207
29839SOL    HW193305   7.978   9.059   7.276  2.3606  0.6510  0.7317
29839SOL    HW293306   8.067   8.995   7.382 -0.1665 -2.4035  1.1569
29840SOL     OW93307   4.230   4.671   1.136  0.5372 -0.2592 -0.0424
29840SOL    HW193308   4.321   4.666   1.163  0.7498  2.8605  0.2740
29840SOL    HW293309   4.186   4.600   1.182  2.7456 -1.7344 -0.0939
29841SOL     OW93310  10.310   7.647   1.595 -0.7985 -0.1194 -0.3409
29841SOL    HW193311  10.399   7.612   1.587 -0.8926 -0.2716 -0.7111
29841SOL    HW293312  10.303   7.671   1.687 -1.9819 -4.4628  0.9534
29842SOL     OW93313   4.714   1.618   3.945  0.2439  0.2429 -0.2004
29842SOL    HW193314   4.757   1.700   3.919 -1.5022  1.2968  0.0728
29842SOL    HW293315   4.626   1.645   3.971 -1.6335 -2.1244 -3.4043
29843SOL     OW93316   1.112   0.360   2.621  0.1697  0.2511 -0.1036
29843SOL    HW193317   1.129   0.316   2.538  0.1408  0.2641 -0.1162
29843SOL    HW293318   1.150   0.302   2.687  2.2292  1.2969 -0.2797
29844SOL     OW93319   0.196   6.594   2.069  0.2346  0.1128  0.7364
29844SOL    HW193320   0.281   6.569   2.105  0.9533 -1.1110 -1.6369
29844SOL    HW293321   0.216   6.660   2.003 -0.6381 -0.2553  0.0921
29845SOL     OW93322   0.824   6.241   2.733  0.1170 -0.4487  0.5179
29845SOL    HW193323   0.855   6.180   2.666  0.0449 -0.7805  0.7866
29845SOL    HW293324   0.842   6.328   2.696 -0.8488 -0.6072 -0.3801
29846SOL     OW93325   7.674   6.769   8.813  0.5425  0.6169  0.5865
29846SOL    HW193326   7.623   6.723   8.746 -1.6712  1.3062  1.6909
29846SOL    HW293327   7.728   6.831   8.764  0.9731 -0.6986 -0.6921
29847SOL     OW93328   6.344   6.303   8.707 -0.2106  0.0533 -0.3404
29847SOL    HW193329   6.437   6.291   8.688 -0.2327 -1.2894  0.2726
29847SOL    HW293330   6.298   6.275   8.628 -0.1401 -1.1735  0.0273
29848SOL     OW93331   0.904   9.807   6.984 -0.1702 -0.1019  0.6482
29848SOL    HW193332   0.811   9.810   6.963  0.3576  1.5143 -1.8469
29848SOL    HW293333   0.911   9.852   7.069 -1.5531  0.4310  0.5036
29849SOL     OW93334   7.779   7.107   9.331 -0.3513  0.2777  0.4250
29849SOL    HW193335   7.706   7.047   9.318 -1.7981  1.9298  0.4930
29849SOL    HW293336   7.821   7.114   9.246  0.1854 -1.1857  0.5339
29850SOL     OW93337   7.934   2.957   1.540  0.4654  0.3468  0.0374
29850SOL    HW193338   7.994   2.888   1.514  0.1491  0.7687 -1.9335
29850SOL    HW293339   7.889   2.922   1.617  0.8451 -1.3035 -0.4617
29851SOL     OW93340   4.703   5.425   0.372 -0.2530  0.1285  0.2451
29851SOL    HW193341   4.686   5.462   0.459  0.0918 -1.3807  0.9856
29851SOL    HW293342   4.791   5.387   0.378  0.2666  1.0067 -1.1405
29852SOL     OW93343   8.746   7.623   6.107  0.1793  0.1850 -0.0360
29852SOL    HW193344   8.667   7.609   6.054  0.6543 -0.2503 -0.6427
29852SOL    HW293345   8.736   7.712   6.142 -0.4377  0.2418 -0.3394
29853SOL     OW93346   0.659   6.732   1.182 -0.0798 -0.2904  0.7777
29853SOL    HW193347   0.653   6.715   1.088 -3.1251  3.0213  0.1376
29853SOL    HW293348   0.588   6.680   1.220 -0.5223  0.3382  0.8265
29854SOL     OW93349   3.033   6.037   0.764 -0.6515  0.1658 -0.0159
29854SOL    HW193350   2.992   6.033   0.851 -1.2742  2.0277 -0.1776
29854SOL    HW293351   2.966   6.074   0.707  0.0506 -0.2002 -1.1062
29855SOL     OW93352  10.195   6.760   8.712  0.3700 -0.5009 -0.1146
29855SOL    HW193353  10.125   6.701   8.737  1.3924 -1.0978  1.4566
29855SOL    HW293354  10.240   6.716   8.640 -1.4200  0.3551 -1.8625
29856SOL     OW93355   7.392   8.200   6.659  0.0103 -0.3580  0.0688
29856SOL    HW193356   7.453   8.272   6.641  1.2182 -1.4282 -0.2495
29856SOL    HW293357   7.421   8.164   6.742  0.2890 -1.3378 -0.4396
29857SOL     OW93358   7.561   3.206   8.405  0.4152  0.3995  0.4517
29857SOL    HW193359   7.565   3.297   8.376 -0.0555  0.0861 -0.6461
29857SOL    HW293360   7.471   3.195   8.436 -0.6884 -0.5975 -2.7051
29858SOL     OW93361   7.684   2.745   8.029 -0.1439 -0.2972  0.6822
29858SOL    HW193362   7.651   2.833   8.017 -0.7805 -0.4104  1.5181
29858SOL    HW293363   7.659   2.721   8.119 -0.0656 -1.3501  0.4456
29859SOL     OW93364   0.285   3.489   0.291  0.8422 -0.4604 -0.1874
29859SOL    HW193365   0.206   3.506   0.341  1.3950  1.7298  0.0673
29859SOL    HW293366   0.313   3.402   0.318 -0.9012 -0.8428  0.4866
29860SOL     OW93367   8.670   9.634   1.198 -0.2048  0.0995  0.0313
29860SOL    HW193368   8.653   9.583   1.277 -0.5321 -0.1660 -0.2071
29860SOL    HW293369   8.589   9.629   1.149 -0.8908  2.3200  0.8048
29861SOL     OW93370   7.650   9.642   9.058  0.2333  0.6599  0.3541
29861SOL    HW193371   7.624   9.728   9.092 -0.0297  1.1499 -1.0174
29861SOL    HW293372   7.675   9.592   9.135 -0.4468  1.6876  1.2659
29862SOL     OW93373   7.034   8.243   8.322  0.1404 -0.6826  0.3523
29862SOL    HW193374   7.010   8.153   8.299  0.5298 -1.1121  1.5009
29862SOL    HW293375   7.002   8.253   8.412  1.1596 -0.0917  0.6690
29863SOL     OW93376   2.005   9.674   9.141  0.1675 -0.1580  0.0877
29863SOL    HW193377   1.924   9.655   9.095  1.2792  0.5783 -2.3694
29863SOL    HW293378   1.993   9.763   9.175  0.0045  0.0145 -0.4154
29864SOL     OW93379   2.378   6.540   1.415  0.0215 -0.4967  0.0761
29864SOL    HW193380   2.309   6.477   1.438  0.8626 -1.2956  0.4664
29864SOL    HW293381   2.377   6.542   1.319  0.2747 -1.4577  0.0397
29865SOL     OW93382   8.479   0.835   8.265 -0.4696  0.4475 -0.3523
29865SOL    HW193383   8.402   0.784   8.289 -0.0238 -0.4947 -0.8382
29865SOL    HW293384   8.539   0.825   8.339  0.7317 -2.0997 -1.5478
29866SOL     OW93385   8.207   8.724   7.411  0.1450 -0.6323  1.0535
29866SOL    HW193386   8.195   8.778   7.489 -0.9734  1.9782 -0.7393
29866SOL    HW293387   8.290   8.753   7.374  0.5451 -1.6651  1.1130
29867SOL     OW93388   6.863   3.425   1.599  0.3389 -0.2588  0.4351
29867SOL    HW193389   6.952   3.453   1.619  0.8329 -0.3920 -1.4056
29867SOL    HW293390   6.825   3.497   1.550  0.5055 -1.3604 -1.4369
29868SOL     OW93391  10.148   9.774   4.661 -0.3835 -0.0149 -0.3903
29868SOL    HW193392  10.120   9.804   4.748 -1.3986 -0.0324 -0.6953
29868SOL    HW293393  10.215   9.837   4.635  0.1938 -0.2237  0.5527
29869SOL     OW93394   3.447   8.229   5.522  0.3442 -0.2022  0.0213
29869SOL    HW193395   3.452   8.315   5.564  0.0079 -0.5052  0.6983
29869SOL    HW293396   3.494   8.240   5.440 -0.4153  0.8609 -0.2947
29870SOL     OW93397   7.850   9.802   2.456 -0.1199 -0.0993  0.2082
29870SOL    HW193398   7.811   9.749   2.387 -0.9235 -0.4760  0.9420
29870SOL    HW293399   7.779   9.859   2.486  0.0632 -0.3345  1.1138
29871SOL     OW93400   7.014   0.851   9.421  0.4628 -0.9704 -0.1351
29871SOL    HW193401   6.969   0.933   9.441  0.2211 -0.6901 -1.6986
29871SOL    HW293402   7.100   0.859   9.463  0.3218 -0.0629 -0.0019
29872SOL     OW93403   3.942   6.918   0.610  0.8730 -0.1768  0.2253
29872SOL    HW193404   3.939   6.896   0.517  0.3300  1.2773 -0.1353
29872SOL    HW293405   3.864   6.879   0.647 -1.0085  2.3642 -0.7397
29873SOL     OW93406   2.192   4.033   8.468  0.2544 -0.0185 -0.3263
29873SOL    HW193407   2.160   3.943   8.460 -2.9092  1.0418 -0.9519
29873SOL    HW293408   2.263   4.027   8.531 -0.7952 -2.7730  0.7612
29874SOL     OW93409   5.434   4.980  10.246  0.3552  0.2331  0.0857
29874SOL    HW193410   5.456   5.034  10.322  0.1664 -0.1621  0.4314
29874SOL    HW293411   5.493   4.905  10.252 -1.0449 -0.8682  1.0530
29875SOL     OW93412   2.531   7.663   8.251  0.1640 -0.2591 -0.2076
29875SOL    HW193413   2.455   7.720   8.240 -0.6118 -1.5904 -2.4370
29875SOL    HW293414   2.501   7.593   8.308 -0.7310 -1.3610 -1.9248
29876SOL     OW93415   9.863   5.781   4.790 -0.2239  0.7446 -0.0508
29876SOL    HW193416   9.838   5.690   4.804 -0.1680  0.8396  0.6845
29876SOL    HW293417   9.875   5.788   4.695  0.1173 -0.0956 -0.0757
29877SOL     OW93418   1.489   9.352   7.104 -0.1220 -0.2273 -0.2953
29877SOL    HW193419   1.413   9.384   7.057 -0.7869 -0.5363  0.5503
29877SOL    HW293420   1.564   9.383   7.053 -0.8100 -0.0442 -1.2082
29878SOL     OW93421   4.337   5.724   0.690 -0.1073  0.5582  0.5059
29878SOL    HW193422   4.273   5.706   0.621  0.0860  0.5719  0.3212
29878SOL    HW293423   4.381   5.805   0.662  1.0370 -0.2569 -0.1402
29879SOL     OW93424   6.690   2.339   2.347  0.1339  0.7292 -0.0199
29879SOL    HW193425   6.654   2.383   2.271 -1.5371  0.5483  0.6290
29879SOL    HW293426   6.671   2.397   2.420 -1.8310 -0.8293  0.8049
29880SOL     OW93427   5.919   4.654   7.254  0.3486  0.2288 -0.1763
29880SOL    HW193428   5.942   4.680   7.165 -0.0559 -2.5424 -1.1673
29880SOL    HW293429   5.823   4.658   7.257  0.2487 -1.4348 -0.4890
29881SOL     OW93430   1.796   7.206   1.423 -0.7111 -0.0422 -0.3280
29881SOL    HW193431   1.804   7.179   1.332 -0.7703  1.2094 -0.7250
29881SOL    HW293432   1.702   7.207   1.441 -0.6743 -3.0131  0.6538
29882SOL     OW93433   8.169   3.015   6.138  0.4004 -0.1866  0.1425
29882SOL    HW193434   8.171   3.078   6.210  1.0321 -0.8698  0.7386
29882SOL    HW293435   8.111   3.055   6.072  0.2354  0.6823  0.8017
29883SOL     OW93436   7.563   8.540   5.877  0.8729 -0.3978  0.2724
29883SOL    HW193437   7.608   8.592   5.943 -0.6148  1.3524 -0.0086
29883SOL    HW293438   7.544   8.601   5.806  0.7105 -1.7770 -0.9326
29884SOL     OW93439   7.920   0.078   0.209  0.1767 -0.1008 -0.7265
29884SOL    HW193440   7.938  -0.011   0.179  2.3126 -0.3898  1.1269
29884SOL    HW293441   7.975   0.133   0.153  0.0739 -0.1200 -0.8454
29885SOL     OW93442   9.910   2.469   8.576 -0.2692  0.6277  0.0363
29885SOL    HW193443   9.881   2.515   8.654  1.5829  1.8988  0.0518
29885SOL    HW293444   9.988   2.518   8.547 -0.3208 -0.3907 -2.0269
29886SOL     OW93445   1.829   3.152   0.054 -0.6740  0.6433  0.5326
29886SOL    HW193446   1.888   3.077   0.045 -0.5239  0.7597  0.5478
29886SOL    HW293447   1.883   3.228   0.034 -0.8542  0.7401  0.4114
29887SOL     OW93448   6.115   5.421   2.550  0.7984  0.9043  0.3930
29887SOL    HW193449   6.093   5.416   2.457  0.1100  1.2858  0.5273
29887SOL    HW293450   6.042   5.470   2.589  0.5198 -0.1904  1.3121
29888SOL     OW93451   7.286   0.558   6.200 -0.5338 -0.9939 -1.0465
29888SOL    HW193452   7.195   0.588   6.188 -0.2750 -0.4922 -1.8434
29888SOL    HW293453   7.278   0.470   6.237 -1.3292 -0.0636  1.1420
29889SOL     OW93454   0.849   0.263   1.094  0.0202  0.2179 -0.1876
29889SOL    HW193455   0.876   0.289   1.006  0.7060 -1.0218 -0.3816
29889SOL    HW293456   0.794   0.186   1.080 -0.1368  0.2108  0.4535
29890SOL     OW93457   2.351  10.217   9.542  0.7878  0.4099  0.3100
29890SOL    HW193458   2.326  10.278   9.472  0.7415 -0.4909 -0.4730
29890SOL    HW293459   2.414  10.158   9.501  1.0815  0.1271  1.1537
29891SOL     OW93460   6.372   2.982   3.374 -0.1522  0.3163 -0.2935
29891SOL    HW193461   6.347   2.923   3.302 -0.0597 -0.6821  0.4686
29891SOL    HW293462   6.434   3.043   3.334 -0.9634  0.4858 -1.3210
29892SOL     OW93463   5.814   5.081   2.537  0.5348  0.6245 -0.0616
29892SOL    HW193464   5.727   5.084   2.577  0.4201  0.0742 -0.2543
29892SOL    HW293465   5.811   5.146   2.468 -0.0171  0.0189 -0.6231
29893SOL     OW93466   6.241   1.404   6.917 -0.1977  0.3745 -0.0585
29893SOL    HW193467   6.275   1.432   6.832 -0.2794 -0.3378 -0.3296
29893SOL    HW293468   6.181   1.332   6.897 -0.9499  0.8265  0.5199
29894SOL     OW93469   1.926   5.545   5.416  0.0976  0.3775 -0.4230
29894SOL    HW193470   1.909   5.471   5.358 -0.3850 -0.0012  0.1874
29894SOL    HW293471   1.998   5.592   5.375  0.2639 -0.3108 -0.9299
29895SOL     OW93472   2.371   1.928   2.514 -0.2055  0.8018 -0.0230
29895SOL    HW193473   2.319   1.943   2.435  0.1524  0.0625 -0.4072
29895SOL    HW293474   2.368   2.012   2.560 -0.4121  1.2478 -0.8204
29896SOL     OW93475   0.128   1.106   5.720  0.3500 -0.1796  0.2944
29896SOL    HW193476   0.090   1.082   5.804 -2.0389  1.6287 -0.1740
29896SOL    HW293477   0.202   1.163   5.742 -0.8191  1.0478  1.2093
29897SOL     OW93478  10.197   7.551   9.905  0.2377 -0.2791  0.2716
29897SOL    HW193479  10.131   7.505   9.854  1.7079 -2.1344 -0.0616
29897SOL    HW293480  10.265   7.575   9.842 -0.4378  2.4526  0.4290
29898SOL     OW93481   7.572   1.964   1.995  0.5294 -0.5087  0.4193
29898SOL    HW193482   7.532   1.878   1.985  0.3674 -0.4602  0.6510
29898SOL    HW293483   7.563   1.984   2.088  1.5213 -0.7110  0.5802
29899SOL     OW93484   6.610   2.376   7.188  0.4149  0.3805 -0.2430
29899SOL    HW193485   6.640   2.457   7.147 -1.6347  0.3229 -2.0595
29899SOL    HW293486   6.538   2.403   7.244  0.7096 -0.0127  0.3319
29900SOL     OW93487   7.960   8.866   9.431  0.2785 -0.2953 -0.1051
29900SOL    HW193488   8.024   8.831   9.493 -0.6395 -1.4018  0.2588
29900SOL    HW293489   7.956   8.960   9.451  3.5307  0.3489 -1.7706
29901SOL     OW93490   6.397   1.191  10.109 -0.4008  0.3514  0.2688
29901SOL    HW193491   6.429   1.189  10.199 -0.9103 -2.5173  0.4645
29901SOL    HW293492   6.461   1.140  10.060 -0.1064  1.9018 -1.0734
29902SOL     OW93493   0.604   7.451   7.989  0.0676 -0.8863  0.3153
29902SOL    HW193494   0.536   7.457   7.922 -1.3628  0.0949  1.7808
29902SOL    HW293495   0.659   7.378   7.961 -1.2268 -1.3049 -1.2607
29903SOL     OW93496   7.430   4.070   1.299  0.1578  0.0835  0.0145
29903SOL    HW193497   7.381   4.121   1.364  1.6347  1.7729 -0.1270
29903SOL    HW293498   7.363   4.041   1.237 -1.0249  0.0111  1.2647
29904SOL     OW93499   4.674   4.677   3.127 -0.2911  0.5707  0.3724
29904SOL    HW193500   4.743   4.685   3.060 -0.2983 -0.8011  0.1818
29904SOL    HW293501   4.680   4.759   3.176  1.2238  0.6557  0.1098
29905SOL     OW93502   4.665   8.849   2.379 -0.4653  0.7411 -0.2815
29905SOL    HW193503   4.595   8.896   2.424 -0.2009  0.2014  0.7306
29905SOL    HW293504   4.723   8.919   2.346  0.0655  1.1657  1.4342
29906SOL     OW93505   5.119   7.284   9.672  0.7082 -0.2237 -0.5691
29906SOL    HW193506   5.091   7.311   9.759 -0.1604  0.6880 -1.1149
29906SOL    HW293507   5.104   7.360   9.617 -0.1254 -1.2377 -1.8067
29907SOL     OW93508   4.826   6.602   1.068 -0.5734 -0.1331  0.3906
29907SOL    HW193509   4.741   6.620   1.029  0.1756  0.6764 -0.9271
29907SOL    HW293510   4.822   6.643   1.155 -0.6468  2.1529 -0.6369
29908SOL     OW93511   7.654  10.128   5.195 -0.6452 -0.2102 -0.2493
29908SOL    HW193512   7.620  10.043   5.223  0.2088 -0.7286 -0.7546
29908SOL    HW293513   7.721  10.149   5.260 -0.8964  0.1176 -0.0907
29909SOL     OW93514   3.071   1.447   6.001  0.4783  0.2509 -0.1193
29909SOL    HW193515   2.991   1.395   5.997 -0.4263  1.6532 -1.0291
29909SOL    HW293516   3.127   1.409   5.933  1.9453 -2.7513  2.5334
29910SOL     OW93517   1.993   0.358   4.219  0.1712  0.1399 -0.3101
29910SOL    HW193518   2.088   0.359   4.228  0.4035  0.2192 -2.2182
29910SOL    HW293519   1.978   0.325   4.130 -1.5792  0.2784 -0.1059
29911SOL     OW93520   9.093   9.992   0.038 -0.5880  0.1815 -0.4288
29911SOL    HW193521   9.066   9.979  -0.053 -1.0195 -1.0024 -0.1400
29911SOL    HW293522   9.122   9.906   0.067 -1.8885  0.1986  1.0209
29912SOL     OW93523   5.397   6.580   1.689 -0.2399 -0.1947 -0.0890
29912SOL    HW193524   5.356   6.644   1.631 -0.4616  0.3914  0.6950
29912SOL    HW293525   5.394   6.621   1.776 -0.1688 -1.1659  0.3844
29913SOL     OW93526   3.295  10.342   3.482  0.7434  0.5886  0.0031
29913SOL    HW193527   3.337  10.337   3.568 -1.6675 -0.2857  1.2220
29913SOL    HW293528   3.208  10.378   3.500  0.6088  1.5262 -2.2778
29914SOL     OW93529   6.580   3.276   3.633  0.0137  0.6505 -0.4033
29914SOL    HW193530   6.576   3.338   3.705  0.5566 -1.7635  1.8427
29914SOL    HW293531   6.533   3.199   3.664  0.0749 -0.4213 -2.7371
29915SOL     OW93532   4.253   7.974   0.878 -0.1374  0.5419 -0.5664
29915SOL    HW193533   4.223   8.013   0.960  0.3439  0.7376 -0.4775
29915SOL    HW293534   4.190   8.005   0.812 -2.8155 -2.6073  0.2525
29916SOL     OW93535   4.245   0.100   6.681 -0.0882 -0.2044 -0.3107
29916SOL    HW193536   4.228   0.060   6.766  1.0579  1.4118  0.7416
29916SOL    HW293537   4.170   0.158   6.666 -0.0114 -0.0565 -0.1240
29917SOL     OW93538   9.582   6.118   5.389  0.3571 -0.2945 -0.1690
29917SOL    HW193539   9.589   6.044   5.329  0.0242 -0.9931  0.6374
29917SOL    HW293540   9.580   6.195   5.332 -2.0275 -1.0414 -1.2033
29918SOL     OW93541  10.072   8.991   6.336 -0.0383 -0.9380 -0.3727
29918SOL    HW193542  10.046   8.976   6.245 -1.2767 -1.0319 -0.0293
29918SOL    HW293543   9.990   8.983   6.385  0.5714 -0.6283  0.7210
29919SOL     OW93544   0.790   9.003   7.458 -0.2295 -0.1934 -0.4533
29919SOL    HW193545   0.814   9.064   7.527  0.3589  1.1509 -1.8040
29919SOL    HW293546   0.726   8.945   7.499  1.7621 -0.9246  1.8906
29920SOL     OW93547   6.050   9.496   1.930  0.1892  0.0147  0.2400
29920SOL    HW193548   6.060   9.421   1.872  0.6461  0.3081 -0.0641
29920SOL    HW293549   5.956   9.517   1.926  0.1561 -0.1900 -0.1103
29921SOL     OW93550   4.262   8.457   4.689  0.1031  0.0241 -0.0217
29921SOL    HW193551   4.337   8.490   4.639  0.3872 -1.2672 -0.4829
29921SOL    HW293552   4.295   8.449   4.778 -0.1219  1.4320  0.2096
29922SOL     OW93553   1.228   0.463   3.113 -0.4820  0.7943  0.4221
29922SOL    HW193554   1.155   0.524   3.100  0.6912  2.0230 -0.9634
29922SOL    HW293555   1.259   0.481   3.201 -1.3707  0.8095  0.7381
29923SOL     OW93556   8.304   5.661   9.136  0.1615  0.6245 -0.1502
29923SOL    HW193557   8.271   5.628   9.053  0.4656  1.4001 -0.5919
29923SOL    HW293558   8.279   5.753   9.137  0.5473  0.7299  0.4209
29924SOL     OW93559   0.284   7.643   6.509  0.5320 -0.0439 -0.3316
29924SOL    HW193560   0.310   7.682   6.593  1.8628  3.3363 -2.1442
29924SOL    HW293561   0.204   7.689   6.484  0.0008 -1.2039 -0.8556
29925SOL     OW93562   4.074   3.488   1.111 -0.1927 -0.3568  0.1222
29925SOL    HW193563   4.085   3.583   1.115  1.0600 -0.4884  0.4597
29925SOL    HW293564   4.133   3.455   1.179  0.2616 -1.4210 -0.7564
29926SOL     OW93565   2.211   2.542   8.559  0.0780  0.0826 -0.6964
29926SOL    HW193566   2.159   2.581   8.629  0.3755  1.5057 -1.2360
29926SOL    HW293567   2.159   2.467   8.530  0.2378 -0.9275  1.4209
29927SOL     OW93568   1.710   7.284   6.016  0.1597 -0.7419  0.2605
29927SOL    HW193569   1.671   7.210   6.063  0.0608 -0.5406  0.5009
29927SOL    HW293570   1.686   7.360   6.068  1.8930 -0.7194  1.1039
29928SOL     OW93571   3.948   3.235   0.543  0.0038 -0.0373 -0.1432
29928SOL    HW193572   4.041   3.259   0.548 -0.5527  2.1485  1.4242
29928SOL    HW293573   3.937   3.171   0.614  0.0174  1.0286  0.8600
29929SOL     OW93574  10.183   0.559   1.001  0.0646 -0.0921  0.3222
29929SOL    HW193575  10.258   0.593   0.953  0.8082  0.4224  1.7820
29929SOL    HW293576  10.219   0.486   1.053 -0.6650 -0.5079  0.2571
29930SOL     OW93577   8.349   1.850   5.663  0.0293  0.0721 -0.1608
29930SOL    HW193578   8.293   1.778   5.634  0.1562 -0.8060  1.5958
29930SOL    HW293579   8.435   1.809   5.677  1.2586  1.4267 -3.0011
29931SOL     OW93580   4.405   0.886   7.781  0.7678  0.3168 -0.3481
29931SOL    HW193581   4.416   0.867   7.688 -0.2024  1.0865 -0.6347
29931SOL    HW293582   4.475   0.948   7.802 -0.0493  1.5026 -1.0038
29932SOL     OW93583   6.634   5.988   9.825 -0.3830  0.0134 -0.5388
29932SOL    HW193584   6.563   5.945   9.777  0.0180  0.1576 -1.2771
29932SOL    HW293585   6.617   6.082   9.812 -1.0064  0.0951  0.6955
29933SOL     OW93586   9.167   3.975   8.266 -0.0810  0.3047  0.1515
29933SOL    HW193587   9.216   3.947   8.343  1.4912  0.7531 -0.6500
29933SOL    HW293588   9.076   3.978   8.296  0.0740 -2.3465  1.1963
29934SOL     OW93589   8.763   4.273  10.188  0.2523  0.3408  0.3880
29934SOL    HW193590   8.781   4.363  10.160 -1.0322  0.9786  1.4552
29934SOL    HW293591   8.669   4.261  10.171 -0.2375  0.2126  2.7397
29935SOL     OW93592   7.515   7.829   7.901 -0.0006 -0.2188  0.0883
29935SOL    HW193593   7.458   7.817   7.825 -1.0618 -0.9275  0.9696
29935SOL    HW293594   7.534   7.740   7.930  0.5843  0.0458  0.5263
29936SOL     OW93595   3.107   7.732   1.285  0.3587  0.2494  0.0650
29936SOL    HW193596   3.169   7.680   1.336  0.7810 -0.9978 -1.6266
29936SOL    HW293597   3.025   7.727   1.334  0.4033 -1.9992  0.0008
29937SOL     OW93598   4.151   4.009   0.631 -0.2048 -0.2917  0.4624
29937SOL    HW193599   4.103   4.088   0.658 -0.7106  0.3840 -2.1523
29937SOL    HW293600   4.219   3.999   0.698 -1.3618  1.1833  1.9605
29938SOL     OW93601   8.654   9.878   4.487  0.0296  0.1515 -0.0601
29938SOL    HW193602   8.736   9.837   4.514  0.7592  0.3435 -1.8387
29938SOL    HW293603   8.661   9.968   4.519  2.0879  1.1679 -2.9349
29939SOL     OW93604   2.739   3.389   5.741  0.4128 -0.1530 -0.0372
29939SOL    HW193605   2.816   3.423   5.787 -0.3896  2.7179 -0.6035
29939SOL    HW293606   2.683   3.354   5.811  0.4916  1.4710  0.9064
29940SOL     OW93607   9.029   3.938   2.493  0.4603  1.0722  0.1136
29940SOL    HW193608   8.964   3.977   2.551 -0.0631 -0.2629  0.4639
29940SOL    HW293609   9.046   4.005   2.427 -0.7697  1.6917  0.4034
29941SOL     OW93610   2.045   3.745   0.684 -0.5100  0.2404 -0.2912
29941SOL    HW193611   2.033   3.830   0.642  0.2268 -0.3287 -1.7019
29941SOL    HW293612   2.019   3.681   0.617  3.2734 -0.7940 -0.9751
29942SOL     OW93613   4.385   1.317   5.280  0.6038 -0.2334  0.4695
29942SOL    HW193614   4.463   1.273   5.247 -0.0199  0.0656 -1.4859
29942SOL    HW293615   4.341   1.250   5.334  0.9486 -1.2016 -0.4235
29943SOL     OW93616   7.736   0.790   4.472  0.2770  0.3589 -0.1256
29943SOL    HW193617   7.668   0.730   4.441 -0.8035  1.5031  0.0004
29943SOL    HW293618   7.775   0.825   4.392  2.4105 -2.0505 -0.2875
29944SOL     OW93619   4.243   8.438   6.081  0.0417 -0.4435 -0.0218
29944SOL    HW193620   4.219   8.435   6.174  0.1958  1.6367  0.1326
29944SOL    HW293621   4.303   8.365   6.070  1.1990  0.1369  1.9004
29945SOL     OW93622   6.604   1.550   2.855 -0.2310 -0.0319 -0.4175
29945SOL    HW193623   6.560   1.465   2.857  0.5543 -0.4436 -0.4595
29945SOL    HW293624   6.566   1.594   2.779  1.9142 -1.7652 -2.6794
29946SOL     OW93625   8.956   6.728   6.719  0.2000  0.1612  0.7724
29946SOL    HW193626   8.921   6.751   6.633  0.7368 -1.1220  0.1804
29946SOL    HW293627   8.931   6.636   6.732  1.4195 -0.1216  1.3014
29947SOL     OW93628   0.235  10.222   5.938 -0.7171 -0.8887 -0.0206
29947SOL    HW193629   0.261  10.264   5.856  2.9350 -0.9222  0.9315
29947SOL    HW293630   0.157  10.270   5.967  0.4508  2.0484 -1.3682
29948SOL     OW93631   6.626   2.927   4.101 -0.2147 -0.4669 -1.2527
29948SOL    HW193632   6.550   2.978   4.073  0.7238  1.3200 -0.6602
29948SOL    HW293633   6.648   2.873   4.024 -0.9901  0.3065 -2.0393
29949SOL     OW93634   0.773   0.095   9.028  0.3275 -0.2459 -0.1074
29949SOL    HW193635   0.827   0.021   9.057 -2.1518 -3.1070 -2.2115
29949SOL    HW293636   0.711   0.057   8.966 -1.2840  3.6274 -1.1634
29950SOL     OW93637   5.361   1.748   2.249 -0.2153  0.0715  0.0727
29950SOL    HW193638   5.363   1.808   2.175  0.0115 -1.1553 -0.9462
29950SOL    HW293639   5.380   1.803   2.325  0.8441  1.1388 -0.9279
29951SOL     OW93640   3.031   1.871   0.510  0.1255  0.2710 -0.7389
29951SOL    HW193641   2.965   1.802   0.525  1.6697 -1.0294  0.4567
29951SOL    HW293642   2.981   1.944   0.474 -1.9740 -0.6451  0.1319
29952SOL     OW93643   3.315   0.824   2.459  0.7190  0.3934  0.0157
29952SOL    HW193644   3.290   0.776   2.380 -1.4249  1.3768  0.0135
29952SOL    HW293645   3.318   0.758   2.528  0.5023 -0.1584 -0.5013
29953SOL     OW93646   3.692   4.950   0.863 -0.1504 -0.6074 -0.2009
29953SOL    HW193647   3.603   4.940   0.830 -0.2571 -0.4062  0.0261
29953SOL    HW293648   3.735   5.007   0.799  0.1499 -1.6145 -0.9242
29954SOL     OW93649   3.113   3.307   2.574  0.3763  0.1513 -0.0659
29954SOL    HW193650   3.075   3.391   2.597 -0.3745 -0.4444  0.9995
29954SOL    HW293651   3.146   3.318   2.485 -0.3320  1.3540 -0.1964
29955SOL     OW93652   3.706   0.077   2.725  0.5946  0.2644 -0.1927
29955SOL    HW193653   3.614   0.083   2.753  0.4942 -0.0595 -0.4558
29955SOL    HW293654   3.715  -0.011   2.689  0.1671  1.3468 -3.1483
29956SOL     OW93655   7.529  10.284   6.110  0.1465  0.2950  0.2617
29956SOL    HW193656   7.583  10.207   6.092  0.2293  0.8403 -2.1635
29956SOL    HW293657   7.588  10.345   6.153  0.1466 -0.8658  1.9913
29957SOL     OW93658   1.539   6.994   0.701 -0.1823  0.2424  0.0492
29957SOL    HW193659   1.497   6.947   0.629 -0.8152 -1.0291  1.1840
29957SOL    HW293660   1.485   7.072   0.713 -2.0531 -1.1250  1.1704
29958SOL     OW93661   6.804   0.786   6.944 -0.2610  0.2918 -0.1174
29958SOL    HW193662   6.714   0.794   6.913  0.2565  0.1271 -1.7734
29958SOL    HW293663   6.819   0.691   6.948 -0.3240  0.3143  0.6510
29959SOL     OW93664   4.713   5.171   9.953 -0.1895 -0.0797 -0.0174
29959SOL    HW193665   4.629   5.186   9.996 -0.9471 -0.3536 -1.3257
29959SOL    HW293666   4.772   5.235   9.992 -0.7352 -0.5115  1.6131
29960SOL     OW93667   1.667   9.178   4.965 -0.1542  0.3315  0.3424
29960SOL    HW193668   1.756   9.209   4.980 -0.0900 -0.1603  1.0201
29960SOL    HW293669   1.669   9.086   4.991 -0.6556  0.0933 -0.4283
29961SOL     OW93670   0.127   3.719   4.707 -0.3695 -0.2891  0.2326
29961SOL    HW193671   0.157   3.785   4.644 -1.0941  0.0148  0.1909
29961SOL    HW293672   0.186   3.730   4.782 -1.2366  1.2956  0.7447
29962SOL     OW93673   6.463   2.444   0.360 -0.1310  0.2085  0.4253
29962SOL    HW193674   6.431   2.507   0.296 -0.1645  0.2402  0.4735
29962SOL    HW293675   6.530   2.491   0.408  0.8527 -0.2315 -0.4771
29963SOL     OW93676   6.771   6.410   4.349  0.0302  0.3008  0.0768
29963SOL    HW193677   6.739   6.325   4.319  2.0918 -0.7673  0.6805
29963SOL    HW293678   6.791   6.458   4.269 -0.6968  0.0327 -0.2685
29964SOL     OW93679   6.446   4.797   7.868 -0.3730 -0.6188 -0.5576
29964SOL    HW193680   6.367   4.802   7.814 -0.3812 -1.1877 -0.6010
29964SOL    HW293681   6.516   4.830   7.811 -0.7039  0.7051 -0.2398
29965SOL     OW93682   9.621   9.144   5.777 -0.3918  0.2619  0.0094
29965SOL    HW193683   9.603   9.137   5.683  0.0290  0.7687 -0.1148
29965SOL    HW293684   9.540   9.116   5.819 -1.2688  1.8606 -0.5262
29966SOL     OW93685   9.563   7.811   0.361  0.0385 -0.5326  0.0898
29966SOL    HW193686   9.530   7.830   0.274  2.2908 -0.5761 -0.8384
29966SOL    HW293687   9.658   7.821   0.354  0.3322 -0.9717  2.4279
29967SOL     OW93688   6.641   1.454   4.206 -0.4971 -0.6006 -0.0363
29967SOL    HW193689   6.611   1.456   4.298  2.5617 -0.2250  1.0545
29967SOL    HW293690   6.614   1.539   4.171 -2.0238 -0.8856  0.3614
29968SOL     OW93691   0.805   1.392   9.441 -0.3125 -0.0846  0.0526
29968SOL    HW193692   0.728   1.347   9.406 -1.0090  0.6387  0.6271
29968SOL    HW293693   0.802   1.374   9.535 -0.8677  1.5121  0.3751
29969SOL     OW93694   8.472   0.572   6.398  0.4719 -0.1085  0.1384
29969SOL    HW193695   8.423   0.537   6.472  0.0259  0.4402  0.1152
29969SOL    HW293696   8.489   0.663   6.422 -1.6484  0.7678 -1.3637
29970SOL     OW93697   6.772   1.023   2.686 -0.0791  0.0024  0.2826
29970SOL    HW193698   6.866   1.018   2.705 -0.0349 -1.6217 -0.2309
29970SOL    HW293699   6.767   1.042   2.593 -0.1820 -3.0638 -0.4234
29971SOL     OW93700   7.029   6.307   1.326  0.1957 -0.8474 -0.4209
29971SOL    HW193701   7.057   6.287   1.416 -0.7515 -1.4439 -0.2409
29971SOL    HW293702   6.933   6.310   1.332  0.0400 -2.2804 -1.6863
29972SOL     OW93703   9.435   6.241   5.827  0.1408 -0.0905  0.3212
29972SOL    HW193704   9.522   6.280   5.834  0.8741 -1.5625 -0.2425
29972SOL    HW293705   9.426   6.219   5.735 -0.4603 -0.7866  0.5396
29973SOL     OW93706   5.687   9.295   5.699  1.0141  0.1327  0.4029
29973SOL    HW193707   5.595   9.268   5.691  0.4043  2.0304  0.3817
29973SOL    HW293708   5.716   9.306   5.608  0.2397  2.5317  0.3694
29974SOL     OW93709   7.982   2.747   4.833 -0.1638  0.0648 -0.2085
29974SOL    HW193710   7.935   2.693   4.896  0.8738  1.1612  1.6058
29974SOL    HW293711   8.074   2.722   4.844  0.1051  0.7590 -0.8079
29975SOL     OW93712   9.327   5.804   0.230  0.0134  0.0758 -0.0667
29975SOL    HW193713   9.232   5.802   0.235  0.0632 -0.7612  1.0051
29975SOL    HW293714   9.352   5.872   0.294  0.1359  0.4509 -0.5067
29976SOL     OW93715   9.150  10.262   2.240 -0.3413  0.2630  0.0328
29976SOL    HW193716   9.172  10.325   2.309 -0.0625 -1.0191  1.1614
29976SOL    HW293717   9.089  10.201   2.282  0.5658 -1.0860 -0.5471
29977SOL     OW93718   0.945   0.332   1.373  0.0640 -0.0180  0.1396
29977SOL    HW193719   0.903   0.342   1.288  0.6862  1.1793 -0.0463
29977SOL    HW293720   0.890   0.383   1.433  1.3702  1.8426 -0.1680
29978SOL     OW93721  10.110   8.724   4.467  0.3838 -0.1912 -0.2120
29978SOL    HW193722  10.067   8.695   4.548  0.7929 -0.5486 -0.1177
29978SOL    HW293723  10.053   8.692   4.397 -1.4838  2.4822 -0.0658
29979SOL     OW93724   3.628   0.013   3.265 -0.3002 -0.0021 -0.9997
29979SOL    HW193725   3.566  -0.002   3.194 -1.0128 -1.0260 -0.1770
29979SOL    HW293726   3.575   0.015   3.344  0.6263 -0.0766 -0.3583
29980SOL     OW93727   7.685   2.130   1.433  0.0542  0.4462  0.2255
29980SOL    HW193728   7.658   2.209   1.386  1.9601  0.5893 -0.7185
29980SOL    HW293729   7.667   2.059   1.372  0.8480  0.4459 -0.0186
29981SOL     OW93730   0.130   1.191   4.023  0.0887  0.0721  0.0930
29981SOL    HW193731   0.209   1.190   3.969  0.7649  0.0140  1.0651
29981SOL    HW293732   0.160   1.165   4.110 -1.0456 -0.1819  0.4215
29982SOL     OW93733   0.174   3.744   6.056 -0.3226 -0.3953  0.2015
29982SOL    HW193734   0.099   3.762   5.999  1.0189 -1.4828 -2.0723
29982SOL    HW293735   0.199   3.830   6.091 -0.1088  0.6778 -2.3622
29983SOL     OW93736   7.733   3.602   9.804 -0.4407 -1.0866  0.7332
29983SOL    HW193737   7.772   3.515   9.792  1.4824 -0.0310 -1.1932
29983SOL    HW293738   7.655   3.602   9.748  0.3164 -1.1419 -0.3426
29984SOL     OW93739   4.138   8.029   0.307  0.3215  0.1978  0.4166
29984SOL    HW193740   4.210   8.061   0.361  0.8153  1.2116 -0.7942
29984SOL    HW293741   4.172   7.948   0.269 -0.1839 -0.7519  1.9001
29985SOL     OW93742   3.712   2.300   0.180  0.2347 -0.0254 -0.1267
29985SOL    HW193743   3.723   2.389   0.214 -0.8128 -1.0194  3.2860
29985SOL    HW293744   3.718   2.309   0.085  2.8187  3.2627  0.1629
29986SOL     OW93745   8.968   2.115   2.997  0.0693  0.2580 -0.0361
29986SOL    HW193746   8.945   2.070   2.916 -0.9352  0.8919 -0.1361
29986SOL    HW293747   8.980   2.207   2.971  2.0207  0.1028  0.1649
29987SOL     OW93748   9.321   6.775   1.516  0.1574 -0.1844  0.2777
29987SOL    HW193749   9.243   6.731   1.549 -0.2004  0.1766 -0.0680
29987SOL    HW293750   9.356   6.823   1.591 -1.8614  2.3883 -0.2963
29988SOL     OW93751   2.149   2.472   1.000 -0.2236 -0.2947  0.3796
29988SOL    HW193752   2.132   2.418   1.077 -0.1916 -1.3303 -0.3208
29988SOL    HW293753   2.161   2.561   1.035 -0.9573 -0.6091  1.4804
29989SOL     OW93754   6.431   8.457   1.115 -0.0344 -0.1342  0.3546
29989SOL    HW193755   6.357   8.498   1.071  0.0867 -0.5598 -0.2582
29989SOL    HW293756   6.477   8.410   1.045  0.3617 -0.5252  0.8736
29990SOL     OW93757   5.387   2.596   8.798 -0.2777 -0.2195 -0.1023
29990SOL    HW193758   5.469   2.551   8.775 -0.8336 -0.6834 -1.2516
29990SOL    HW293759   5.415   2.683   8.825  0.5458 -0.1002 -1.2596
29991SOL     OW93760   3.008   7.794   7.896 -0.3736  0.3182 -1.1182
29991SOL    HW193761   3.030   7.705   7.924 -1.2007  0.4375 -0.0356
29991SOL    HW293762   3.070   7.850   7.944 -0.3683  0.3733 -1.1899
29992SOL     OW93763   4.548   5.257   9.082  0.2461 -0.0438  0.7423
29992SOL    HW193764   4.557   5.303   9.166 -0.0901  2.5025 -0.5294
29992SOL    HW293765   4.494   5.180   9.103 -0.7717  1.1286  2.6720
29993SOL     OW93766   5.499   4.460   1.641 -0.3247 -0.4014 -0.4373
29993SOL    HW193767   5.512   4.523   1.711  0.0789  0.0864 -0.9363
29993SOL    HW293768   5.522   4.376   1.680 -0.6585 -0.2153  0.1738
29994SOL     OW93769   7.208   3.600   9.246 -0.1320 -0.0309 -0.0375
29994SOL    HW193770   7.263   3.580   9.171 -1.4919  0.6906 -1.2924
29994SOL    HW293771   7.196   3.517   9.291  1.6288 -0.2680  0.0676
29995SOL     OW93772   7.903   1.492   9.239 -0.3573  0.3464 -0.2511
29995SOL    HW193773   7.952   1.427   9.289 -0.4267  0.0359 -0.5861
29995SOL    HW293774   7.838   1.442   9.190  0.0715  0.5792 -1.0826
29996SOL     OW93775   1.652   8.791   4.444  0.2043 -0.0806  0.0708
29996SOL    HW193776   1.693   8.735   4.509  0.0730 -1.4903 -0.9932
29996SOL    HW293777   1.677   8.752   4.360 -0.6673  0.9191 -0.6823
29997SOL     OW93778   4.845   1.434   4.144  0.0907  0.4671 -0.2996
29997SOL    HW193779   4.873   1.346   4.118  1.7121  0.8681 -0.0452
29997SOL    HW293780   4.774   1.455   4.083 -0.6604 -1.1824 -0.0600
29998SOL     OW93781   8.709   6.300   4.284  0.7142  0.0213 -0.2317
29998SOL    HW193782   8.762   6.335   4.213  1.4330 -0.6008 -0.0173
29998SOL    HW293783   8.770   6.288   4.357 -0.0173  0.6931  0.5176
29999SOL     OW93784   1.208   9.345   1.798 -0.0414  0.1582  0.2162
29999SOL    HW193785   1.154   9.422   1.781 -1.3198 -0.8966 -0.7990
29999SOL    HW293786   1.146   9.278   1.827  1.0672 -0.4435  1.2990
30000SOL     OW93787   3.890   0.803   3.162 -0.0335 -0.6829  0.2077
30000SOL    HW193788   3.983   0.813   3.142  0.0147  4.5252  1.4387
30000SOL    HW293789   3.849   0.788   3.077  1.6854  0.8705 -0.9905
30001SOL     OW93790   7.429   2.404   1.869 -0.2005 -0.0050 -0.0784
30001SOL    HW193791   7.422   2.342   1.942 -0.7005 -0.6830 -0.6824
30001SOL    HW293792   7.523   2.424   1.864 -0.2715  0.8360  1.3647
30002SOL     OW93793   8.444   0.059   4.836 -0.0166  0.8743 -0.1278
30002SOL    HW193794   8.386   0.134   4.826 -0.0667  0.8993  0.2999
30002SOL    HW293795   8.468   0.060   4.929 -1.7008 -0.8531  0.3964
30003SOL     OW93796   5.073   6.914   8.384  0.2797 -0.0588 -0.0717
30003SOL    HW193797   5.134   6.854   8.341  1.8070  0.6568  0.9912
30003SOL    HW293798   5.072   6.887   8.475  0.7627  1.3156  0.3622
30004SOL     OW93799   9.537   1.027   8.641  0.6220 -0.0359  0.5932
30004SOL    HW193800   9.622   1.071   8.641  0.4507  0.2980  0.6312
30004SOL    HW293801   9.496   1.055   8.559  0.5108 -0.1257  0.6179
30005SOL     OW93802   6.834   6.617   4.136 -0.5058  0.3933  0.1358
30005SOL    HW193803   6.906   6.650   4.190  0.9936 -3.0350  0.4881
30005SOL    HW293804   6.873   6.547   4.085 -3.4540 -1.1605 -0.1910
30006SOL     OW93805   5.776   4.152   0.333  0.1702 -0.5038 -0.2912
30006SOL    HW193806   5.728   4.232   0.351 -0.6869 -1.2949  1.1511
30006SOL    HW293807   5.766   4.138   0.239  1.3925  1.6940 -0.8074
30007SOL     OW93808  10.059   5.272   9.657  0.2493 -0.1593 -0.2459
30007SOL    HW193809  10.042   5.353   9.610 -1.1936 -0.7983 -0.8910
30007SOL    HW293810  10.073   5.207   9.589  2.2966 -0.3225  0.2596
30008SOL     OW93811   8.727   8.272   7.210  0.7277  0.0469 -0.2310
30008SOL    HW193812   8.686   8.342   7.159 -0.3460  1.0738  1.9398
30008SOL    HW293813   8.656   8.210   7.227  1.5607 -1.3793 -1.7085
30009SOL     OW93814   1.717   0.415   6.151  0.1820 -0.3678  0.3225
30009SOL    HW193815   1.686   0.399   6.062 -1.1383  0.5970  0.5650
30009SOL    HW293816   1.795   0.470   6.141 -0.0928 -0.0719 -0.2448
30010SOL     OW93817   1.377   3.521   6.467 -0.0655 -0.3554 -0.1045
30010SOL    HW193818   1.424   3.461   6.524  0.2527 -2.2050 -2.1680
30010SOL    HW293819   1.413   3.503   6.380 -2.1617  0.6487 -1.2403
30011SOL     OW93820   0.749   8.341   0.770  0.6188  0.0436 -0.3738
30011SOL    HW193821   0.690   8.318   0.698 -1.0021 -0.0495  0.9356
30011SOL    HW293822   0.701   8.407   0.821  1.6720  0.0148  0.7067
30012SOL     OW93823   4.115   1.991   2.226  0.0505 -0.6284 -0.2474
30012SOL    HW193824   4.132   1.935   2.151 -1.3049 -0.7810 -0.4573
30012SOL    HW293825   4.109   1.931   2.301  1.9568 -0.4279  0.1096
30013SOL     OW93826   1.023   8.825   8.017 -0.7200  0.2414 -0.0533
30013SOL    HW193827   0.992   8.801   8.104  1.8050  2.1651  1.5208
30013SOL    HW293828   0.977   8.907   7.997  0.3331  0.9946  0.5224
30014SOL     OW93829   9.123   0.283   1.418 -0.1234  0.4095 -0.1187
30014SOL    HW193830   9.162   0.195   1.417  2.3855  1.4563 -0.1620
30014SOL    HW293831   9.154   0.324   1.338 -0.4893  1.6638  0.3571
30015SOL     OW93832   1.374   3.170   9.780  0.2324 -0.0304 -0.0061
30015SOL    HW193833   1.383   3.090   9.728 -0.7252 -0.5106  0.5470
30015SOL    HW293834   1.440   3.160   9.849  0.0954 -0.3666  0.0800
30016SOL     OW93835   9.799   9.095   8.101  0.2412 -0.0572 -0.3787
30016SOL    HW193836   9.746   9.161   8.056  0.5578  0.5073  0.0750
30016SOL    HW293837   9.749   9.014   8.090 -2.4472  0.9598  2.7975
30017SOL     OW93838   2.254   0.399   4.298  0.1102 -0.5780 -0.2376
30017SOL    HW193839   2.318   0.337   4.331  0.4657 -0.2969 -0.3973
30017SOL    HW293840   2.297   0.442   4.224 -0.2936 -0.4538 -0.4068
30018SOL     OW93841   4.433   2.913   3.958 -0.4062  1.1144  0.1694
30018SOL    HW193842   4.339   2.928   3.969 -0.0638  2.5002  1.5937
30018SOL    HW293843   4.456   2.853   4.029 -0.3928 -0.2210 -0.9166
30019SOL     OW93844   6.732   0.595   3.149 -0.7034  0.1590 -0.1701
30019SOL    HW193845   6.724   0.516   3.096  0.4419 -0.3879  0.4405
30019SOL    HW293846   6.826   0.604   3.164 -0.7920  1.7483 -0.3871
30020SOL     OW93847   5.284   9.876   6.584 -0.1652  0.3789 -0.2346
30020SOL    HW193848   5.291   9.895   6.678 -0.2039  0.9209 -0.3428
30020SOL    HW293849   5.263   9.960   6.544 -2.2126 -0.2218 -0.5067
30021SOL     OW93850   0.538   3.801   0.039 -0.0570 -0.4148  0.5858
30021SOL    HW193851   0.452   3.762   0.056  0.3872 -1.5186  0.4146
30021SOL    HW293852   0.589   3.782   0.118  0.1979 -0.2636  0.4581
30022SOL     OW93853   9.131   3.696   8.402  0.4170  0.5980 -0.1410
30022SOL    HW193854   9.161   3.759   8.468  1.2991  0.9209 -0.8123
30022SOL    HW293855   9.212   3.657   8.368 -0.0844 -0.3597 -0.2597
30023SOL     OW93856   4.500   4.236   4.746  0.3751  0.2561 -0.3634
30023SOL    HW193857   4.546   4.320   4.751  0.6203  0.3799 -2.9486
30023SOL    HW293858   4.417   4.252   4.790  0.6341  1.7103 -0.3278
30024SOL     OW93859   2.788   5.744   9.329  0.0685  0.5418 -0.1191
30024SOL    HW193860   2.846   5.818   9.313  1.3825 -0.6337 -0.9858
30024SOL    HW293861   2.721   5.751   9.260 -0.9816  1.9871  0.9802
30025SOL     OW93862   3.537   0.361   9.511 -0.1492  0.0098 -0.6597
30025SOL    HW193863   3.516   0.301   9.583  0.4270 -1.6829 -1.8456
30025SOL    HW293864   3.630   0.380   9.522 -0.4090  1.0658 -0.0639
30026SOL     OW93865   5.712   3.191   7.594  0.1807  0.3482  0.3830
30026SOL    HW193866   5.805   3.173   7.608  0.3063  0.7912  0.1436
30026SOL    HW293867   5.692   3.260   7.658 -0.1383 -0.1728  0.8592
30027SOL     OW93868   9.263   9.406   9.010 -0.2055  0.3296  0.0270
30027SOL    HW193869   9.324   9.342   9.046  1.2543  1.9543  0.5781
30027SOL    HW293870   9.299   9.429   8.925 -0.0007  1.3375  0.3738
30028SOL     OW93871   2.641   3.621   1.450  0.0537 -0.4908  0.4759
30028SOL    HW193872   2.648   3.708   1.410 -0.8088 -0.7120 -0.1961
30028SOL    HW293873   2.587   3.635   1.527 -0.8779 -0.5651 -0.1408
30029SOL     OW93874   0.946   8.592   7.816  0.2218  0.4538 -0.0614
30029SOL    HW193875   0.963   8.668   7.872 -2.1385  1.2983 -0.3971
30029SOL    HW293876   0.851   8.582   7.817  0.3758 -1.6856 -1.1259
30030SOL     OW93877   5.386   2.204   4.129 -0.0444  0.0799  0.4140
30030SOL    HW193878   5.467   2.220   4.176 -0.3998  1.8925  0.4781
30030SOL    HW293879   5.318   2.203   4.197 -0.4581  1.9234  0.0847
30031SOL     OW93880   8.906   8.533   6.921 -0.4644  0.4235  0.3653
30031SOL    HW193881   8.863   8.618   6.935  2.0364  1.7804  0.3697
30031SOL    HW293882   8.987   8.539   6.972 -0.3622 -2.1286  0.6104
30032SOL     OW93883   5.912   0.740  10.083 -0.3859  0.0836  0.0941
30032SOL    HW193884   5.840   0.696  10.127  0.6296  1.1256  3.0673
30032SOL    HW293885   5.969   0.669  10.053 -0.8110 -0.7038  1.0924
30033SOL     OW93886   1.658   4.191   9.933  0.4257 -0.3146 -0.4033
30033SOL    HW193887   1.665   4.149  10.019  0.0666 -1.4769 -0.9359
30033SOL    HW293888   1.662   4.120   9.870 -1.6240  0.2683 -1.2828
30034SOL     OW93889   8.117   0.839   2.093  0.6217 -0.5549  0.1226
30034SOL    HW193890   8.098   0.745   2.100  0.2261 -0.3688  2.0051
30034SOL    HW293891   8.212   0.844   2.094  0.7162 -0.8360  3.2709
30035SOL     OW93892   9.846   0.069   1.360 -0.3868 -0.4685 -0.6615
30035SOL    HW193893   9.789   0.065   1.437 -1.1949 -2.9882 -1.2877
30035SOL    HW293894   9.867  -0.023   1.341  3.0442  0.2537 -1.1297
30036SOL     OW93895   8.291   3.955   5.834 -0.0658 -0.1300  0.3613
30036SOL    HW193896   8.221   3.943   5.898 -0.1956  0.5922  0.3642
30036SOL    HW293897   8.365   3.904   5.869  0.1931  1.0572  1.6270
30037SOL     OW93898   8.787   4.110   3.976 -0.1405  0.5382 -0.0444
30037SOL    HW193899   8.815   4.041   4.036 -0.9327  0.9381  0.8181
30037SOL    HW293900   8.862   4.169   3.971 -0.1041  0.5554  0.6444
30038SOL     OW93901   1.421   7.254   8.608 -0.1293  0.2088 -0.3206
30038SOL    HW193902   1.479   7.220   8.675  0.4818  1.3948 -0.2207
30038SOL    HW293903   1.393   7.176   8.559  1.6869 -0.3916 -0.4915
30039SOL     OW93904   9.358  10.105   9.788  0.5674  0.0794  0.1101
30039SOL    HW193905   9.286  10.162   9.758 -0.4840  0.0655  2.4073
30039SOL    HW293906   9.327  10.017   9.770  1.3492  0.1122 -1.6244
30040SOL     OW93907   2.630   8.900   7.702  0.3836  0.2271  0.2811
30040SOL    HW193908   2.675   8.984   7.711  0.6833  0.3504 -1.8191
30040SOL    HW293909   2.537   8.922   7.708  0.4352  0.8278 -0.8484
30041SOL     OW93910   1.097   9.523   5.166 -0.3270  0.3238  0.1418
30041SOL    HW193911   1.145   9.451   5.206  0.3617 -0.0836 -1.3621
30041SOL    HW293912   1.051   9.484   5.092 -1.7779  1.0152  0.6445
30042SOL     OW93913   0.556  10.059   6.586  0.6491  0.3482 -0.2604
30042SOL    HW193914   0.619  10.131   6.580  0.0371  0.8044 -1.6909
30042SOL    HW293915   0.609   9.980   6.592  1.3350  0.8561  0.7173
30043SOL     OW93916   4.972   7.577   2.939  0.5073  0.0575 -0.1312
30043SOL    HW193917   4.883   7.553   2.965  0.5552 -0.0399 -0.0553
30043SOL    HW293918   4.965   7.667   2.908 -0.0978 -0.6827 -2.3746
30044SOL     OW93919   7.161   6.325   3.519  0.0319 -0.1217 -0.2349
30044SOL    HW193920   7.077   6.292   3.550 -0.4040  1.2525  0.1229
30044SOL    HW293921   7.225   6.286   3.579 -0.6396  1.0704  1.3368
30045SOL     OW93922   1.711   4.225   7.984 -0.1286  0.5898 -0.2425
30045SOL    HW193923   1.668   4.270   8.057  1.2117 -0.8913  1.5699
30045SOL    HW293924   1.731   4.294   7.921 -1.3980  1.9190  0.7367
30046SOL     OW93925   4.605   8.216   2.507 -0.1455  0.2200  0.3763
30046SOL    HW193926   4.565   8.280   2.449  2.5547  1.6008 -0.1321
30046SOL    HW293927   4.629   8.265   2.586 -0.5088 -0.8172  1.1674
30047SOL     OW93928   1.639   3.480   0.990 -0.1904 -0.1239  0.2062
30047SOL    HW193929   1.653   3.467   0.896  1.4804 -0.6833  0.5078
30047SOL    HW293930   1.714   3.533   1.018 -0.0971 -0.8846  1.4312
30048SOL     OW93931   7.777   0.671   1.779 -0.8447  0.0902 -0.0221
30048SOL    HW193932   7.771   0.765   1.767  0.2535  0.3255  1.1385
30048SOL    HW293933   7.871   0.652   1.775 -1.0230 -0.8949  0.1644
30049SOL     OW93934  10.033   8.844   9.024 -0.0898 -0.6070  0.3345
30049SOL    HW193935  10.105   8.803   9.072  0.9750 -0.1662 -0.8524
30049SOL    HW293936  10.074   8.887   8.949 -1.5397  0.0159 -0.1495
30050SOL     OW93937   3.105   0.632   8.707 -0.0748  0.0564 -0.5176
30050SOL    HW193938   3.124   0.645   8.800 -1.2030  0.4120 -0.3255
30050SOL    HW293939   3.182   0.585   8.673 -0.2129 -1.2180  0.8655
30051SOL     OW93940   4.445   1.720   5.894  0.0593 -0.5087 -0.0823
30051SOL    HW193941   4.406   1.638   5.923  1.5739 -1.5491 -0.8382
30051SOL    HW293942   4.533   1.696   5.864  0.2441  1.2439 -1.1255
30052SOL     OW93943   9.795   7.572   4.804 -0.0946  0.2160 -0.3122
30052SOL    HW193944   9.873   7.573   4.860 -0.0345 -3.4644 -0.0897
30052SOL    HW293945   9.735   7.633   4.845  1.7754  1.3470  0.9028
30053SOL     OW93946   2.201   4.481   7.963 -0.2638 -0.6237  0.8417
30053SOL    HW193947   2.258   4.427   8.017  1.1265  0.4340  0.4862
30053SOL    HW293948   2.217   4.451   7.874 -0.9254 -0.9064  0.8149
30054SOL     OW93949   7.154   9.457   5.519  0.0045 -0.3489  0.6781
30054SOL    HW193950   7.154   9.548   5.547 -0.3263 -0.4887  1.1501
30054SOL    HW293951   7.211   9.455   5.443  0.0235  0.2491  0.6735
30055SOL     OW93952   9.866   3.569   2.424  0.0861 -0.5833  0.2808
30055SOL    HW193953   9.838   3.507   2.357  0.2769 -1.2057  0.7728
30055SOL    HW293954   9.888   3.515   2.500 -1.2203  0.1899  1.2463
30056SOL     OW93955   1.322   3.032   9.160 -0.3722  0.1504  0.6809
30056SOL    HW193956   1.367   2.966   9.106  0.9140  0.6310  1.1382
30056SOL    HW293957   1.233   2.997   9.169 -0.7221  0.1332 -1.8807
30057SOL     OW93958   9.786   1.346   0.448  0.3972  0.5410  0.1346
30057SOL    HW193959   9.717   1.413   0.442  0.9967  1.1604  0.0392
30057SOL    HW293960   9.743   1.265   0.419  0.1212  1.2126 -1.4481
30058SOL     OW93961   9.090   4.850   5.317 -0.4464 -0.1281  0.8966
30058SOL    HW193962   9.182   4.865   5.340  0.0729 -0.7783 -0.5521
30058SOL    HW293963   9.059   4.934   5.284  0.6616 -0.5873 -1.6310
30059SOL     OW93964   7.812   5.677   8.632  0.0894  0.2975  0.1065
30059SOL    HW193965   7.817   5.766   8.597  3.5304 -0.1221 -0.8387
30059SOL    HW293966   7.835   5.620   8.558  0.0781 -1.2199  1.2048
30060SOL     OW93967  10.342   1.978  10.328  1.0316 -0.1367 -0.1073
30060SOL    HW193968  10.334   2.035  10.405 -1.2692 -0.6209  0.0721
30060SOL    HW293969  10.379   2.035  10.260 -0.0260  1.2557  0.4222
30061SOL     OW93970   4.828   4.913   9.910  0.0894  0.0230 -0.0446
30061SOL    HW193971   4.774   4.988   9.937  1.0736  0.4302  0.8581
30061SOL    HW293972   4.917   4.947   9.909  0.5820 -1.1903  0.6084
30062SOL     OW93973   4.408   2.773   8.258  0.0681  0.0329 -0.3595
30062SOL    HW193974   4.364   2.753   8.341  1.0178 -0.9180 -0.0780
30062SOL    HW293975   4.494   2.807   8.284  0.3007 -0.0957 -0.9559
30063SOL     OW93976   2.202   3.482   1.201 -0.2098  0.1338  0.3449
30063SOL    HW193977   2.141   3.431   1.148  1.2295  0.1349 -1.3814
30063SOL    HW293978   2.286   3.438   1.191  0.0081 -0.2873  3.2618
30064SOL     OW93979   8.217   9.601   2.050 -0.6149 -0.2154 -0.3120
30064SOL    HW193980   8.194   9.558   2.132 -1.2782  0.3554 -0.1837
30064SOL    HW293981   8.306   9.632   2.063  0.2010 -2.2537 -0.7179
30065SOL     OW93982   0.073   2.269   9.023 -0.1020 -0.1190 -0.0080
30065SOL    HW193983   0.029   2.326   9.086 -0.3373  1.3738 -1.4593
30065SOL    HW293984   0.157   2.248   9.065 -0.9271 -0.5689  1.5033
30066SOL     OW93985   4.909   1.415   3.526 -0.3244  0.3792 -0.1918
30066SOL    HW193986   4.836   1.441   3.582 -0.6652 -1.0183  0.0513
30066SOL    HW293987   4.869   1.388   3.444 -0.1277 -0.6303  0.0298
30067SOL     OW93988   2.122   6.678   9.725 -0.1377  0.2280  0.5113
30067SOL    HW193989   2.172   6.682   9.643 -0.0321  0.9782  0.6071
30067SOL    HW293990   2.184   6.646   9.790  0.2779  1.3285  0.6675
30068SOL     OW93991   2.816   4.528   4.956 -0.7719 -0.0760  0.5761
30068SOL    HW193992   2.844   4.469   5.026  1.4909  0.5905  0.3124
30068SOL    HW293993   2.823   4.616   4.993  0.0397  0.2624 -0.3194
30069SOL     OW93994   5.728   2.451   7.645  0.4873  0.0251 -1.0444
30069SOL    HW193995   5.715   2.511   7.718  0.0332  0.0823 -1.1689
30069SOL    HW293996   5.798   2.392   7.675  0.8136  0.5011 -0.8565
30070SOL     OW93997   8.720   5.863   2.176  0.1445 -0.0989 -0.0758
30070SOL    HW193998   8.775   5.802   2.226  0.2609  0.4435  0.4754
30070SOL    HW293999   8.768   5.879   2.095  1.1497  0.8966  0.6887
30071SOL     OW94000   0.805   1.990   0.013  0.2114  0.0097 -0.6896
30071SOL    HW194001   0.711   1.973   0.018  0.4658 -1.4438 -0.5536
30071SOL    HW294002   0.846   1.904   0.013  1.5214  0.5891 -1.5011
30072SOL     OW94003   7.221   6.466   7.390  0.1239 -0.0803 -0.4411
30072SOL    HW194004   7.163   6.533   7.426 -0.7839 -0.2324 -1.5571
30072SOL    HW294005   7.291   6.458   7.455 -1.0406  0.1695  0.9076
30073SOL     OW94006   4.561   8.116   1.093  0.2833  0.0917 -0.2533
30073SOL    HW194007   4.608   8.100   1.012 -0.0101  1.0206 -0.6170
30073SOL    HW294008   4.496   8.182   1.071  0.5624  0.7764  0.8607
30074SOL     OW94009   5.505   6.773   0.091 -0.1064  0.0364  0.3797
30074SOL    HW194010   5.527   6.703   0.153 -0.3419 -0.6394 -0.2846
30074SOL    HW294011   5.544   6.744   0.008  2.7517  2.2622  0.7716
30075SOL     OW94012   8.204  10.113   8.681 -0.2840 -0.4658 -0.4562
30075SOL    HW194013   8.186  10.171   8.607  0.7171  1.2248  0.5505
30075SOL    HW294014   8.299  10.100   8.678  0.1474  1.4311  1.6964
30076SOL     OW94015   1.695   0.712   9.363 -0.3286 -0.4752  0.4523
30076SOL    HW194016   1.639   0.753   9.297 -0.4942  0.4517  1.1506
30076SOL    HW294017   1.639   0.703   9.440  0.2402 -0.2763  0.9009
30077SOL     OW94018   2.171   6.514   6.243 -0.4848 -0.6111 -0.1937
30077SOL    HW194019   2.179   6.568   6.322  1.3977  0.1725 -0.8815
30077SOL    HW294020   2.187   6.425   6.274  1.1191 -0.2146  0.2074
30078SOL     OW94021   3.921   3.572   7.411 -0.1410 -0.3037 -0.3999
30078SOL    HW194022   3.897   3.654   7.455 -0.0997 -0.3673 -0.2609
30078SOL    HW294023   3.966   3.601   7.332 -0.9864 -0.1697 -0.8554
30079SOL     OW94024   2.796   2.409   2.512  0.0434 -0.5464 -0.0999
30079SOL    HW194025   2.702   2.429   2.511  0.2395  0.6514  1.4825
30079SOL    HW294026   2.834   2.466   2.445 -0.0730  0.7712  0.9204
30080SOL     OW94027   9.883   3.918   4.571 -0.7854  0.1610 -0.0755
30080SOL    HW194028   9.808   3.865   4.598 -1.3219  1.2716  0.7149
30080SOL    HW294029   9.946   3.908   4.643 -0.4679 -0.2048 -0.4025
30081SOL     OW94030   5.341   2.785   0.752  0.1320  0.1476 -0.1840
30081SOL    HW194031   5.273   2.793   0.685 -0.0203 -0.4197 -0.1009
30081SOL    HW294032   5.319   2.705   0.800  0.4137  0.3815  0.3492
30082SOL     OW94033   5.350   4.972   4.068 -0.1211  0.4106 -0.4860
30082SOL    HW194034   5.436   4.970   4.027 -0.3199  0.5413 -0.9071
30082SOL    HW294035   5.337   5.064   4.093 -0.8646  0.7291 -1.9654
30083SOL     OW94036   2.634   0.032   5.353  0.4130 -0.0610 -0.6478
30083SOL    HW194037   2.725   0.045   5.380 -0.2406 -0.0746  1.7916
30083SOL    HW294038   2.607  -0.049   5.396 -1.3729  1.0618  0.4922
30084SOL     OW94039   1.746   2.006   6.296 -0.3842 -0.1457  0.1135
30084SOL    HW194040   1.721   2.081   6.350  2.1248 -0.5813  2.0691
30084SOL    HW294041   1.814   2.040   6.237  2.1800 -1.0855  2.2946
30085SOL     OW94042   0.243   3.044   1.281 -0.5486  0.7550 -0.3840
30085SOL    HW194043   0.181   3.011   1.347 -0.2988  0.8248 -0.1132
30085SOL    HW294044   0.194   3.042   1.199 -1.4221  2.2564  0.0707
30086SOL     OW94045   1.083   5.151   7.888 -0.3067 -0.1345  0.0561
30086SOL    HW194046   0.995   5.164   7.852 -0.3702  0.4562  0.4141
30086SOL    HW294047   1.095   5.056   7.886 -0.3452 -0.1235 -1.4001
30087SOL     OW94048   5.058   5.161   7.984  0.6490  0.2846 -0.5999
30087SOL    HW194049   5.126   5.147   7.919  2.0866 -0.1940  0.9541
30087SOL    HW294050   5.069   5.090   8.047 -0.4066  0.9769  0.4194
30088SOL     OW94051   6.605   6.957   4.785 -0.0698  0.3712 -0.4327
30088SOL    HW194052   6.605   6.900   4.708  0.0678  2.6282 -2.2167
30088SOL    HW294053   6.680   6.926   4.837  1.2598  0.1766 -2.3530
30089SOL     OW94054   9.040   3.531  10.354 -0.0618  0.2251 -0.3025
30089SOL    HW194055   9.023   3.611  10.304 -0.5525 -0.1475 -0.7413
30089SOL    HW294056   9.021   3.555  10.445  0.7930  0.8953 -0.2792
30090SOL     OW94057   6.664   8.320   7.465  0.0104 -0.3308 -0.3375
30090SOL    HW194058   6.703   8.385   7.524  0.5120 -0.3868 -0.5956
30090SOL    HW294059   6.728   8.249   7.462  0.2167 -0.1305 -1.2997
30091SOL     OW94060   7.276   6.878   1.455 -0.4856 -0.3370 -0.0430
30091SOL    HW194061   7.220   6.927   1.394  0.7534  0.6907 -0.3944
30091SOL    HW294062   7.243   6.788   1.451 -0.7828 -0.1903 -1.8477
30092SOL     OW94063   1.135   0.123   0.043  0.2263  0.0319 -0.7371
30092SOL    HW194064   1.151   0.085   0.129 -1.5762  0.3674 -0.2094
30092SOL    HW294065   1.093   0.208   0.061  1.5238  0.9814 -1.9302
30093SOL     OW94066   3.678   1.596   8.719 -0.3659  0.2612 -0.2979
30093SOL    HW194067   3.685   1.549   8.803 -2.0445 -0.3467 -0.4753
30093SOL    HW294068   3.738   1.548   8.661 -0.8796 -0.7268 -0.0462
30094SOL     OW94069   4.727   1.847   5.586  0.7518 -0.5035  0.0947
30094SOL    HW194070   4.641   1.821   5.553  0.8245 -1.4687  0.6253
30094SOL    HW294071   4.716   1.938   5.612  0.0958 -0.3905 -0.5352
30095SOL     OW94072   7.134   7.277   4.802  0.4124  0.3668 -0.0139
30095SOL    HW194073   7.225   7.305   4.790  0.4626 -0.0130 -0.5563
30095SOL    HW294074   7.091   7.299   4.719  0.1065  0.1895  0.0966
30096SOL     OW94075   5.233   8.234   8.501 -0.0773  0.4731  0.5305
30096SOL    HW194076   5.203   8.324   8.516 -0.2441  1.2135 -3.2585
30096SOL    HW294077   5.155   8.180   8.512 -1.1752  1.4630 -1.7451
30097SOL     OW94078   5.062   0.479   5.834  0.1798 -0.8693  0.1467
30097SOL    HW194079   5.083   0.486   5.741 -0.5999  1.4860  0.0798
30097SOL    HW294080   4.995   0.411   5.838 -2.0550  1.0593 -1.5192
30098SOL     OW94081  10.259   7.603   2.467 -0.0794  0.5640  0.2300
30098SOL    HW194082  10.212   7.603   2.551 -0.8321  0.1489 -0.1852
30098SOL    HW294083  10.346   7.567   2.489 -0.7286 -0.8603  0.6005
30099SOL     OW94084   0.370   2.949   5.285 -0.0230 -0.0190 -0.1189
30099SOL    HW194085   0.402   3.016   5.345 -0.2568 -0.8475  0.9407
30099SOL    HW294086   0.275   2.950   5.297 -0.2806  1.0517 -1.8130
30100SOL     OW94087   8.166   0.136  10.195 -0.6446 -0.6020  0.0150
30100SOL    HW194088   8.144   0.176  10.279  1.2670 -0.6014  0.5692
30100SOL    HW294089   8.160   0.041  10.211  0.7776 -0.6348  0.5175
30101SOL     OW94090   7.940   6.119   9.326  0.3948 -0.0409 -0.6784
30101SOL    HW194091   7.939   6.213   9.312 -0.1796 -0.3016 -2.5752
30101SOL    HW294092   7.853   6.098   9.359  0.3066 -0.0092 -0.8965
30102SOL     OW94093   7.208   4.091   2.694  0.1297 -0.3921  0.4718
30102SOL    HW194094   7.222   4.153   2.766 -2.5737 -0.3051  1.0347
30102SOL    HW294095   7.247   4.010   2.725  0.9198  0.1974  1.0829
30103SOL     OW94096   0.654   4.242   6.186 -0.0111 -0.0945 -0.2397
30103SOL    HW194097   0.713   4.224   6.113 -0.2295  0.7633 -0.6453
30103SOL    HW294098   0.712   4.244   6.263  0.4180  0.2534 -0.5678
30104SOL     OW94099   9.625   6.376   9.098  0.2856  0.6562 -0.2115
30104SOL    HW194100   9.538   6.395   9.065 -0.0765  1.0732  0.9506
30104SOL    HW294101   9.611   6.314   9.170  0.9644  0.5488 -0.1648
30105SOL     OW94102   6.213   1.145   3.995 -0.2779  0.2290  0.0632
30105SOL    HW194103   6.122   1.123   4.012 -0.3507  0.6335  0.2091
30105SOL    HW294104   6.263   1.093   4.058 -0.3863 -0.2307 -0.2278
30106SOL     OW94105   0.536   6.881   4.044 -0.5840 -0.3491 -0.4177
30106SOL    HW194106   0.603   6.949   4.049 -0.2295 -0.7776  1.8079
30106SOL    HW294107   0.586   6.800   4.036 -0.7427 -0.7196  1.8034
30107SOL     OW94108   4.464   9.307   9.884 -0.2575  0.0407 -0.2165
30107SOL    HW194109   4.490   9.359   9.960  1.3196 -0.9286 -0.0472
30107SOL    HW294110   4.435   9.372   9.820  1.0601  1.1150  0.2060
30108SOL     OW94111   1.355   7.526   2.749 -0.2658  0.6162 -0.3599
30108SOL    HW194112   1.448   7.546   2.753 -0.2329  0.8294 -1.6382
30108SOL    HW294113   1.311   7.606   2.777 -0.0789  1.1036 -1.4388
30109SOL     OW94114   0.538   4.042   2.952 -0.9779  0.0771  0.1354
30109SOL    HW194115   0.550   4.095   2.873  0.3409 -1.0552 -0.4584
30109SOL    HW294116   0.454   3.997   2.937 -0.5478 -0.4429 -0.8343
30110SOL     OW94117   3.970   5.667   4.824 -0.0561 -0.0510 -0.3606
30110SOL    HW194118   4.064   5.650   4.824 -0.2626 -1.3893  1.1976
30110SOL    HW294119   3.930   5.580   4.823 -1.2807  0.4944 -0.4264
30111SOL     OW94120   5.663   7.036   1.663  0.1903 -0.2746  0.0839
30111SOL    HW194121   5.715   6.990   1.597  1.9975 -0.8978  1.8459
30111SOL    HW294122   5.656   7.125   1.629  2.1354 -0.2629 -0.4438
30112SOL     OW94123   0.421   6.398   0.766  0.0743 -0.4992 -0.4212
30112SOL    HW194124   0.357   6.400   0.696 -0.7306 -1.0530  0.2885
30112SOL    HW294125   0.443   6.491   0.782  1.5201 -0.4230 -2.4915
30113SOL     OW94126   4.018   2.219   3.420 -0.3218  0.2733  0.0060
30113SOL    HW194127   4.071   2.210   3.341  0.5280  1.1296  0.4617
30113SOL    HW294128   3.942   2.270   3.392 -0.3369  0.0353 -0.3926
30114SOL     OW94129   8.230   9.593   8.888  0.0541  0.3879  0.5895
30114SOL    HW194130   8.295   9.529   8.918 -0.8917 -1.1362 -0.4337
30114SOL    HW294131   8.217   9.572   8.796  1.3985  3.6191 -0.4380
30115SOL     OW94132   9.696   3.425   4.784  0.2526 -0.0280 -0.1799
30115SOL    HW194133   9.753   3.421   4.707  1.7781  1.8006  0.7799
30115SOL    HW294134   9.755   3.416   4.859 -0.8303  0.9525  0.8363
30116SOL     OW94135   8.123  10.242   6.519  0.0506  0.2790  0.5940
30116SOL    HW194136   8.167  10.238   6.434 -0.1121 -0.4096  0.5413
30116SOL    HW294137   8.041  10.196   6.506 -0.8602  1.8269  0.6049
30117SOL     OW94138   7.291   9.049   0.133 -0.3292 -0.2023  0.9152
30117SOL    HW194139   7.371   9.059   0.083 -0.4829 -0.8539  0.5279
30117SOL    HW294140   7.320   9.043   0.224  0.2916 -2.6140  0.6442
30118SOL     OW94141   9.852   4.585   8.128 -0.0417 -0.1985 -0.1008
30118SOL    HW194142   9.840   4.674   8.162 -1.7564 -0.1489 -0.7791
30118SOL    HW294143   9.911   4.596   8.053 -0.6011  0.4539 -0.4623
30119SOL     OW94144   2.663   6.311   8.450 -0.0904  0.3813  0.1261
30119SOL    HW194145   2.725   6.281   8.384  0.6040 -0.0446  0.9589
30119SOL    HW294146   2.580   6.268   8.426  0.1804  0.1450 -0.4016
30120SOL     OW94147   9.221   8.753   0.490  0.1776 -0.1349  0.8704
30120SOL    HW194148   9.271   8.701   0.554 -1.0807 -1.6078  0.7231
30120SOL    HW294149   9.165   8.809   0.543  0.1040 -0.3784  1.0527
30121SOL     OW94150   4.878   4.330   2.240 -0.0783 -0.0842  0.4061
30121SOL    HW194151   4.908   4.283   2.162  1.4984  1.7430 -0.1991
30121SOL    HW294152   4.816   4.271   2.282 -0.8354 -1.2307 -2.1213
30122SOL     OW94153   9.172   6.423   7.460 -0.1012  0.2696  0.5517
30122SOL    HW194154   9.267   6.431   7.458 -0.0499 -0.3893 -1.0397
30122SOL    HW294155   9.156   6.329   7.450 -0.9072  0.1548  2.5858
30123SOL     OW94156  10.035   1.970   3.054 -1.1505  0.3984  0.3402
30123SOL    HW194157   9.995   2.010   2.977 -1.1193  1.9273  1.0708
30123SOL    HW294158   9.970   1.907   3.085 -2.5674  2.0247  0.8575
30124SOL     OW94159   1.794   7.992   6.291 -0.4467 -0.0022 -0.0349
30124SOL    HW194160   1.766   8.078   6.323 -0.0731  0.0084  0.2630
30124SOL    HW294161   1.819   8.007   6.200 -3.3953 -0.4044 -1.0287
30125SOL     OW94162   0.168   1.335   7.751 -0.7652  0.1190 -0.8297
30125SOL    HW194163   0.122   1.414   7.779  1.1484  1.5896 -1.6150
30125SOL    HW294164   0.240   1.325   7.813 -1.3206 -1.3875 -0.3859
30126SOL     OW94165   0.437   2.232   4.921 -0.4615 -0.5695  0.7430
30126SOL    HW194166   0.528   2.246   4.897 -0.5374 -0.0450  0.7307
30126SOL    HW294167   0.418   2.303   4.983 -0.7972 -0.8053  0.9159
30127SOL     OW94168   5.281   6.257   2.576  0.2050 -0.4248  0.3879
30127SOL    HW194169   5.358   6.300   2.613 -0.7130  0.6188  1.1270
30127SOL    HW294170   5.316   6.204   2.504  1.6616 -0.3169  0.9819
30128SOL     OW94171   1.056   9.656   8.303 -0.0500  0.1559 -0.2021
30128SOL    HW194172   0.972   9.611   8.305 -0.0976  0.2371 -0.3325
30128SOL    HW294173   1.049   9.725   8.369 -0.6609  1.1708 -1.2947
30129SOL     OW94174   0.143   7.464   3.352  0.3130 -0.5739  0.4187
30129SOL    HW194175   0.156   7.508   3.436 -1.2933 -1.4811  1.1849
30129SOL    HW294176   0.173   7.528   3.287  1.8999  0.0257  1.6631
30130SOL     OW94177   4.058   4.941   8.266 -0.0360  0.8278 -0.6041
30130SOL    HW194178   3.984   4.913   8.213  0.8448 -0.5426 -1.1540
30130SOL    HW294179   4.057   4.883   8.343  0.5761  0.6494 -0.7213
30131SOL     OW94180   8.022   8.725   8.988  0.5022 -0.2723  0.4244
30131SOL    HW194181   8.030   8.812   8.949  0.9636 -0.9078 -0.9717
30131SOL    HW294182   7.929   8.704   8.981  0.2259  0.4698  1.6273
30132SOL     OW94183   9.708   0.555   5.096 -0.0027  0.1182 -0.0415
30132SOL    HW194184   9.733   0.645   5.078 -0.9055  0.0970 -1.5669
30132SOL    HW294185   9.613   0.558   5.109 -0.2259 -0.7544 -1.2960
30133SOL     OW94186   4.208   2.301   7.204 -0.8920 -0.2170 -0.1903
30133SOL    HW194187   4.224   2.394   7.219  2.2543 -0.3452 -1.9101
30133SOL    HW294188   4.174   2.296   7.115 -0.2375 -0.7639 -0.4162
30134SOL     OW94189   2.323   4.292   2.101 -0.2462  0.4699 -0.1142
30134SOL    HW194190   2.383   4.332   2.163 -0.8088  0.7312  0.2733
30134SOL    HW294191   2.378   4.268   2.027  0.6542 -0.9029  0.9439
30135SOL     OW94192   5.987   2.416   9.725 -0.1958 -0.3416  0.5861
30135SOL    HW194193   5.942   2.406   9.641 -0.6940  0.1382  0.7868
30135SOL    HW294194   5.964   2.505   9.753 -0.0585 -0.5129  1.2450
30136SOL     OW94195   1.740   8.819   5.909 -0.2952  0.5067 -0.0198
30136SOL    HW194196   1.731   8.737   5.861 -2.5172  1.3476 -1.1481
30136SOL    HW294197   1.816   8.862   5.869 -0.5430  0.0391 -1.0146
30137SOL     OW94198   0.440   4.664  10.066  0.1883 -0.3591 -0.1741
30137SOL    HW194199   0.469   4.737  10.011  0.9591  0.9291  1.8384
30137SOL    HW294200   0.403   4.601  10.004  0.9576  1.0205 -2.1475
30138SOL     OW94201   6.876  10.312   9.337 -0.3083 -0.3294 -0.2121
30138SOL    HW194202   6.814  10.316   9.411 -0.4759 -1.0228 -0.3108
30138SOL    HW294203   6.943  10.250   9.365  0.6804  0.8353  0.1272
30139SOL     OW94204   1.637   9.022   4.292  0.3844 -0.1255 -0.3167
30139SOL    HW194205   1.636   8.958   4.363  0.6953  1.5804  1.3224
30139SOL    HW294206   1.727   9.021   4.260  0.2622 -0.8607 -0.6372
30140SOL     OW94207   8.536   7.125   8.709 -0.7394  0.6156 -0.5253
30140SOL    HW194208   8.546   7.055   8.774 -0.8281  1.5445  0.5247
30140SOL    HW294209   8.541   7.081   8.625  0.0089 -0.5546  0.1051
30141SOL     OW94210   5.158   9.021   3.804  0.7999 -0.3697 -0.3520
30141SOL    HW194211   5.197   9.070   3.876 -0.1903  0.3075 -0.2549
30141SOL    HW294212   5.224   9.023   3.735  2.1145 -1.7613  0.8041
30142SOL     OW94213   1.635   7.281   3.541  0.2134 -0.3763 -0.0540
30142SOL    HW194214   1.654   7.312   3.452 -1.4345  1.1789  0.0698
30142SOL    HW294215   1.609   7.190   3.529 -2.2490  0.4271 -1.5671
30143SOL     OW94216   1.599   0.864   4.386  0.3116  0.3361 -0.3941
30143SOL    HW194217   1.653   0.832   4.313 -2.5225 -1.5268 -1.8343
30143SOL    HW294218   1.557   0.943   4.352 -1.9894 -1.2199 -1.3769
30144SOL     OW94219   2.800   1.911   8.979 -0.3083  0.3839  0.0475
30144SOL    HW194220   2.794   1.973   9.052  1.1930 -0.8806  1.3221
30144SOL    HW294221   2.886   1.927   8.940 -1.2064  1.2441 -1.6970
30145SOL     OW94222   2.249   0.619   0.847  0.0404  0.7796  0.3821
30145SOL    HW194223   2.298   0.552   0.798 -2.3166 -1.5708  0.9910
30145SOL    HW294224   2.274   0.604   0.938 -0.9641  0.2603  0.5858
30146SOL     OW94225   7.721   1.685   7.367  0.3265  0.3602  0.1177
30146SOL    HW194226   7.734   1.594   7.342  2.2512  1.0919 -1.7967
30146SOL    HW294227   7.804   1.712   7.405 -0.3608  1.2169  1.0668
30147SOL     OW94228   5.965  10.031   9.643 -0.3196 -0.0235 -0.3154
30147SOL    HW194229   6.047  10.039   9.692  0.5866 -1.8056 -1.4565
30147SOL    HW294230   5.990  10.046   9.552 -1.3020 -0.3804 -0.6550
30148SOL     OW94231   0.842   8.376   7.215  0.1435  0.3036  0.2112
30148SOL    HW194232   0.858   8.465   7.247  1.2042  1.0399 -2.1303
30148SOL    HW294233   0.928   8.335   7.212 -0.1377 -0.2806 -0.1397
30149SOL     OW94234   4.064   4.694   9.243 -0.0826  0.1397  0.1749
30149SOL    HW194235   4.058   4.754   9.168 -0.8263  0.5709  0.5645
30149SOL    HW294236   4.149   4.713   9.282  1.5502 -1.9273 -2.0501
30150SOL     OW94237   6.121   9.193   2.212  0.5414  0.1531  0.0322
30150SOL    HW194238   6.091   9.201   2.303  0.3209 -0.8743  0.0681
30150SOL    HW294239   6.216   9.193   2.218  0.5856  2.2652  0.0345
30151SOL     OW94240   2.401   2.696   1.410  0.0590 -0.4395  0.2779
30151SOL    HW194241   2.336   2.664   1.472 -1.4735  0.6334 -0.7143
30151SOL    HW294242   2.453   2.619   1.389 -0.6979 -1.2726  1.3038
30152SOL     OW94243   8.131   4.724   8.464  0.3920 -0.0593  0.3532
30152SOL    HW194244   8.129   4.696   8.556  0.2941  1.7386  0.9300
30152SOL    HW294245   8.039   4.730   8.440  0.3984  0.4269  0.4485
30153SOL     OW94246   5.864   5.118   4.626  0.4153 -0.6563 -0.2191
30153SOL    HW194247   5.883   5.205   4.590  0.3403  0.6686  2.7109
30153SOL    HW294248   5.949   5.075   4.633  0.5223 -0.6113 -1.0591
30154SOL     OW94249   0.489   1.939   5.024  0.4928 -0.1075 -0.1578
30154SOL    HW194250   0.582   1.962   5.028  0.2884  0.9812 -1.0478
30154SOL    HW294251   0.446   2.019   4.993 -0.6557 -0.7994 -0.4069
30155SOL     OW94252   1.337   8.953   1.969  0.1757  0.1658 -0.5474
30155SOL    HW194253   1.319   9.041   2.002 -1.7148 -0.5431  0.5014
30155SOL    HW294254   1.410   8.964   1.909 -1.5785  2.8956 -2.4360
30156SOL     OW94255   3.166   7.309   4.733  0.0035  0.0623  0.9698
30156SOL    HW194256   3.167   7.323   4.638  1.3196 -0.8809  0.8186
30156SOL    HW294257   3.074   7.290   4.753 -0.4154  0.9600  0.0128
30157SOL     OW94258   4.930   8.125   8.968 -0.2067 -0.1635 -0.1631
30157SOL    HW194259   4.986   8.057   9.006  2.7231  1.2015 -1.7525
30157SOL    HW294260   4.883   8.161   9.043  2.9903  0.2953  1.8318
30158SOL     OW94261   7.603   1.168   5.665  0.2382  0.1058 -0.3842
30158SOL    HW194262   7.557   1.162   5.749 -0.1868 -0.5478 -0.6497
30158SOL    HW294263   7.564   1.098   5.612  1.0534  0.0011 -0.8557
30159SOL     OW94264   9.094   3.183  10.001 -0.3680  0.0148  0.0216
30159SOL    HW194265   8.999   3.179  10.005 -0.3274 -1.1776  0.4465
30159SOL    HW294266   9.123   3.134  10.078  0.6012  2.0778  1.0536
30160SOL     OW94267   9.681   5.196   4.265  0.3033 -0.2614 -0.1216
30160SOL    HW194268   9.664   5.275   4.316  2.8758 -0.9176  1.9825
30160SOL    HW294269   9.750   5.221   4.204  1.7522 -1.0040  1.1414
30161SOL     OW94270   9.115   7.703   5.876 -0.4087 -0.3932  0.3177
30161SOL    HW194271   9.165   7.725   5.955  0.6714 -0.9184 -0.1925
30161SOL    HW294272   9.052   7.637   5.904 -0.6755  0.1101  0.9282
30162SOL     OW94273   6.367   3.354   3.450  0.5153 -0.1676 -0.3602
30162SOL    HW194274   6.408   3.421   3.395  0.3919  0.7280  0.5973
30162SOL    HW294275   6.437   3.327   3.510  0.0662  0.4649  0.4662
30163SOL     OW94276   8.699   9.766   9.167 -0.3660  0.1144 -0.3790
30163SOL    HW194277   8.741   9.788   9.251 -0.9199  1.4688 -0.4327
30163SOL    HW294278   8.606   9.773   9.185 -0.4828  1.6283 -1.3804
30164SOL     OW94279   1.500   0.605   2.845 -0.1713  0.2601 -0.2466
30164SOL    HW194280   1.572   0.623   2.785 -1.2290 -0.2694 -1.7274
30164SOL    HW294281   1.478   0.691   2.881  1.1782  0.4302  0.2520
30165SOL     OW94282   7.048   9.653   6.728  0.4337  0.4729  0.4047
30165SOL    HW194283   7.101   9.701   6.664  0.3065 -0.8618 -0.7685
30165SOL    HW294284   7.032   9.568   6.686 -1.7286  0.4368  1.1950
30166SOL     OW94285   4.083   1.902   8.919 -0.5385  0.1437  0.6328
30166SOL    HW194286   4.079   1.996   8.904 -0.1181  0.3307  1.6561
30166SOL    HW294287   4.029   1.865   8.849 -0.9118  1.1514  0.3673
30167SOL     OW94288   3.302   6.664   5.895 -0.0442  0.1652 -0.2908
30167SOL    HW194289   3.264   6.625   5.974  1.3333  0.5810  0.6186
30167SOL    HW294290   3.273   6.607   5.824 -2.3549  0.4821  0.3073
30168SOL     OW94291   2.581   4.239   2.457  0.0672 -0.2828  0.4547
30168SOL    HW194292   2.595   4.325   2.416 -0.1145 -0.2766  0.4047
30168SOL    HW294293   2.489   4.220   2.440  0.9136 -2.2229 -2.9202
30169SOL     OW94294  10.347   5.245   5.137  0.1062  0.3388 -0.1027
30169SOL    HW194295  10.378   5.273   5.223 -1.2789 -0.2924  0.6284
30169SOL    HW294296  10.356   5.150   5.138 -0.1315  0.3071 -0.5710
30170SOL     OW94297   6.140   6.916   1.476 -0.5693 -0.3136  0.3512
30170SOL    HW194298   6.154   6.847   1.541 -1.1127 -0.9179 -0.1596
30170SOL    HW294299   6.146   6.872   1.392  0.3351  0.5007 -0.0343
30171SOL     OW94300   2.397   3.403   1.556 -0.3064  0.4285  0.0147
30171SOL    HW194301   2.411   3.431   1.466 -0.2895  0.8773  0.1575
30171SOL    HW294302   2.353   3.318   1.548  2.7066 -1.2201 -0.4737
30172SOL     OW94303   8.605   2.388   6.257  0.6570 -1.0922 -0.4808
30172SOL    HW194304   8.696   2.410   6.274  0.5005 -1.1607  0.5647
30172SOL    HW294305   8.567   2.468   6.220  0.8899 -0.7033  0.1085
30173SOL     OW94306   2.243   0.782   2.417 -0.3451  0.4433  0.1111
30173SOL    HW194307   2.165   0.743   2.378 -0.1635  0.2830 -0.0922
30173SOL    HW294308   2.316   0.729   2.385 -0.0897  0.9825 -0.2179
30174SOL     OW94309   9.126   8.344   3.978 -0.1422  0.2706  0.2244
30174SOL    HW194310   9.047   8.333   3.925  0.1110  1.4702 -0.4440
30174SOL    HW294311   9.096   8.331   4.068 -0.3027 -3.2686 -0.2020
30175SOL     OW94312   7.430   1.744   1.950  0.0646 -0.9757 -0.0303
30175SOL    HW194313   7.349   1.776   1.909  0.6260 -1.1754 -1.3666
30175SOL    HW294314   7.460   1.674   1.891  1.4934 -0.5287  0.1334
30176SOL     OW94315   8.802   9.736   3.391  0.3078  0.3693 -0.5701
30176SOL    HW194316   8.852   9.800   3.442 -0.6439  1.2569 -0.7274
30176SOL    HW294317   8.714   9.773   3.386  0.4336  0.5303 -3.1663
30177SOL     OW94318   7.417   6.218   6.781 -0.4201 -0.3649 -0.4421
30177SOL    HW194319   7.470   6.250   6.707  1.2311 -1.4521  0.2062
30177SOL    HW294320   7.481   6.183   6.843 -1.8268 -0.3090  1.1210
30178SOL     OW94321   4.077   0.160  10.135  0.3801 -0.0589 -0.1662
30178SOL    HW194322   4.086   0.230  10.070 -2.3331  0.4765 -0.0818
30178SOL    HW294323   4.162   0.157  10.179  1.0401  2.1902 -1.1559
30179SOL     OW94324   2.072   4.843   9.385  0.3358  0.3385 -0.1452
30179SOL    HW194325   2.100   4.859   9.475 -1.3791  1.1929  0.2996
30179SOL    HW294326   2.135   4.780   9.350  1.2044  0.2090  1.5526
30180SOL     OW94327   6.153   5.142   7.799  0.0541  0.5422 -0.1121
30180SOL    HW194328   6.248   5.133   7.810  0.0242  0.9609  0.4786
30180SOL    HW294329   6.137   5.236   7.793 -0.4696  0.5423  1.1351
30181SOL     OW94330   2.369   9.086   8.820 -0.3266  0.0827  0.5448
30181SOL    HW194331   2.430   9.100   8.892  1.6392  0.9997 -1.1925
30181SOL    HW294332   2.390   8.999   8.787 -0.4783  0.0980  0.4070
30182SOL     OW94333   3.839  10.289   7.542  0.5822  0.3254  0.1270
30182SOL    HW194334   3.905  10.269   7.608  0.0246 -2.4656 -0.0192
30182SOL    HW294335   3.847  10.218   7.478 -2.4390 -0.0844  0.0478
30183SOL     OW94336   0.771   1.394   4.373 -0.3333 -0.3097 -0.3877
30183SOL    HW194337   0.820   1.333   4.428  1.1736  0.4595 -0.8157
30183SOL    HW294338   0.832   1.418   4.303 -1.3290  0.6871 -0.9521
30184SOL     OW94339   3.836   9.793   2.577 -0.1985  0.5501 -0.1353
30184SOL    HW194340   3.777   9.806   2.503  0.2073 -0.3573 -0.6351
30184SOL    HW294341   3.784   9.744   2.641  0.6490 -2.4927 -1.5710
30185SOL     OW94342   9.345   9.563   8.765 -0.7362  0.0606 -0.1377
30185SOL    HW194343   9.322   9.654   8.747 -0.7226  0.0697 -0.1091
30185SOL    HW294344   9.424   9.547   8.713  0.0565  0.4746  0.9062
30186SOL     OW94345   4.844   0.213   8.918  0.4067  0.1455 -0.2987
30186SOL    HW194346   4.818   0.256   9.000  0.9636  2.3874 -1.2214
30186SOL    HW294347   4.936   0.191   8.931 -0.1139 -1.7381  0.5222
30187SOL     OW94348  10.123   0.490   6.780  0.7737  0.1675 -0.2027
30187SOL    HW194349  10.157   0.542   6.853 -1.9394 -0.1986  1.4669
30187SOL    HW294350  10.095   0.554   6.715 -1.2416  0.8350  1.2292
30188SOL     OW94351   4.496   0.176   5.330  0.1275 -0.1045  0.1617
30188SOL    HW194352   4.426   0.219   5.281 -0.2909 -1.5597 -0.5663
30188SOL    HW294353   4.496   0.219   5.415 -1.5344  0.0611  0.1000
30189SOL     OW94354   6.174   6.055   2.158 -0.2156  0.0813  0.2384
30189SOL    HW194355   6.250   6.076   2.213  0.6352 -0.5964 -0.6304
30189SOL    HW294356   6.098   6.082   2.209  0.6320  1.0988  0.9871
30190SOL     OW94357   4.076   2.310   4.137  0.0030 -0.3766 -0.1019
30190SOL    HW194358   3.990   2.342   4.164  0.0839  0.7800 -1.1520
30190SOL    HW294359   4.119   2.386   4.097  0.4813 -1.6158 -2.0693
30191SOL     OW94360   1.488   9.238   9.237 -0.3916 -0.0901  0.3706
30191SOL    HW194361   1.405   9.286   9.236 -0.9752 -1.0454  1.3572
30191SOL    HW294362   1.549   9.297   9.281 -1.0490 -0.1455  1.3769
30192SOL     OW94363   5.778   3.492   5.563  0.5686  0.2912 -0.3637
30192SOL    HW194364   5.764   3.568   5.620  1.0827  0.2356 -0.1589
30192SOL    HW294365   5.733   3.515   5.482 -1.3563 -0.1996  0.5152
30193SOL     OW94366   4.874  10.087   7.790  0.6881 -0.7141  0.1182
30193SOL    HW194367   4.916  10.171   7.772  1.1803 -1.0069 -0.1265
30193SOL    HW294368   4.782  10.108   7.802  1.0809  0.1687  2.1542
30194SOL     OW94369   9.669   8.491   3.204 -0.0835 -0.1941  0.1003
30194SOL    HW194370   9.688   8.400   3.227 -1.0248 -0.6026 -0.6610
30194SOL    HW294371   9.574   8.499   3.215 -0.0269  0.6454  0.0026
30195SOL     OW94372   3.641   3.987   7.864  0.6130 -0.1452 -0.2996
30195SOL    HW194373   3.732   4.017   7.858  1.1350 -0.7617  2.9080
30195SOL    HW294374   3.644   3.895   7.838  0.4717  0.3346 -2.1639
30196SOL     OW94375   3.104   2.026   7.503 -0.7208  0.2561  0.1045
30196SOL    HW194376   3.117   1.980   7.420 -2.4117 -0.4957  0.2125
30196SOL    HW294377   3.021   2.072   7.493 -0.3433  1.1698  0.9529
30197SOL     OW94378   4.298   8.663   0.155 -0.1810 -0.0177  0.3079
30197SOL    HW194379   4.373   8.718   0.178 -0.0333 -0.0709 -0.0470
30197SOL    HW294380   4.222   8.715   0.180 -0.0213 -0.1868  1.1818
30198SOL     OW94381   0.725   2.750   7.535  0.5429 -0.3289  0.1249
30198SOL    HW194382   0.704   2.781   7.447 -0.6151  0.1458  0.5557
30198SOL    HW294383   0.738   2.830   7.585 -2.5400 -0.4257  1.2696
30199SOL     OW94384   8.480  10.253   1.965  0.1389  0.4559 -0.3883
30199SOL    HW194385   8.466  10.220   1.876 -1.1156  1.1131 -0.4482
30199SOL    HW294386   8.556  10.311   1.957  0.7179 -0.3233 -0.7956
30200SOL     OW94387   2.573   1.104   4.846 -0.5035 -0.3266  0.3256
30200SOL    HW194388   2.648   1.061   4.887  0.4056  0.0277 -0.9017
30200SOL    HW294389   2.594   1.105   4.752 -0.5954  2.4826  0.2402
30201SOL     OW94390   6.811   1.852   6.935 -0.0733 -0.0568  0.3959
30201SOL    HW194391   6.815   1.870   7.029  0.7440 -0.5190  0.4605
30201SOL    HW294392   6.736   1.903   6.904  1.1182  2.1298  0.8558
30202SOL     OW94393   5.717  10.089   8.009 -0.5145  0.1398  0.2378
30202SOL    HW194394   5.675  10.013   8.050  0.4496 -1.2314 -1.2358
30202SOL    HW294395   5.791  10.109   8.066 -1.1998  0.4789  1.0338
30203SOL     OW94396   4.193   0.151   2.236 -0.7068 -0.4256 -0.0229
30203SOL    HW194397   4.121   0.112   2.285 -0.0356  1.3662  2.5927
30203SOL    HW294398   4.198   0.241   2.268  2.2974 -0.3018 -0.5522
30204SOL     OW94399   8.516   1.163   9.344 -0.1160 -0.3833 -0.9854
30204SOL    HW194400   8.524   1.079   9.388  0.4395  0.6114  0.9492
30204SOL    HW294401   8.603   1.182   9.311  1.0569  1.3511  2.5228
30205SOL     OW94402   2.378   3.536   4.883  0.1408 -0.2222 -0.4171
30205SOL    HW194403   2.288   3.522   4.855  0.0663  0.3433 -0.4642
30205SOL    HW294404   2.419   3.450   4.874 -0.6464 -0.7082  0.5553
30206SOL     OW94405   6.726   3.500   9.950 -0.0023  0.0417  0.0478
30206SOL    HW194406   6.733   3.421  10.003  1.4654 -2.2139 -3.1538
30206SOL    HW294407   6.634   3.503   9.923  0.0726 -1.0621 -0.3851
30207SOL     OW94408   8.115   8.591   2.518 -0.1795  1.1234  0.2408
30207SOL    HW194409   8.152   8.654   2.581  0.8981  1.7625 -0.9879
30207SOL    HW294410   8.076   8.646   2.450 -0.1436  0.4457 -0.3310
30208SOL     OW94411   2.668   4.061   9.638 -0.2346 -0.0740  0.2815
30208SOL    HW194412   2.592   4.103   9.678  0.1155  0.4382  0.4220
30208SOL    HW294413   2.656   3.968   9.656 -0.9128 -0.0197  0.1530
30209SOL     OW94414   6.354   4.014   5.111  0.1121  0.6430  0.0983
30209SOL    HW194415   6.324   3.969   5.189 -0.6898 -0.1570 -0.6585
30209SOL    HW294416   6.327   3.958   5.038 -0.9233  2.3198 -0.8725
30210SOL     OW94417   2.061   6.365   5.560 -0.0331  0.0995  0.2562
30210SOL    HW194418   2.022   6.352   5.474  0.5192 -0.0863  0.0316
30210SOL    HW294419   1.986   6.366   5.620 -0.3194 -1.3277 -0.0402
30211SOL     OW94420   2.674  10.114   2.730  0.0658  0.6398  0.1593
30211SOL    HW194421   2.708  10.080   2.647 -1.4618 -0.3528 -0.0928
30211SOL    HW294422   2.667  10.037   2.787  0.9819  1.2942  1.1835
30212SOL     OW94423   5.525   1.512   8.778 -0.2576  0.3844  0.0309
30212SOL    HW194424   5.475   1.472   8.849  1.0122 -0.7820  0.3153
30212SOL    HW294425   5.615   1.486   8.795  0.2878  1.4137 -1.1442
30213SOL     OW94426   2.154   7.737   5.616  0.1913 -0.2498 -0.4807
30213SOL    HW194427   2.166   7.832   5.613  0.5693 -0.2740  0.0240
30213SOL    HW294428   2.239   7.702   5.590  0.0942 -0.4505 -0.5290
30214SOL     OW94429   8.038   4.605   2.914 -0.7151 -0.0420 -0.0110
30214SOL    HW194430   8.058   4.596   2.821 -0.8836 -0.2529 -0.0268
30214SOL    HW294431   7.949   4.571   2.923 -0.3285 -0.9768  0.3960
30215SOL     OW94432   1.070   8.140   2.212 -0.3462 -0.2027  0.4415
30215SOL    HW194433   1.153   8.147   2.166 -1.0703  1.7322 -0.6839
30215SOL    HW294434   1.009   8.107   2.146 -0.4870 -1.6571  1.2700
30216SOL     OW94435   3.738   6.249   1.059  0.0035 -0.4508 -0.1954
30216SOL    HW194436   3.741   6.311   1.131 -1.8204 -0.6112  0.0612
30216SOL    HW294437   3.810   6.277   1.001  0.2929  0.8457  0.7311
30217SOL     OW94438   2.712   9.062   5.405  0.2110 -0.2821  0.4207
30217SOL    HW194439   2.800   9.055   5.369 -0.2450 -0.8035 -0.6190
30217SOL    HW294440   2.724   9.109   5.488  1.0138  3.1745 -1.4579
30218SOL     OW94441   4.788   1.455   9.659  0.3989  0.5377  0.4594
30218SOL    HW194442   4.757   1.395   9.591 -0.7557  2.5808 -0.9499
30218SOL    HW294443   4.711   1.474   9.712  0.5960  1.1613  0.5379
30219SOL     OW94444   0.267   3.509   7.783 -0.2517  0.3334 -0.9168
30219SOL    HW194445   0.240   3.537   7.695 -1.0564 -0.7207 -1.0337
30219SOL    HW294446   0.227   3.573   7.842  1.0645  1.5931 -1.3431
30220SOL     OW94447   2.884   3.315   6.949 -1.0236 -0.6383 -0.3537
30220SOL    HW194448   2.793   3.297   6.925 -1.0993  0.0614 -0.6392
30220SOL    HW294449   2.896   3.408   6.928  0.6594 -1.3829 -3.2469
30221SOL     OW94450   9.247   0.652   3.704  0.4116  0.3243 -0.2857
30221SOL    HW194451   9.317   0.637   3.768 -0.2626  2.3938  1.0395
30221SOL    HW294452   9.283   0.620   3.621  1.7869 -1.3151  0.8746
30222SOL     OW94453   4.377  10.199   9.660 -0.1946 -0.4786  0.1513
30222SOL    HW194454   4.445  10.221   9.596 -0.4683 -1.8339 -0.6322
30222SOL    HW294455   4.316  10.142   9.612 -0.6691 -1.1210  1.4790
30223SOL     OW94456   4.838   9.904   7.577 -0.2739 -0.1063 -0.0064
30223SOL    HW194457   4.860   9.970   7.642  0.7635 -0.6667  0.2252
30223SOL    HW294458   4.918   9.852   7.566 -0.4438 -0.0882 -1.6541
30224SOL     OW94459   6.419   6.847   1.944 -0.0537  0.4920 -0.4005
30224SOL    HW194460   6.332   6.818   1.918  0.1817  1.4856 -2.5044
30224SOL    HW294461   6.436   6.924   1.889  2.1158  0.3836  0.0303
30225SOL     OW94462   2.714   6.851   2.287  0.5359 -0.3594  0.1099
30225SOL    HW194463   2.791   6.877   2.237  0.4124 -2.5407 -1.3284
30225SOL    HW294464   2.640   6.886   2.238  0.5066 -0.0814  0.3448
30226SOL     OW94465   0.416   5.325   9.511  0.1219  0.4655  0.3999
30226SOL    HW194466   0.423   5.229   9.518 -1.0365  0.3816  0.5051
30226SOL    HW294467   0.489   5.349   9.454 -0.3327 -0.6195 -0.6864
30227SOL     OW94468   9.990   8.794   7.061 -0.4480 -0.1418 -0.2185
30227SOL    HW194469   9.929   8.721   7.075 -0.3738 -0.9044 -3.2001
30227SOL    HW294470   9.938   8.860   7.014  0.7204 -0.4758 -2.1085
30228SOL     OW94471   0.809   2.006   2.644  0.7178  0.3728  0.1095
30228SOL    HW194472   0.840   1.949   2.574 -2.0597 -1.3581  0.1386
30228SOL    HW294473   0.782   2.086   2.599 -0.6182 -0.5488 -0.7943
30229SOL     OW94474   1.784   5.680   6.476  0.0204  0.0635 -0.0826
30229SOL    HW194475   1.864   5.655   6.522  0.1998 -1.7404 -1.3135
30229SOL    HW294476   1.722   5.611   6.497 -0.8120  0.7660 -0.2075
30230SOL     OW94477   6.154   3.255   4.980  0.6320 -0.5109  0.3429
30230SOL    HW194478   6.070   3.286   4.948  1.0469 -0.8648 -1.1451
30230SOL    HW294479   6.169   3.306   5.060 -0.6404  0.0695  0.2362
30231SOL     OW94480   3.291   4.794   6.315 -0.2907  0.2974 -0.1821
30231SOL    HW194481   3.318   4.873   6.361 -1.0655  0.6621 -0.3394
30231SOL    HW294482   3.343   4.794   6.235  0.3733  0.1583  0.2407
30232SOL     OW94483   4.081   3.671   7.221 -0.0485 -0.1226  0.7244
30232SOL    HW194484   4.162   3.657   7.173 -2.5079  0.6624 -4.3604
30232SOL    HW294485   4.085   3.762   7.249  1.2200 -0.4098  1.5309
30233SOL     OW94486   2.244   6.444  10.361 -0.3503  0.0362  0.0197
30233SOL    HW194487   2.227   6.525  10.410  0.8810 -0.0108  0.5756
30233SOL    HW294488   2.272   6.382  10.429 -1.3371 -0.8946 -0.3907
30234SOL     OW94489   9.648   4.949   5.912  0.1487 -0.2364  0.2419
30234SOL    HW194490   9.720   4.890   5.889 -0.7938 -1.1765 -0.3103
30234SOL    HW294491   9.596   4.957   5.832 -0.4033  0.3889  0.6547
30235SOL     OW94492   2.930   0.587   0.754 -0.2550 -0.1791 -0.1444
30235SOL    HW194493   2.955   0.603   0.845 -0.3001  2.4144 -0.5007
30235SOL    HW294494   3.012   0.566   0.710  0.0552  0.3352  0.1751
30236SOL     OW94495   6.884   1.180   0.789 -0.3075 -0.2853 -0.3403
30236SOL    HW194496   6.905   1.168   0.696  0.3585  1.5311 -0.4684
30236SOL    HW294497   6.970   1.191   0.831 -0.6070 -1.1166  0.5009
30237SOL     OW94498   8.724   0.389   5.648 -0.1307  0.0259 -0.0236
30237SOL    HW194499   8.683   0.458   5.700  0.7012  0.8076 -0.3556
30237SOL    HW294500   8.814   0.386   5.681 -0.4309 -1.6698  0.7206
30238SOL     OW94501   7.868   1.896   3.767  0.1556  0.2807 -0.0624
30238SOL    HW194502   7.840   1.905   3.858 -0.1394 -0.0435 -0.1196
30238SOL    HW294503   7.891   1.803   3.758  0.4158  0.3625 -0.2529
30239SOL     OW94504   1.184   6.927   7.926  0.1339 -0.5013  0.1585
30239SOL    HW194505   1.163   6.862   7.993 -1.2248 -0.6663 -0.4026
30239SOL    HW294506   1.170   7.011   7.970 -0.6625 -0.6073  0.1068
30240SOL     OW94507   4.412   9.385   9.497 -0.3434  0.1964  0.2097
30240SOL    HW194508   4.412   9.436   9.577 -1.1982 -0.1279  0.4233
30240SOL    HW294509   4.467   9.309   9.517  1.7491  1.4622 -0.4211
30241SOL     OW94510   4.507   7.619   0.967  0.3219 -0.6619  0.0156
30241SOL    HW194511   4.592   7.598   0.930  0.2543 -1.0651  0.0854
30241SOL    HW294512   4.521   7.615   1.062  0.1903 -0.8831  0.0272
30242SOL     OW94513   1.296   4.035   8.807  0.2390  0.2423 -0.6559
30242SOL    HW194514   1.293   3.948   8.847  1.8563  0.1010 -0.7720
30242SOL    HW294515   1.295   4.096   8.882 -3.3090  0.3196 -0.5889
30243SOL     OW94516   9.331   8.998   5.222  0.2056  0.4134  0.2772
30243SOL    HW194517   9.358   8.967   5.135  1.5850 -0.8485  1.1146
30243SOL    HW294518   9.412   9.004   5.272 -0.6256  0.4434  1.6854
30244SOL     OW94519   1.569   2.211   4.230  0.0906  0.6099  0.1893
30244SOL    HW194520   1.498   2.148   4.242  0.5979 -0.0039  0.0004
30244SOL    HW294521   1.563   2.268   4.306  0.8350 -0.8540  1.3835
30245SOL     OW94522   1.260   0.454  10.214 -0.4753  0.2163 -0.1196
30245SOL    HW194523   1.180   0.466  10.265 -0.5948 -0.2735 -0.1888
30245SOL    HW294524   1.290   0.543  10.194 -2.3038  0.4495 -2.1555
30246SOL     OW94525   7.542  10.329   2.313  0.1334  0.2357 -0.1850
30246SOL    HW194526   7.506  10.368   2.233  0.5342  2.2937  0.5580
30246SOL    HW294527   7.635  10.352   2.310  0.3489 -0.5373  0.4048
30247SOL     OW94528   7.422  10.053   9.163 -0.3347 -0.5573 -0.4511
30247SOL    HW194529   7.365  10.004   9.222 -0.1460 -0.2480 -0.0098
30247SOL    HW294530   7.440   9.992   9.091 -1.9002 -0.3794 -1.0241
30248SOL     OW94531   0.007   0.373   3.515 -1.3521 -0.0466 -0.3120
30248SOL    HW194532  -0.082   0.346   3.537 -1.2511  0.1566  0.3931
30248SOL    HW294533   0.006   0.468   3.523 -1.0221 -0.0593 -0.0915
30249SOL     OW94534   0.747   9.561   3.788 -0.1525  0.1385 -0.0716
30249SOL    HW194535   0.769   9.654   3.791  2.3394 -0.3288 -1.3898
30249SOL    HW294536   0.676   9.555   3.725  1.5319  0.9326 -2.1852
30250SOL     OW94537   9.733   8.397   0.833 -0.1649 -0.4320  0.3939
30250SOL    HW194538   9.742   8.455   0.758  1.2778 -0.9482  0.1387
30250SOL    HW294539   9.708   8.455   0.905  0.0999  0.3210 -0.1137
30251SOL     OW94540   4.772   2.091   8.791  0.1054 -0.0523  0.4909
30251SOL    HW194541   4.678   2.100   8.778 -0.0517 -1.4827  0.4897
30251SOL    HW294542   4.800   2.177   8.822 -0.8835  0.9600 -1.2378
30252SOL     OW94543   6.581   5.485   9.181 -0.1766 -0.0590  0.6123
30252SOL    HW194544   6.569   5.420   9.111  1.0933  1.4529 -1.1356
30252SOL    HW294545   6.504   5.541   9.175 -0.1973 -0.0882  0.6020
30253SOL     OW94546   5.104   7.563   6.257  0.2547  0.3674  0.2736
30253SOL    HW194547   5.094   7.503   6.331 -2.0457  1.0216  0.5933
30253SOL    HW294548   5.169   7.626   6.286 -0.5462  0.5680  1.7550
30254SOL     OW94549   7.852   2.118   5.591  0.0847  0.1942 -0.1465
30254SOL    HW194550   7.889   2.043   5.545 -1.4440 -0.7065  0.0363
30254SOL    HW294551   7.781   2.149   5.534  1.2245  2.0886 -0.6469
30255SOL     OW94552   8.687   2.704   5.587  0.7688 -0.6340 -0.0832
30255SOL    HW194553   8.693   2.712   5.683 -0.6401  2.5523 -0.1462
30255SOL    HW294554   8.593   2.693   5.570  0.8043  0.5955 -1.1638
30256SOL     OW94555   2.219   8.959   0.112  0.3107  0.5127 -0.5730
30256SOL    HW194556   2.174   8.931   0.033 -0.8761  2.2345 -0.5783
30256SOL    HW294557   2.195   8.895   0.178 -2.0959  1.2453 -0.6289
30257SOL     OW94558  10.346   6.377   8.129  0.1010  0.3115  0.0917
30257SOL    HW194559  10.313   6.316   8.194 -2.0270  1.7412  0.4642
30257SOL    HW294560  10.416   6.424   8.173  0.8438 -0.8887  0.2350
30258SOL     OW94561   7.117   8.689   8.599  0.3500  0.0029  0.0676
30258SOL    HW194562   7.187   8.650   8.651  1.4139  1.8613  0.1431
30258SOL    HW294563   7.134   8.661   8.509  1.7107  1.0675 -0.0371
30259SOL     OW94564   1.475   6.623   8.336 -0.1321  0.1476  0.5832
30259SOL    HW194565   1.505   6.696   8.282  1.1947 -0.2536  0.7372
30259SOL    HW294566   1.554   6.572   8.353 -0.9097 -0.9281  1.0868
30260SOL     OW94567   0.825   1.818   5.618 -0.2284 -0.3691 -0.2558
30260SOL    HW194568   0.825   1.754   5.689 -2.4160  0.1842  0.3259
30260SOL    HW294569   0.913   1.814   5.582  0.8535 -0.9276  2.2497
30261SOL     OW94570   9.969   0.660   6.346  0.5952 -0.8244 -0.1877
30261SOL    HW194571   9.935   0.747   6.367 -0.3592 -1.2396  0.0373
30261SOL    HW294572   9.926   0.602   6.409  0.5352 -1.5864 -0.9185
30262SOL     OW94573   0.687   9.279   1.690 -0.2028  0.5670 -0.0975
30262SOL    HW194574   0.737   9.233   1.623 -0.2347  1.5609 -0.8122
30262SOL    HW294575   0.607   9.227   1.701  1.5077 -1.8891  2.1034
30263SOL     OW94576   1.563   9.134   9.923  0.0910  0.3262 -0.5572
30263SOL    HW194577   1.499   9.076   9.964 -1.0028  1.9251  0.1070
30263SOL    HW294578   1.545   9.128   9.829 -1.7292  1.4880 -0.3178
30264SOL     OW94579   1.103   3.108   8.884  0.0973 -0.5157  0.2710
30264SOL    HW194580   1.124   3.132   8.794 -0.7039  1.4749  0.5562
30264SOL    HW294581   1.161   3.034   8.903  1.0302 -0.3130 -1.5218
30265SOL     OW94582   5.610   4.126   1.984  0.2350  0.3776  0.1598
30265SOL    HW194583   5.699   4.158   1.976  0.0393  1.1048  0.7507
30265SOL    HW294584   5.558   4.183   1.927  0.0934  0.2320  0.1423
30266SOL     OW94585   1.136   7.989   9.022  0.0710 -0.2645  0.3777
30266SOL    HW194586   1.107   8.041   8.947 -0.7091  0.9816  1.5064
30266SOL    HW294587   1.058   7.940   9.048  0.2100 -0.3244  0.6832
30267SOL     OW94588   4.375   0.718   8.849  0.1406  0.8250 -0.8679
30267SOL    HW194589   4.280   0.707   8.847  0.0576  1.4162 -0.5326
30267SOL    HW294590   4.388   0.798   8.900  0.8826 -0.1577  0.5558
30268SOL     OW94591   3.876   2.908   9.818 -0.2123  0.5460  0.4418
30268SOL    HW194592   3.820   2.864   9.881  0.2362  0.7169  0.9626
30268SOL    HW294593   3.964   2.896   9.852 -0.0414  1.3716  0.2970
30269SOL     OW94594   9.416   8.737   2.733  0.0383 -0.0616 -0.3460
30269SOL    HW194595   9.411   8.707   2.643 -2.0758 -1.4102  0.1504
30269SOL    HW294596   9.344   8.799   2.743  0.5555  0.4681  0.3115
30270SOL     OW94597   8.210   1.882   8.182  0.1262  0.3123 -0.1734
30270SOL    HW194598   8.257   1.829   8.246  0.6461  0.0969 -0.7202
30270SOL    HW294599   8.187   1.962   8.229  2.1857  1.0125 -0.2110
30271SOL     OW94600   8.271   0.695   3.083 -0.3108  0.3191 -0.8028
30271SOL    HW194601   8.256   0.621   3.023  2.9370 -0.2069 -1.1690
30271SOL    HW294602   8.283   0.770   3.025 -0.0986  0.4047 -0.6492
30272SOL     OW94603   7.513   9.282  10.100  0.2749 -0.1570 -0.1281
30272SOL    HW194604   7.466   9.359  10.130 -2.2663 -0.9396 -1.7799
30272SOL    HW294605   7.580   9.317  10.041 -0.3472  0.8451 -0.2650
30273SOL     OW94606   4.716   6.123   9.759  0.5141  0.4330 -0.4800
30273SOL    HW194607   4.720   6.209   9.716 -1.1916  1.0264  0.4462
30273SOL    HW294608   4.731   6.060   9.689  0.9706  1.4685 -1.3361
30274SOL     OW94609  10.080   4.167   5.606 -0.6080  0.6230 -1.0829
30274SOL    HW194610  10.149   4.108   5.578 -1.1984  0.1799 -1.6396
30274SOL    HW294611  10.044   4.204   5.525 -0.7602  1.1600 -0.7821
30275SOL     OW94612   6.764   4.482   2.163 -0.2346  0.5775 -0.3511
30275SOL    HW194613   6.853   4.487   2.197 -0.7210  1.7972  0.8036
30275SOL    HW294614   6.753   4.390   2.138  1.7731  0.6568 -1.7703
30276SOL     OW94615   5.928   1.018   4.630  0.4042  0.0605  0.1219
30276SOL    HW194616   5.921   0.924   4.648 -0.7512  0.2310  0.6841
30276SOL    HW294617   5.875   1.060   4.699  3.1807  1.3311  1.6462
30277SOL     OW94618   1.407   0.677   1.597  0.4521  0.4263  0.0814
30277SOL    HW194619   1.325   0.689   1.645 -0.1072  0.1795 -0.7850
30277SOL    HW294620   1.454   0.609   1.646 -0.1075  0.1769  0.2799
30278SOL     OW94621   4.418   9.558   9.718 -0.1496 -0.1036  0.1468
30278SOL    HW194622   4.477   9.608   9.775 -0.5639 -1.0999  1.5238
30278SOL    HW294623   4.331   9.594   9.736 -0.2611 -0.2999  0.0057
30279SOL     OW94624   7.076   4.657  10.344  0.0069 -0.0311  0.5277
30279SOL    HW194625   7.017   4.639  10.271 -0.2457 -0.9723  0.9445
30279SOL    HW294626   7.019   4.689  10.414  0.2647  0.9938  0.2869
30280SOL     OW94627   1.327   1.506   2.500 -0.8056  0.2054  0.4552
30280SOL    HW194628   1.401   1.465   2.456  0.1169  2.5638 -0.3549
30280SOL    HW294629   1.289   1.436   2.554  1.9189 -1.1046  0.8429
30281SOL     OW94630   1.230   6.184   3.970  0.8005  1.3422 -0.0228
30281SOL    HW194631   1.196   6.123   3.905 -0.3742  1.0224  0.8358
30281SOL    HW294632   1.310   6.143   4.003  2.1412  2.1138 -2.1105
30282SOL     OW94633   4.471   8.981   2.511  0.0349  0.0706 -0.0202
30282SOL    HW194634   4.382   8.962   2.483  0.1198  1.4697 -1.4079
30282SOL    HW294635   4.462   9.052   2.574  0.1322 -0.1134  0.2008
30283SOL     OW94636   9.551   2.479   0.418 -0.1790 -0.6080 -0.3778
30283SOL    HW194637   9.578   2.389   0.402 -0.7569 -1.1523  1.4934
30283SOL    HW294638   9.565   2.524   0.334  0.1362 -2.4132 -1.3308
30284SOL     OW94639   8.558   7.117   9.948  0.3528  0.0479  0.3749
30284SOL    HW194640   8.566   7.205   9.985  0.9429  0.1487  0.0140
30284SOL    HW294641   8.497   7.072  10.007  2.2582 -0.2032  2.2770
30285SOL     OW94642   2.571   8.067   5.292  0.4722  0.6714 -0.4418
30285SOL    HW194643   2.587   8.002   5.224  0.1899  0.0784  0.0423
30285SOL    HW294644   2.479   8.091   5.281 -0.7511 -2.2265  2.0091
30286SOL     OW94645   2.942   6.276   9.503  0.4682 -0.0186 -0.2076
30286SOL    HW194646   2.922   6.184   9.515 -1.2036  0.2617 -0.6825
30286SOL    HW294647   3.032   6.277   9.470  1.0057 -1.3804  1.1348
30287SOL     OW94648   6.694   7.017   1.158  0.6808  0.2803  0.5207
30287SOL    HW194649   6.719   7.103   1.192 -0.4136  0.4402  0.9383
30287SOL    HW294650   6.655   6.971   1.232  0.2143 -0.1592  0.0151
30288SOL     OW94651   2.181   4.844   7.829  0.0565  0.4292 -0.2897
30288SOL    HW194652   2.161   4.762   7.784 -0.4076 -0.3794  1.3199
30288SOL    HW294653   2.262   4.825   7.878  0.2712  1.1152 -0.3706
30289SOL     OW94654   9.014   1.218   0.104  0.4540  0.2829 -0.1158
30289SOL    HW194655   8.991   1.168   0.025 -0.5307 -0.0083  0.3446
30289SOL    HW294656   9.004   1.155   0.176  1.7617  0.4269  0.2144
30290SOL     OW94657   6.859   8.996   4.424 -0.2431 -0.6645  0.0544
30290SOL    HW194658   6.889   9.038   4.504 -0.1712 -0.3049 -0.1591
30290SOL    HW294659   6.898   8.909   4.426 -0.9931 -0.9974  0.8625
30291SOL     OW94660  10.119   5.956   8.967 -0.1564 -0.2403 -0.4867
30291SOL    HW194661  10.058   5.892   9.004 -0.2946  0.6910  1.0284
30291SOL    HW294662  10.167   5.990   9.044 -0.8640  2.2427 -1.0484
30292SOL     OW94663   7.723   7.180   3.366 -0.0324 -0.4958 -0.2599
30292SOL    HW194664   7.709   7.154   3.275  0.0742 -1.5143  0.0043
30292SOL    HW294665   7.802   7.234   3.364 -0.1528 -0.3302 -0.7923
30293SOL     OW94666   8.826   5.639   6.191 -0.0739 -0.2279  0.0409
30293SOL    HW194667   8.895   5.580   6.161  0.7943  1.3082 -1.1041
30293SOL    HW294668   8.751   5.620   6.134 -0.8648 -2.2438  1.6001
30294SOL     OW94669   5.545   7.902   0.552  0.6774  0.1145 -0.3768
30294SOL    HW194670   5.625   7.856   0.526 -0.9757 -3.0391 -0.2777
30294SOL    HW294671   5.523   7.868   0.638  0.2249  2.4321  0.5059
30295SOL     OW94672   3.814   9.341   0.572 -0.3146  0.8285  0.0856
30295SOL    HW194673   3.727   9.324   0.609  0.3511 -1.3574  0.7773
30295SOL    HW294674   3.830   9.433   0.591 -1.5263  0.6958  2.0081
30296SOL     OW94675   6.781   4.243   0.688  0.0313  0.0965  0.2551
30296SOL    HW194676   6.862   4.251   0.739  1.1780  0.3276 -1.4942
30296SOL    HW294677   6.789   4.158   0.645 -1.2284 -0.3934  0.9581
30297SOL     OW94678   7.543   6.983   8.025  0.0321 -0.2130  0.0828
30297SOL    HW194679   7.539   6.917   7.956  2.0124  0.4408 -0.7425
30297SOL    HW294680   7.575   7.062   7.980 -0.2341  0.7008  1.4374
30298SOL     OW94681   6.170   1.213   6.715 -0.1537  0.4318 -0.1592
30298SOL    HW194682   6.162   1.167   6.799 -0.0067 -2.0509 -1.4391
30298SOL    HW294683   6.080   1.217   6.681 -0.0367  0.2663 -0.4864
30299SOL     OW94684   6.192   4.411   6.293 -0.2992  0.3456 -0.3682
30299SOL    HW194685   6.250   4.335   6.286 -0.6108  0.2298 -2.3883
30299SOL    HW294686   6.126   4.396   6.225 -1.6611  1.3513  0.6885
30300SOL     OW94687   7.170   0.292   2.323 -0.1475 -0.1798 -0.3443
30300SOL    HW194688   7.230   0.367   2.322 -0.2499 -0.0968 -0.2996
30300SOL    HW294689   7.097   0.321   2.379 -1.0292  0.3405 -1.7141
30301SOL     OW94690   2.387   1.977   7.395  0.3360  0.5537 -0.2811
30301SOL    HW194691   2.316   1.913   7.401 -1.3118  2.4087  1.0636
30301SOL    HW294692   2.345   2.056   7.362  1.8479  1.6207  0.2669
30302SOL     OW94693   5.555   8.382   1.750 -0.0311 -0.0467  0.3725
30302SOL    HW194694   5.525   8.440   1.820 -0.8868 -0.4350  0.3439
30302SOL    HW294695   5.499   8.402   1.676 -0.2625 -0.8112  0.3272
30303SOL     OW94696   3.187   9.531   8.414  0.5905 -0.5030  0.1431
30303SOL    HW194697   3.150   9.502   8.498  1.0258  0.5419  0.7103
30303SOL    HW294698   3.168   9.459   8.354 -1.0391 -0.6553  0.7725
30304SOL     OW94699   2.349   1.126   4.098  0.2056  0.4767  0.3118
30304SOL    HW194700   2.419   1.157   4.040  0.2152 -1.4569 -0.7790
30304SOL    HW294701   2.270   1.170   4.065  0.0296 -1.3315 -1.9143
30305SOL     OW94702   6.899   9.704   4.190  0.1066 -0.4819 -0.5228
30305SOL    HW194703   6.808   9.732   4.197 -0.0528 -0.8371 -1.0963
30305SOL    HW294704   6.895   9.622   4.141  0.6757 -0.8453  0.0161
30306SOL     OW94705   7.629   4.580   5.440  0.1898  0.2588 -0.0700
30306SOL    HW194706   7.638   4.530   5.359  0.7754  1.1500 -0.5732
30306SOL    HW294707   7.591   4.663   5.413  0.9097  0.7809  0.4771
30307SOL     OW94708   3.224   5.659   7.458  0.2087 -0.2988  0.4741
30307SOL    HW194709   3.199   5.577   7.500  0.9165 -0.8649 -0.1801
30307SOL    HW294710   3.296   5.635   7.400  1.5254  1.0733  1.4592
30308SOL     OW94711   5.999   9.009   1.295 -0.2117 -0.2736 -0.3004
30308SOL    HW194712   5.906   9.026   1.282 -0.4467 -1.6172 -0.5753
30308SOL    HW294713   6.036   9.003   1.207  0.2169  0.6054 -0.1910
30309SOL     OW94714   5.995   4.299   5.213 -0.5768  0.0905 -0.4573
30309SOL    HW194715   5.985   4.217   5.164  1.2676 -0.3837 -0.1282
30309SOL    HW294716   6.083   4.293   5.250 -1.0584  1.4679  0.9996
30310SOL     OW94717   8.945   6.541   9.274  0.7416 -0.6103 -0.4895
30310SOL    HW194718   8.907   6.628   9.283  1.7693 -0.2015  0.0814
30310SOL    HW294719   9.040   6.556   9.275  0.9456 -1.5793 -1.9437
30311SOL     OW94720   4.681   2.767   6.680  0.6356  0.3676  0.5442
30311SOL    HW194721   4.652   2.852   6.646  0.3732  0.5614  1.2358
30311SOL    HW294722   4.602   2.713   6.682  1.2147 -0.7572 -2.2736
30312SOL     OW94723   0.168   8.695  10.090 -0.3897  0.0405  0.9458
30312SOL    HW194724   0.084   8.655  10.111 -0.5124  0.7036  1.7586
30312SOL    HW294725   0.164   8.782  10.130  0.6598  0.0998  0.9432
30313SOL     OW94726   0.189   3.318   9.634  0.4821 -0.4261  0.3091
30313SOL    HW194727   0.211   3.288   9.546  2.0097  0.1878  0.4446
30313SOL    HW294728   0.180   3.238   9.685 -1.2122 -0.8268 -0.5438
30314SOL     OW94729   9.877   9.320   7.568 -0.4600  0.4822  0.4012
30314SOL    HW194730   9.785   9.331   7.590 -0.5361  0.3093  0.1667
30314SOL    HW294731   9.883   9.231   7.534 -0.1943  0.4686  0.4797
30315SOL     OW94732   2.006   6.243   9.914 -0.2923  0.1530 -0.3249
30315SOL    HW194733   1.934   6.193   9.951  0.2031  1.1786  2.2181
30315SOL    HW294734   1.970   6.331   9.899  1.1004  1.8786  4.5613
30316SOL     OW94735   5.311   6.771   8.595  0.0228 -0.4207  0.3113
30316SOL    HW194736   5.352   6.856   8.579  0.4207 -0.7620 -0.5703
30316SOL    HW294737   5.238   6.790   8.654  0.4118  0.4499  0.5366
30317SOL     OW94738   9.400   3.899  10.140  0.4569  0.1829 -0.3864
30317SOL    HW194739   9.372   3.964  10.076  0.2936 -0.5255 -1.0504
30317SOL    HW294740   9.332   3.900  10.207 -0.8493 -1.0274 -1.6304
30318SOL     OW94741   6.200   8.757   3.032  0.2067 -0.3853 -0.5425
30318SOL    HW194742   6.232   8.843   3.003  1.1911  0.1019  1.7703
30318SOL    HW294743   6.276   8.699   3.020  0.7590 -0.0938  1.2547
30319SOL     OW94744   5.549   1.650   5.047  0.4083  0.1307  0.3668
30319SOL    HW194745   5.475   1.590   5.043  2.2843 -2.3627 -0.1527
30319SOL    HW294746   5.545   1.688   5.135 -0.4894 -1.3764  1.0232
30320SOL     OW94747   0.818   3.553   6.888  0.1549  0.1541 -0.3141
30320SOL    HW194748   0.857   3.546   6.800 -2.5470 -0.8139 -1.5594
30320SOL    HW294749   0.811   3.462   6.918  0.0641  0.4067  0.4438
30321SOL     OW94750   1.040   3.275   2.444  0.5338 -0.5617  0.4105
30321SOL    HW194751   1.124   3.319   2.431  1.1710 -1.6806  0.6492
30321SOL    HW294752   1.028   3.221   2.366  0.2075 -0.6687  0.5318
30322SOL     OW94753   9.864   9.721   3.005  0.1066  0.2562  0.0348
30322SOL    HW194754   9.846   9.656   3.073  1.1513 -0.7524 -0.6306
30322SOL    HW294755   9.838   9.679   2.923 -0.4601  1.1904 -0.2928
30323SOL     OW94756   5.188   4.224   5.377 -0.0467  1.0448  0.2835
30323SOL    HW194757   5.243   4.152   5.407 -0.5358  0.5788  0.0659
30323SOL    HW294758   5.250   4.297   5.365  0.6103  0.3943 -0.4125
30324SOL     OW94759   9.603   4.254   0.433  0.2753 -0.4665 -0.2618
30324SOL    HW194760   9.672   4.243   0.498  0.1429  2.0511  0.3908
30324SOL    HW294761   9.590   4.348   0.426 -2.1971 -0.7944 -1.3422
30325SOL     OW94762   9.842   0.060   1.025 -0.3326  0.0325  0.0131
30325SOL    HW194763   9.813   0.007   1.100 -0.0091 -1.3493 -0.8142
30325SOL    HW294764   9.878   0.139   1.065 -2.0910  0.3003  1.2314
30326SOL     OW94765   5.561   2.855   7.678  0.1458  0.0036 -0.3344
30326SOL    HW194766   5.589   2.947   7.677  0.3584 -0.0418  0.4272
30326SOL    HW294767   5.591   2.819   7.595  3.4035 -0.3431  0.8546
30327SOL     OW94768   2.949   2.326   7.086 -0.3185 -0.1255 -0.3199
30327SOL    HW194769   2.924   2.404   7.137  1.5871  1.2765 -1.3783
30327SOL    HW294770   2.935   2.253   7.146 -1.2786  1.1271  1.0527
30328SOL     OW94771   8.312   7.738   7.678 -0.8871 -0.2366  0.0649
30328SOL    HW194772   8.229   7.785   7.670 -1.5646 -1.1450  1.3639
30328SOL    HW294773   8.290   7.647   7.659 -0.6041 -0.8044  2.1896
30329SOL     OW94774   1.014   3.669   7.058  0.2538 -0.1334  0.1465
30329SOL    HW194775   1.050   3.594   7.104  1.4529  0.2665 -0.0938
30329SOL    HW294776   0.956   3.632   6.992 -1.6810 -0.7150  2.0695
30330SOL     OW94777   1.484   7.971   5.546 -0.6223 -0.3838 -0.2227
30330SOL    HW194778   1.404   7.993   5.594 -1.4220 -1.9705 -0.7418
30330SOL    HW294779   1.472   8.011   5.460 -0.7714 -0.4544 -0.2347
30331SOL     OW94780   5.792   5.716   4.470  0.1454 -0.2581  0.1337
30331SOL    HW194781   5.825   5.709   4.381 -0.3341 -1.8114  0.0423
30331SOL    HW294782   5.870   5.726   4.524  0.4991 -0.1829 -0.3825
30332SOL     OW94783   2.755   4.801   0.623 -0.6933  0.0083 -0.1904
30332SOL    HW194784   2.663   4.781   0.605 -0.4558 -1.1377 -0.1962
30332SOL    HW294785   2.800   4.779   0.542 -0.1420 -1.4830  0.4873
30333SOL     OW94786   4.397   0.568   1.386 -0.0732 -0.1111 -0.1600
30333SOL    HW194787   4.477   0.524   1.414 -0.4026  0.3835  1.6965
30333SOL    HW294788   4.413   0.591   1.294  1.7008 -0.4593  0.0261
30334SOL     OW94789   8.707   1.753   7.039  0.9441 -0.4689  0.7972
30334SOL    HW194790   8.679   1.711   7.120  0.6621  0.6167  1.2761
30334SOL    HW294791   8.654   1.833   7.033  0.8492 -0.5975 -0.5336
30335SOL     OW94792   2.368   7.371   5.932 -0.1155  0.4705  0.1994
30335SOL    HW194793   2.286   7.347   5.889  1.8140 -2.6734 -2.1891
30335SOL    HW294794   2.403   7.287   5.964  1.9778  1.7577  1.4753
30336SOL     OW94795   3.586   1.712   9.354  0.3185 -0.1384 -0.0934
30336SOL    HW194796   3.612   1.699   9.445  0.6185  0.7242 -0.0483
30336SOL    HW294797   3.617   1.633   9.309  1.5549  0.1179  0.2739
30337SOL     OW94798   5.959   8.081   1.454  0.7171 -0.4181  0.3038
30337SOL    HW194799   5.963   8.174   1.478 -0.5935 -0.2350 -0.0880
30337SOL    HW294800   5.936   8.036   1.535 -1.7981 -0.0175 -0.1236
30338SOL     OW94801   0.098  10.114   0.003  0.0840 -0.1218  0.5674
30338SOL    HW194802   0.069  10.155   0.084 -0.1872  0.2140  0.3066
30338SOL    HW294803   0.109  10.022   0.025  1.8297  0.2678  1.4600
30339SOL     OW94804   6.941   3.255   5.840 -0.5639 -0.5431 -0.7593
30339SOL    HW194805   6.951   3.292   5.927 -1.2801 -0.5487 -0.6646
30339SOL    HW294806   6.926   3.162   5.855  0.3619 -0.7288 -0.9498
30340SOL     OW94807   6.488   8.651   2.961 -0.1292 -0.0635  0.0516
30340SOL    HW194808   6.467   8.558   2.970 -3.4609  0.6036  0.1170
30340SOL    HW294809   6.502   8.665   2.868  2.2957 -0.8925  0.2147
30341SOL     OW94810   4.658   2.910   7.206 -0.2125 -0.4632  0.0280
30341SOL    HW194811   4.707   2.939   7.130 -0.4811  1.6230  0.5843
30341SOL    HW294812   4.680   2.973   7.275 -3.1359  0.2398  0.4771
30342SOL     OW94813   2.483   7.998   6.329 -0.8361  0.2387  0.1711
30342SOL    HW194814   2.445   8.005   6.242  0.9143  1.2161 -0.5585
30342SOL    HW294815   2.485   7.904   6.347  0.5286 -0.1243 -1.6599
30343SOL     OW94816   5.787   4.571   2.509 -0.3133 -0.1218 -0.3843
30343SOL    HW194817   5.721   4.571   2.440 -0.3133 -3.2599 -0.5158
30343SOL    HW294818   5.865   4.608   2.469 -0.3943 -1.6443 -2.0503
30344SOL     OW94819  10.332   6.144   8.670 -0.0133 -0.7016 -0.4220
30344SOL    HW194820  10.362   6.053   8.677  0.2229 -0.5964 -0.0629
30344SOL    HW294821  10.240   6.141   8.698  1.0724 -0.1621  3.9846
30345SOL     OW94822   5.115   4.748   9.709 -0.2746 -0.7396 -0.2412
30345SOL    HW194823   5.050   4.695   9.662 -0.0009 -1.1060 -0.2158
30345SOL    HW294824   5.178   4.684   9.742 -0.4576 -0.4788  0.6209
30346SOL     OW94825   5.682   8.316   0.789  0.2645  0.0227  0.6742
30346SOL    HW194826   5.630   8.290   0.713  1.4526 -1.4862  0.3424
30346SOL    HW294827   5.710   8.405   0.769 -0.2796  0.0134 -0.1809
30347SOL     OW94828   5.516   3.108   9.660 -0.4353 -0.0614  0.2949
30347SOL    HW194829   5.502   3.016   9.679 -0.5343 -0.5686 -1.9222
30347SOL    HW294830   5.589   3.134   9.716 -0.1879 -1.5673  0.7059
30348SOL     OW94831   9.422   2.960   5.642  0.1164  0.3071 -0.0771
30348SOL    HW194832   9.424   2.955   5.546  0.4677  0.1686 -0.0666
30348SOL    HW294833   9.456   3.047   5.663 -1.1615  0.8345 -0.1101
30349SOL     OW94834   5.122   9.772   4.603 -0.5468  0.3904 -0.1186
30349SOL    HW194835   5.036   9.747   4.637 -0.6687  0.0497 -0.6548
30349SOL    HW294836   5.108   9.780   4.508  0.2381 -0.6890 -0.3461
30350SOL     OW94837   2.836   4.923  10.251 -0.3932  0.2080  0.4110
30350SOL    HW194838   2.901   4.902  10.318  1.3565  2.7009 -0.3971
30350SOL    HW294839   2.768   4.971  10.298  0.7139  1.7455  0.5037
30351SOL     OW94840   8.165   3.270   3.588  0.0836  0.1646 -0.0501
30351SOL    HW194841   8.112   3.190   3.586 -0.5134  0.4964  1.1085
30351SOL    HW294842   8.255   3.239   3.600 -0.1469 -0.3304  0.4514
30352SOL     OW94843   2.340   6.380   3.472 -0.8443  0.3546  0.3087
30352SOL    HW194844   2.334   6.335   3.556 -0.1287  1.3865  0.9387
30352SOL    HW294845   2.345   6.309   3.407  0.4917 -0.4878  1.2834
30353SOL     OW94846   4.593   2.071   4.517  0.4865  0.5108  0.2348
30353SOL    HW194847   4.679   2.111   4.504  0.4373  0.5802  0.1188
30353SOL    HW294848   4.596   2.035   4.605 -0.3466  2.9881  1.3708
30354SOL     OW94849   3.619   0.375   8.680  0.5540 -0.3992  0.1594
30354SOL    HW194850   3.679   0.430   8.728  1.1986  0.2282 -1.3039
30354SOL    HW294851   3.641   0.389   8.588 -0.6551 -1.5056 -0.3428
30355SOL     OW94852   7.928   3.379   8.226 -0.2891 -0.7368 -0.0386
30355SOL    HW194853   8.008   3.388   8.173  0.2086 -1.9352  0.4617
30355SOL    HW294854   7.868   3.444   8.191  0.7023 -0.2208 -0.8275
30356SOL     OW94855   6.854   3.744   3.267  0.3575 -0.1315 -0.2313
30356SOL    HW194856   6.767   3.713   3.294  1.1246 -1.4483  0.8199
30356SOL    HW294857   6.877   3.809   3.332  0.7719 -0.8624  0.3684
30357SOL     OW94858   1.909   5.091   3.637  0.6173 -0.2124  0.3989
30357SOL    HW194859   1.918   4.996   3.649  0.8480 -0.5080 -1.6692
30357SOL    HW294860   1.890   5.101   3.543 -0.8203  1.7110  0.8287
30358SOL     OW94861   7.641   9.054   2.919 -0.6022  0.9088 -0.5486
30358SOL    HW194862   7.593   9.052   2.836 -0.2060  2.7537 -0.8801
30358SOL    HW294863   7.579   9.021   2.983 -0.9119 -0.5760 -1.5717
30359SOL     OW94864   5.681   0.792   3.260 -0.2529  0.1826  0.6053
30359SOL    HW194865   5.721   0.705   3.264  0.6924  0.6210  1.0485
30359SOL    HW294866   5.596   0.778   3.219  0.4377 -0.7563 -0.5731
30360SOL     OW94867   5.967   6.663   9.707 -0.2295 -0.1495  0.2817
30360SOL    HW194868   6.051   6.654   9.751  0.6551  0.6746 -1.1707
30360SOL    HW294869   5.967   6.752   9.672 -2.4448  0.4899  1.6827
30361SOL     OW94870   4.870  10.174   4.888  0.2120  0.6028 -0.7906
30361SOL    HW194871   4.947  10.219   4.852  1.4225 -1.7873 -1.3565
30361SOL    HW294872   4.852  10.103   4.826 -0.5589 -0.7513  0.9116
30362SOL     OW94873   0.117   8.053   8.987 -0.1222 -0.5230 -0.4719
30362SOL    HW194874   0.146   7.964   8.967  0.1155 -1.2607  2.6047
30362SOL    HW294875   0.198   8.105   8.992 -0.0203 -0.7205  0.0705
30363SOL     OW94876   9.455   8.671   0.068  0.2381  0.5293  0.4756
30363SOL    HW194877   9.385   8.726   0.031 -0.8211 -0.6773  0.6368
30363SOL    HW294878   9.478   8.715   0.150 -1.6436 -0.0203  1.3555
30364SOL     OW94879   1.628   2.749   9.171  0.0275 -0.0804 -0.1457
30364SOL    HW194880   1.703   2.707   9.212  0.5215 -0.1425 -1.0734
30364SOL    HW294881   1.558   2.740   9.235 -0.0284 -2.7174 -0.4523
30365SOL     OW94882   5.344   8.302   0.470 -0.0399  0.4123 -0.2551
30365SOL    HW194883   5.330   8.298   0.375 -0.3651 -1.8368 -0.1518
30365SOL    HW294884   5.266   8.261   0.507  1.6943 -2.1134  0.8135
30366SOL     OW94885   9.528   7.118   3.729  0.0513  0.1680 -0.5229
30366SOL    HW194886   9.607   7.102   3.677  0.3055  0.8412 -0.3558
30366SOL    HW294887   9.555   7.101   3.819  0.0932  0.6926 -0.4334
30367SOL     OW94888   7.298   1.232   5.647  0.0321 -0.4063 -0.0442
30367SOL    HW194889   7.286   1.169   5.576 -0.0132  0.2445 -0.6241
30367SOL    HW294890   7.219   1.223   5.701 -1.6894  1.5572 -2.0347
30368SOL     OW94891   7.270  10.307   3.276 -0.0164 -0.2744  0.1491
30368SOL    HW194892   7.206  10.340   3.213  0.3233 -0.4969 -0.3202
30368SOL    HW294893   7.226  10.312   3.361 -0.9637 -1.2237 -0.2765
30369SOL     OW94894   1.155   3.682   8.971  0.9379 -0.2335  0.6272
30369SOL    HW194895   1.120   3.733   9.044 -1.1497 -0.3404 -0.2419
30369SOL    HW294896   1.242   3.721   8.955  0.6315  1.0635  1.8928
30370SOL     OW94897   2.425   4.031   6.094  0.1124  0.3736 -0.1286
30370SOL    HW194898   2.438   4.124   6.114  0.0556  0.4554 -0.4796
30370SOL    HW294899   2.433   4.025   5.999 -0.7410  0.1574 -0.1878
30371SOL     OW94900   5.545   2.389   1.365  0.0040  0.2600 -0.1027
30371SOL    HW194901   5.638   2.374   1.383  0.8214  2.0072 -2.4987
30371SOL    HW294902   5.530   2.351   1.279 -1.2438  0.9765 -0.2256
30372SOL     OW94903   3.760   6.155   3.270 -0.5492  0.8446 -0.2926
30372SOL    HW194904   3.690   6.170   3.334 -0.0919 -2.6815  1.2781
30372SOL    HW294905   3.841   6.163   3.322 -0.1321 -1.1715 -0.5488
30373SOL     OW94906   4.037   2.042   6.971 -0.5680  0.1078  0.2989
30373SOL    HW194907   4.123   2.042   7.012 -0.0736 -1.2264 -0.6438
30373SOL    HW294908   3.976   2.021   7.043 -0.4214  3.0999  1.4027
30374SOL     OW94909   1.822   5.024   6.752  0.6055 -0.4316  0.4798
30374SOL    HW194910   1.800   5.093   6.815 -2.5002  0.4849 -1.3598
30374SOL    HW294911   1.826   5.070   6.667 -0.3940 -2.2921 -0.6391
30375SOL     OW94912   8.430   6.652   7.778 -0.5581 -0.3064 -0.1203
30375SOL    HW194913   8.449   6.696   7.695  0.6285 -0.5014  0.0407
30375SOL    HW294914   8.447   6.559   7.761 -0.0244 -0.3123  0.4255
30376SOL     OW94915  10.212   6.525   9.342 -0.7771  0.0425  0.2283
30376SOL    HW194916  10.153   6.568   9.281 -1.7690  0.5527  1.5006
30376SOL    HW294917  10.230   6.591   9.409  0.4045 -0.4432  0.4240
30377SOL     OW94918   0.679   5.833   7.279  0.4205  0.7055  0.5408
30377SOL    HW194919   0.715   5.746   7.297  0.3187  0.6273  0.3681
30377SOL    HW294920   0.753   5.892   7.290  0.7874  0.4679 -0.5554
30378SOL     OW94921   5.925   3.674   1.196  0.2710  0.2378  0.4086
30378SOL    HW194922   5.952   3.681   1.287  3.1063  1.4530 -0.4210
30378SOL    HW294923   6.007   3.666   1.147 -1.2203 -2.3966 -1.9306
30379SOL     OW94924   9.795   9.334   2.211  0.3053  0.4676 -0.0181
30379SOL    HW194925   9.755   9.380   2.284 -1.2083 -1.3529  0.3676
30379SOL    HW294926   9.828   9.252   2.248  0.2842 -0.1053 -1.1909
30380SOL     OW94927   7.114   2.732   2.656 -0.0702 -0.0192 -0.6327
30380SOL    HW194928   7.209   2.732   2.653  0.0396 -0.2587  1.3883
30380SOL    HW294929   7.089   2.641   2.641  0.1230 -0.2285  0.2404
30381SOL     OW94930   0.539   3.159   0.713  0.4868  0.7671 -0.1970
30381SOL    HW194931   0.502   3.243   0.741  0.1467  0.6190 -0.2023
30381SOL    HW294932   0.562   3.172   0.621  3.3257  1.8674  0.5540
30382SOL     OW94933   0.157   9.710   6.062 -0.2841  0.1820 -0.1804
30382SOL    HW194934   0.104   9.710   5.983  1.1996  3.5268 -1.3634
30382SOL    HW294935   0.098   9.742   6.131 -0.5270  1.3291 -0.8981
30383SOL     OW94936   1.453   7.294   3.010  0.3456  0.4162  0.2371
30383SOL    HW194937   1.385   7.360   3.025 -1.4054 -1.3538  0.5646
30383SOL    HW294938   1.463   7.291   2.914 -0.0455  0.6673  0.1869
30384SOL     OW94939   2.585   2.909   4.519 -0.1385 -0.1242 -0.0182
30384SOL    HW194940   2.581   2.814   4.520 -0.1149 -0.1384 -0.6463
30384SOL    HW294941   2.674   2.929   4.489  0.2990  0.1058  1.3946
30385SOL     OW94942   2.820   7.967   3.750 -0.1376 -0.0386 -0.6748
30385SOL    HW194943   2.805   8.057   3.720 -0.0436  0.0299 -0.5209
30385SOL    HW294944   2.897   7.938   3.701  0.1260  0.1365 -0.3702
30386SOL     OW94945   0.887   4.826   6.638 -0.1708 -0.3202  0.1375
30386SOL    HW194946   0.833   4.884   6.584 -0.4872 -0.1538  0.6253
30386SOL    HW294947   0.972   4.869   6.644  0.5785 -1.3370 -1.9654
30387SOL     OW94948   2.856  10.342   6.192 -0.1937 -0.4144  0.1400
30387SOL    HW194949   2.802  10.418   6.214 -1.7388 -1.5681  0.5440
30387SOL    HW294950   2.903  10.323   6.273 -0.6865 -0.5761  0.3920
30388SOL     OW94951   3.356   8.437   4.352 -0.5849 -0.2451 -0.7938
30388SOL    HW194952   3.429   8.391   4.311 -0.5256  0.4219 -1.4625
30388SOL    HW294953   3.383   8.529   4.353 -1.2972 -0.0313 -0.7872
30389SOL     OW94954   8.317   4.082   5.307  0.4431 -0.0235  0.6833
30389SOL    HW194955   8.347   4.130   5.383  2.5025 -0.7512  0.3955
30389SOL    HW294956   8.376   4.108   5.236 -0.8452 -0.0481 -0.4535
30390SOL     OW94957   2.918   0.506   0.026 -0.4148  0.7515  0.2533
30390SOL    HW194958   2.916   0.428   0.081  0.3710  1.8593  1.9688
30390SOL    HW294959   2.826   0.527   0.010 -0.6318 -0.5390 -0.2873
30391SOL     OW94960   7.762   1.104   6.786 -0.0406 -0.9313  0.0969
30391SOL    HW194961   7.752   1.190   6.825 -0.8187 -1.0474  0.1690
30391SOL    HW294962   7.683   1.092   6.733  1.7699 -0.0032 -3.1001
30392SOL     OW94963   8.910   2.541   6.952 -0.0042 -0.1742  0.0046
30392SOL    HW194964   8.831   2.526   6.901 -0.2088  1.3705 -0.1752
30392SOL    HW294965   8.941   2.627   6.924  1.2555 -0.3708  0.7047
30393SOL     OW94966   4.828   1.422   5.456  0.2254  1.3014 -0.4454
30393SOL    HW194967   4.749   1.475   5.439  0.6942  1.9218 -0.7207
30393SOL    HW294968   4.896   1.487   5.473  0.7944  0.7744 -0.7121
30394SOL     OW94969   1.611   0.269   3.512 -0.5708  0.1430  0.2343
30394SOL    HW194970   1.573   0.357   3.515  0.8265  0.7709  0.1137
30394SOL    HW294971   1.579   0.232   3.429 -1.8469  0.1892  0.6764
30395SOL     OW94972   8.968   8.606   7.753 -0.0115 -0.1890  0.5075
30395SOL    HW194973   9.044   8.617   7.697 -0.0623 -0.1964  0.4376
30395SOL    HW294974   8.941   8.695   7.775 -0.4817 -0.1624 -0.1409
30396SOL     OW94975   1.511   6.334   3.262  0.0911  0.2680  0.4166
30396SOL    HW194976   1.467   6.419   3.264  0.9276  0.6881  1.4223
30396SOL    HW294977   1.458   6.278   3.319 -0.6292  0.0008 -0.4771
30397SOL     OW94978   3.136   0.165   5.367 -0.6091 -0.0503 -0.3335
30397SOL    HW194979   3.217   0.190   5.412  0.7052 -2.1945 -1.3430
30397SOL    HW294980   3.163   0.155   5.275 -2.1836 -0.2270 -0.8001
30398SOL     OW94981   8.964   8.040   6.524 -0.1596 -0.0640 -0.4446
30398SOL    HW194982   9.021   8.063   6.451  1.2435  1.5865  1.0592
30398SOL    HW294983   9.007   7.965   6.565 -0.0621  0.0146 -0.4010
30399SOL     OW94984   0.767   0.672   0.776  0.6825  0.3619 -0.6025
30399SOL    HW194985   0.830   0.734   0.812  0.2959  0.9402 -0.9013
30399SOL    HW294986   0.709   0.726   0.722  1.5164 -0.5357 -2.4580
30400SOL     OW94987   3.687   2.728   9.151 -0.1988 -0.6530  0.1172
30400SOL    HW194988   3.618   2.672   9.183  0.1610 -2.4541 -2.0005
30400SOL    HW294989   3.765   2.673   9.150  0.3578  0.0834 -1.2493
30401SOL     OW94990   8.986   4.937   1.520  0.7963 -0.3671  0.4935
30401SOL    HW194991   8.978   4.847   1.487 -0.6886  0.1119 -0.5332
30401SOL    HW294992   8.999   4.926   1.614  1.0826 -1.6551  0.3307
30402SOL     OW94993   9.936   8.040   8.693 -0.0975  0.1044  0.1603
30402SOL    HW194994   9.920   8.066   8.602  0.3161 -0.7139 -0.1639
30402SOL    HW294995  10.028   8.011   8.693 -0.4656 -1.1311  0.5289
30403SOL     OW94996   2.854   1.387   2.342  0.1479 -0.4017  0.1354
30403SOL    HW194997   2.822   1.442   2.270 -3.2560 -3.2993 -0.8721
30403SOL    HW294998   2.949   1.381   2.327  0.6866  4.4754  0.0619
30404SOL     OW94999   2.550   0.817   3.260  0.5490 -0.0494 -0.2225
30404SOL    HW195000   2.606   0.741   3.248  1.8552  1.0859 -1.6145
30404SOL    HW295001   2.516   0.836   3.172 -2.9309 -1.2876  0.6693
30405SOL     OW95002   4.072   3.006   7.250  0.4533 -0.1796 -0.1573
30405SOL    HW195003   4.055   3.028   7.342  0.9757 -2.3030  0.4952
30405SOL    HW295004   4.165   3.022   7.239  0.2163  0.9792 -0.6181
30406SOL     OW95005   2.235   8.345   1.053  0.2591 -0.1550  0.1008
30406SOL    HW195006   2.197   8.389   1.129  1.0641  0.4117  0.1899
30406SOL    HW295007   2.195   8.258   1.052 -1.5336  0.6329 -0.1970
30407SOL     OW95008   9.990   8.560   8.753  0.5081 -0.3109  0.6217
30407SOL    HW195009   9.950   8.604   8.828  2.2972  1.6250  0.5074
30407SOL    HW295010   9.954   8.471   8.756 -0.5938  0.1358  2.8828
30408SOL     OW95011   0.183   2.849   5.662 -0.0792  0.4928  0.0328
30408SOL    HW195012   0.159   2.802   5.583 -1.0586 -1.5024  1.4437
30408SOL    HW295013   0.106   2.903   5.682  0.3604  1.3884 -0.6004
30409SOL     OW95014  10.113   7.953   5.017 -0.0852 -0.1370  0.8245
30409SOL    HW195015  10.025   7.921   5.039  0.2180 -0.4196  1.7009
30409SOL    HW295016  10.128   7.926   4.927 -0.9098 -0.0562  0.6600
30410SOL     OW95017   3.374   2.596   7.294 -0.2826  0.4017 -0.0393
30410SOL    HW195018   3.295   2.548   7.320  0.2352 -0.6032 -0.2910
30410SOL    HW295019   3.350   2.639   7.212 -0.5765  0.1315 -0.0983
30411SOL     OW95020   7.956   1.315   1.912 -0.1134  0.0146  0.0610
30411SOL    HW195021   8.025   1.293   1.850  0.1463  0.8252  0.0437
30411SOL    HW295022   8.002   1.338   1.993 -0.4286 -0.6327  0.4274
30412SOL     OW95023   5.716   5.438   1.592  0.3582  0.2707  0.4244
30412SOL    HW195024   5.631   5.438   1.546  0.7984  0.9705 -0.4281
30412SOL    HW295025   5.764   5.365   1.552  0.0674 -0.3116  1.1126
30413SOL     OW95026   7.653   1.472   2.972  0.8442 -0.1333 -0.1380
30413SOL    HW195027   7.690   1.552   3.007 -0.2678  0.6953 -0.7796
30413SOL    HW295028   7.692   1.463   2.885 -0.7365  1.0080 -1.0171
30414SOL     OW95029   6.069   1.581   6.194  0.3043 -0.3796  0.2448
30414SOL    HW195030   6.164   1.593   6.185  0.2187  1.0342  0.9966
30414SOL    HW295031   6.042   1.545   6.109  1.2090  1.2657 -0.8078
30415SOL     OW95032   0.774   4.789   2.539 -0.2915  0.4734  0.0735
30415SOL    HW195033   0.832   4.718   2.510  0.1990  1.1726 -0.6889
30415SOL    HW295034   0.764   4.845   2.462 -0.5407  1.3277  0.7203
30416SOL     OW95035   7.778   1.941   8.686  0.1102  1.0128 -0.3308
30416SOL    HW195036   7.698   1.942   8.739  0.2596  0.4015 -0.0930
30416SOL    HW295037   7.763   1.875   8.619  0.5407  0.6599 -0.0850
30417SOL     OW95038   7.645   3.270   2.259  0.2045 -0.1090  0.1622
30417SOL    HW195039   7.626   3.231   2.174 -2.1103  0.6955  0.2435
30417SOL    HW295040   7.566   3.256   2.311  1.3234 -0.0202  1.9922
30418SOL     OW95041   0.799   2.707   4.313 -0.0187 -0.5856  0.1351
30418SOL    HW195042   0.752   2.653   4.250  0.5894 -0.0589 -0.7939
30418SOL    HW295043   0.789   2.797   4.280  0.0986 -0.2698  0.9326
30419SOL     OW95044   4.248   1.409   1.310 -0.0546  0.0948 -0.4625
30419SOL    HW195045   4.324   1.394   1.255 -0.1018  0.3209 -0.5881
30419SOL    HW295046   4.283   1.448   1.390  0.0156 -0.2529 -0.3216
30420SOL     OW95047   4.081   0.004   8.137 -0.2547  0.3006 -0.0467
30420SOL    HW195048   4.071   0.091   8.174 -3.0406  0.0493  0.0355
30420SOL    HW295049   4.167  -0.026   8.167  0.7200  2.9371 -0.0020
30421SOL     OW95050   4.107   9.678   9.192  0.2940  0.2604 -0.1061
30421SOL    HW195051   4.169   9.735   9.147  1.1631  1.1241  2.0278
30421SOL    HW295052   4.053   9.737   9.244  0.6922 -0.7696  1.5464
30422SOL     OW95053   8.149   6.986   7.444 -0.2817  0.3875  0.5297
30422SOL    HW195054   8.220   7.002   7.507 -0.3873  1.7022  0.3447
30422SOL    HW295055   8.157   7.058   7.381 -1.6258  0.4142  0.3738
30423SOL     OW95056   0.971   3.935   6.988  0.2081  0.2450 -0.1819
30423SOL    HW195057   0.960   3.843   7.012 -0.0171  0.1379 -0.6950
30423SOL    HW295058   1.066   3.950   6.995 -0.0142  0.8231  2.9420
30424SOL     OW95059   3.818   1.390  10.133  0.4887  0.3476  0.4470
30424SOL    HW195060   3.769   1.374  10.214 -0.5339 -0.4661 -0.3011
30424SOL    HW295061   3.892   1.329  10.138 -1.4738 -2.3424 -0.7643
30425SOL     OW95062   7.424   6.860   2.195  0.1995  0.0644  0.1706
30425SOL    HW195063   7.451   6.809   2.119  0.8140 -1.7971  1.5515
30425SOL    HW295064   7.328   6.857   2.192  0.2133  0.1013 -0.5618
30426SOL     OW95065   9.947   0.619   2.623  0.2446 -0.4958 -0.3333
30426SOL    HW195066  10.011   0.628   2.552  0.1987  0.9452 -0.2306
30426SOL    HW295067   9.991   0.658   2.699 -0.7140  0.4595 -0.2513
30427SOL     OW95068   5.943   7.596   0.929 -0.7787 -0.1198  0.2783
30427SOL    HW195069   5.927   7.523   0.870 -2.2635  1.0126 -0.8071
30427SOL    HW295070   5.930   7.560   1.016 -0.1978 -1.4296 -0.1444
30428SOL     OW95071   0.937   2.624   3.434 -0.3777  0.5694  0.0654
30428SOL    HW195072   0.978   2.648   3.517  0.3282 -0.2997 -0.0175
30428SOL    HW295073   0.914   2.532   3.445  1.2842 -0.0571 -1.2869
30429SOL     OW95074   6.213   7.983   8.365  0.0103  0.1925  1.2664
30429SOL    HW195075   6.213   7.947   8.454 -1.4478  0.0926  1.2497
30429SOL    HW295076   6.122   7.977   8.336  0.2693  1.1682  0.1440
30430SOL     OW95077   6.344   5.474   5.394  0.4116 -0.0550  0.0446
30430SOL    HW195078   6.389   5.457   5.477 -0.1875 -0.0064  0.3815
30430SOL    HW295079   6.357   5.567   5.378 -1.4329  0.4583  1.2776
30431SOL     OW95080   4.011   1.248   8.419  0.3259  0.3643  0.1294
30431SOL    HW195081   3.920   1.234   8.393  0.1227 -0.3028  1.1305
30431SOL    HW295082   4.039   1.162   8.452  0.7390  0.9990  1.4950
30432SOL     OW95083   0.510   8.701   1.372  0.2863  0.1337 -0.4215
30432SOL    HW195084   0.583   8.639   1.361  1.3410  1.3420 -0.4623
30432SOL    HW295085   0.439   8.647   1.407  1.1419 -1.1190 -0.5243
30433SOL     OW95086   0.017   4.758   6.042 -0.1534 -0.4861  0.4301
30433SOL    HW195087   0.015   4.665   6.068 -0.0102 -0.8657 -0.8369
30433SOL    HW295088   0.002   4.756   5.948 -0.2788  0.8044  0.4146
30434SOL     OW95089   1.478   8.304   5.568  0.0052  0.3715 -0.4484
30434SOL    HW195090   1.515   8.222   5.602  2.7354  1.7998  0.3145
30434SOL    HW295091   1.410   8.327   5.632  2.3543  0.9683  2.0305
30435SOL     OW95092   2.667   3.699  10.058 -0.3994  0.1293 -0.6110
30435SOL    HW195093   2.581   3.736  10.037  0.2539  1.3021 -1.3347
30435SOL    HW295094   2.728   3.745  10.000  0.9523  0.5625  1.0618
30436SOL     OW95095   9.910  10.303   0.584 -0.2314 -0.4032 -0.1765
30436SOL    HW195096   9.818  10.278   0.572 -0.2026 -0.4091 -0.3959
30436SOL    HW295097   9.908  10.398   0.595 -0.9528 -0.7340  6.1557
30437SOL     OW95098   0.407   7.479   7.772  0.1183 -0.2280  0.1121
30437SOL    HW195099   0.419   7.529   7.691  0.7691 -1.4002 -0.5537
30437SOL    HW295100   0.368   7.396   7.743 -4.1358  1.0273  1.5265
30438SOL     OW95101   6.768   1.893   7.765  0.2615 -0.2032  0.3272
30438SOL    HW195102   6.776   1.877   7.671 -2.9028  3.2902 -0.7930
30438SOL    HW295103   6.801   1.982   7.777 -0.3237 -0.2069  2.3596
30439SOL     OW95104   9.710   6.452   7.570 -0.2061  0.1810  0.2164
30439SOL    HW195105   9.716   6.535   7.523  0.6637  1.0998  1.8709
30439SOL    HW295106   9.785   6.452   7.629  0.2827 -2.1837 -0.3097
30440SOL     OW95107   1.760   1.241   8.113  0.5394  0.2541 -0.1296
30440SOL    HW195108   1.754   1.336   8.119 -0.9636  0.1153  0.9778
30440SOL    HW295109   1.694   1.216   8.048  0.2342 -0.1121  0.3208
30441SOL     OW95110   4.803   5.439   5.372  0.6054  0.1380 -0.5662
30441SOL    HW195111   4.839   5.525   5.393 -0.1837  0.5501 -0.8539
30441SOL    HW295112   4.874   5.378   5.391  1.1628  0.8475 -0.3202
30442SOL     OW95113   4.205   4.224   5.901  0.0626  0.5155  0.0274
30442SOL    HW195114   4.212   4.233   5.996 -0.2110  0.7363  0.0283
30442SOL    HW295115   4.254   4.144   5.880  1.8134  1.5228  0.1134
30443SOL     OW95116   6.089   2.185   8.514  0.1440 -0.1863  0.7137
30443SOL    HW195117   6.028   2.123   8.552  0.9399 -0.7990  1.0227
30443SOL    HW295118   6.125   2.233   8.589 -1.0061  1.1818  0.4257
30444SOL     OW95119   4.248   4.647   4.845 -0.0192  0.2392 -0.0760
30444SOL    HW195120   4.337   4.639   4.880  0.5822  1.8415 -1.1613
30444SOL    HW295121   4.246   4.587   4.771 -0.2943 -0.7797  0.7246
30445SOL     OW95122   1.724   3.974   4.399 -0.2996 -0.7806 -0.2308
30445SOL    HW195123   1.762   3.914   4.334  0.9573 -1.0569  0.7326
30445SOL    HW295124   1.630   3.971   4.381 -0.1597 -2.1939 -0.9251
30446SOL     OW95125   2.081   4.687   0.683  0.4165  0.0596 -0.1698
30446SOL    HW195126   2.074   4.603   0.638 -0.0520  0.2005 -0.3668
30446SOL    HW295127   1.994   4.700   0.722  0.6089  0.2622  0.1950
30447SOL     OW95128   1.409   5.981   3.775 -0.3122  0.0496 -0.3551
30447SOL    HW195129   1.417   5.895   3.817  1.3174  0.5516  0.4765
30447SOL    HW295130   1.465   5.975   3.698 -0.5568  0.2218 -0.5451
30448SOL     OW95131   5.932   1.981   8.625  0.1926 -0.1464  0.0803
30448SOL    HW195132   5.845   1.980   8.586 -0.3576 -0.7921  1.2604
30448SOL    HW295133   5.960   1.890   8.623 -0.2849 -0.3947  2.0233
30449SOL     OW95134   6.513   2.292   4.967 -0.4725  0.6584 -0.9829
30449SOL    HW195135   6.590   2.306   5.021 -1.4311 -0.5776  0.8039
30449SOL    HW295136   6.442   2.333   5.016 -1.1934  0.5879 -1.9283
30450SOL     OW95137   2.366   7.585   9.580  0.4028  0.1613 -0.8072
30450SOL    HW195138   2.322   7.544   9.655  1.9703 -0.7666 -0.3531
30450SOL    HW295139   2.322   7.547   9.504 -1.4100  1.3413 -0.4020
30451SOL     OW95140   5.356   9.615   6.563  0.3365 -0.6115 -0.0745
30451SOL    HW195141   5.392   9.620   6.474 -1.2669  0.0861 -0.7180
30451SOL    HW295142   5.326   9.703   6.582  1.0971 -0.6266  1.3958
30452SOL     OW95143   6.140   0.512   0.099  0.7655  0.6892  0.3995
30452SOL    HW195144   6.126   0.417   0.098  0.7935  0.6895 -0.1967
30452SOL    HW295145   6.235   0.522   0.093  0.7068  0.7630 -0.6233
30453SOL     OW95146   6.453   7.396   1.033 -0.1296 -0.1457  0.2448
30453SOL    HW195147   6.543   7.424   1.021 -0.2159 -0.0268 -0.1589
30453SOL    HW295148   6.446   7.316   0.981  0.0168 -0.7189  1.0911
30454SOL     OW95149   4.914   8.936   3.356 -0.0155  0.6116  0.4782
30454SOL    HW195150   4.874   8.859   3.396 -0.6527  1.2944  1.1926
30454SOL    HW295151   4.889   9.008   3.414 -1.0865  1.6657 -1.2163
30455SOL     OW95152   3.936   9.118  10.005  0.3224  0.3035 -0.5577
30455SOL    HW195153   3.969   9.208  10.012  0.0566  0.5128 -1.6870
30455SOL    HW295154   3.919   9.107   9.911 -1.3914 -0.3038 -0.2055
30456SOL     OW95155   7.757  10.326   0.815  0.6701 -0.5810 -0.3365
30456SOL    HW195156   7.793  10.238   0.803  3.5461  0.2286  1.3168
30456SOL    HW295157   7.826  10.373   0.861 -1.9766  1.6995  1.5907
30457SOL     OW95158   5.949   5.432   5.600  0.1843 -0.3816  0.1695
30457SOL    HW195159   5.944   5.423   5.695  0.2389 -0.9447  0.1216
30457SOL    HW295160   5.944   5.527   5.585 -0.0912 -0.3027  0.7152
30458SOL     OW95161   9.839   9.963   6.184  0.3562  0.0479  0.3006
30458SOL    HW195162   9.816  10.051   6.213  0.8078 -0.2292  1.5723
30458SOL    HW295163   9.912   9.975   6.123  0.2416  0.5638  0.2666
30459SOL     OW95164   8.455   6.328   0.929  0.0117  0.1643 -0.2683
30459SOL    HW195165   8.404   6.339   1.009  1.0406  0.6550  0.3484
30459SOL    HW295166   8.528   6.389   0.939  0.1031  0.2976 -1.6316
30460SOL     OW95167   0.003   8.432   8.902 -0.3259  0.2971 -0.2483
30460SOL    HW195168   0.025   8.360   8.842  0.3128  1.5135 -1.5353
30460SOL    HW295169  -0.089   8.418   8.924 -0.1702 -0.9998 -0.3206
30461SOL     OW95170   6.176   5.262   1.834  0.3819 -0.7941  0.2202
30461SOL    HW195171   6.243   5.232   1.773 -0.9258 -0.0874 -1.6823
30461SOL    HW295172   6.194   5.355   1.845  0.3543 -0.8302  0.5656
30462SOL     OW95173   3.413   0.556   9.378 -0.1135  0.3745  0.3007
30462SOL    HW195174   3.472   0.481   9.385 -0.0353  0.1816 -1.7334
30462SOL    HW295175   3.461   0.628   9.419  2.4008  0.6336 -2.6901
30463SOL     OW95176   8.734   3.544   0.006 -0.0952 -0.1491  0.4618
30463SOL    HW195177   8.721   3.638   0.019  0.4255 -0.1122  0.7452
30463SOL    HW295178   8.734   3.533  -0.089  0.1368  0.1844  0.4209
30464SOL     OW95179   3.426   4.999   6.875  0.4568  0.0873  0.2508
30464SOL    HW195180   3.433   4.930   6.809  1.7737 -0.1699  0.6246
30464SOL    HW295181   3.368   5.064   6.836 -2.6856 -2.1625  0.7409
30465SOL     OW95182   7.657   0.389   0.274  0.3301  0.0343  0.1374
30465SOL    HW195183   7.647   0.476   0.234  0.3827 -0.1855 -0.3625
30465SOL    HW295184   7.619   0.329   0.211 -0.8726 -0.1998  1.0543
30466SOL     OW95185   9.499   2.768  10.185 -0.5241  0.2629 -0.0162
30466SOL    HW195186   9.467   2.804  10.102 -0.9174 -0.1421 -0.0416
30466SOL    HW295187   9.442   2.808  10.251 -0.8166 -0.1322 -0.0253
30467SOL     OW95188   1.995   6.340   2.996 -0.0713 -0.2441 -0.3101
30467SOL    HW195189   1.981   6.435   2.991 -0.8978 -0.2974  0.5800
30467SOL    HW295190   1.931   6.311   3.061  0.4418 -1.3612 -0.2954
30468SOL     OW95191   8.720   5.087   4.425  0.3590 -0.3402  0.0715
30468SOL    HW195192   8.679   5.086   4.338  3.3010 -0.3071 -1.4477
30468SOL    HW295193   8.736   4.995   4.446 -2.7575 -0.5974  1.9715
30469SOL     OW95194   1.403   5.745   8.396 -0.5744  0.3048 -0.3097
30469SOL    HW195195   1.436   5.716   8.311 -2.6242  0.1098 -1.0767
30469SOL    HW295196   1.402   5.665   8.450  1.4076  0.5580  0.1942
30470SOL     OW95197   7.822   9.238   8.474 -0.6768 -0.3082  0.0040
30470SOL    HW195198   7.911   9.256   8.443  0.1205 -0.7817  1.8928
30470SOL    HW295199   7.765   9.276   8.407  0.9368 -0.0614 -1.2846
30471SOL     OW95200   2.306   0.436   4.804 -0.7960  0.9376  0.0924
30471SOL    HW195201   2.363   0.483   4.865 -0.4687  1.4747 -0.6174
30471SOL    HW295202   2.219   0.473   4.819 -1.0048  0.0684  1.2271
30472SOL     OW95203  10.000   1.334   4.521  0.1345 -0.1394  0.1055
30472SOL    HW195204   9.995   1.430   4.523  1.2268 -0.0643 -0.0878
30472SOL    HW295205   9.963   1.310   4.436 -0.7869  0.0492  0.4383
30473SOL     OW95206   9.945  10.295  10.345 -0.4714  0.1129  0.0159
30473SOL    HW195207   9.960  10.355  10.273 -1.1874  0.9549  0.5432
30473SOL    HW295208  10.029  10.289  10.391 -0.2557  0.2772 -0.3612
30474SOL     OW95209   0.219   8.392   4.283 -0.6408  0.0040  0.4362
30474SOL    HW195210   0.181   8.382   4.371 -0.9403 -0.3754  0.2683
30474SOL    HW295211   0.253   8.305   4.262  0.8502  0.4720  0.8173
30475SOL     OW95212   3.982   6.742   2.880  0.8048  0.3840  0.1899
30475SOL    HW195213   3.917   6.693   2.930 -1.2029  1.0993 -1.5642
30475SOL    HW295214   3.999   6.820   2.933 -0.5026  0.6387  0.2507
30476SOL     OW95215   1.119   3.191   1.652  0.4584 -0.7121 -0.4014
30476SOL    HW195216   1.068   3.134   1.709  0.2760  1.8564  2.2154
30476SOL    HW295217   1.204   3.200   1.696  0.8639  0.1357 -1.3141
30477SOL     OW95218   9.860   6.332   3.476 -0.0109  0.1559  0.1524
30477SOL    HW195219   9.920   6.405   3.465 -0.2611  0.6247  1.6794
30477SOL    HW295220   9.773   6.370   3.463 -0.0646 -0.2644 -0.8278
30478SOL     OW95221   4.295   0.260   8.729  0.0665  0.3469 -0.2678
30478SOL    HW195222   4.324   0.258   8.638  1.2789  0.2447  0.0976
30478SOL    HW295223   4.253   0.345   8.739 -1.8189 -0.4091 -1.4103
30479SOL     OW95224   0.044   6.444   6.587  0.0473 -0.1915  0.1227
30479SOL    HW195225  -0.001   6.376   6.636  1.4569 -1.2988 -0.0472
30479SOL    HW295226   0.020   6.427   6.495  1.3497 -1.2692 -0.0525
30480SOL     OW95227   8.745   9.483   9.025 -0.3804 -0.4442 -0.3708
30480SOL    HW195228   8.744   9.572   8.989  0.6287 -0.3854 -0.2884
30480SOL    HW295229   8.746   9.495   9.120  1.5150 -0.4812 -0.3557
30481SOL     OW95230   3.128   4.202   1.683 -0.0949  0.3832  0.4050
30481SOL    HW195231   3.193   4.161   1.741  0.2389 -0.4484 -0.5381
30481SOL    HW295232   3.122   4.292   1.715  2.1667  0.7338  0.0190
30482SOL     OW95233   8.033   7.026   9.435 -0.3516 -0.1708 -0.0172
30482SOL    HW195234   7.955   7.060   9.390 -0.0069  1.4899  0.5347
30482SOL    HW295235   8.015   7.041   9.528 -0.3710 -2.0364  0.3192
30483SOL     OW95236   6.314   6.804   8.313 -0.0768  0.3835  0.3324
30483SOL    HW195237   6.373   6.874   8.286 -0.1492  0.9676  1.6130
30483SOL    HW295238   6.344   6.779   8.400  1.2084 -2.6073 -0.8400
30484SOL     OW95239   0.194   2.355   0.993 -0.2059 -0.0381 -0.1880
30484SOL    HW195240   0.157   2.274   0.959  0.2357 -0.7746  1.0323
30484SOL    HW295241   0.257   2.382   0.927  0.4890 -1.3281 -0.0830
30485SOL     OW95242   4.588   7.498   9.171  0.0871 -0.2509 -0.3812
30485SOL    HW195243   4.662   7.551   9.203 -0.7973 -0.5513  2.4665
30485SOL    HW295244   4.528   7.561   9.133  0.1234  0.5343  0.7979
30486SOL     OW95245   0.026   0.321   9.105 -0.6020 -0.1807  0.3614
30486SOL    HW195246   0.049   0.249   9.164  0.7511 -1.4481 -1.5456
30486SOL    HW295247   0.048   0.400   9.153  2.7479 -1.1967  0.7686
30487SOL     OW95248   6.302   6.837   6.136 -0.3356  0.0652 -0.2469
30487SOL    HW195249   6.352   6.805   6.062 -1.9494 -0.0210 -1.3441
30487SOL    HW295250   6.331   6.782   6.210  0.1001 -0.9777 -1.1599
30488SOL     OW95251   9.180   4.649   1.653 -0.0618 -0.1684  0.5322
30488SOL    HW195252   9.138   4.712   1.712 -0.8433  0.0496 -0.2387
30488SOL    HW295253   9.272   4.675   1.651  0.3012 -1.0585  2.7764
30489SOL     OW95254   7.549   5.800   8.074  0.0958  0.1587  0.1612
30489SOL    HW195255   7.555   5.857   7.997 -0.9362  0.2240  0.1172
30489SOL    HW295256   7.545   5.712   8.039  2.0751 -0.0207  0.2395
30490SOL     OW95257   9.551  10.176   9.554 -0.1343  0.2537  0.0399
30490SOL    HW195258   9.502  10.127   9.620  1.9708 -1.7831  0.2126
30490SOL    HW295259   9.572  10.259   9.596 -1.1784  0.0935  0.9039
30491SOL     OW95260   1.581   9.501   8.180  0.2232 -0.1356 -0.3375
30491SOL    HW195261   1.553   9.412   8.156 -0.8710  0.0222  0.2728
30491SOL    HW295262   1.504   9.555   8.162 -0.0166  0.2703  1.7234
30492SOL     OW95263   6.973   1.970   8.545 -0.4947 -0.3320 -0.9561
30492SOL    HW195264   6.937   2.009   8.625 -0.8511  2.3153 -2.2798
30492SOL    HW295265   6.897   1.938   8.497 -0.2985 -1.7343 -0.3857
30493SOL     OW95266   5.729   4.841   3.819  0.7775  0.3831 -0.1191
30493SOL    HW195267   5.662   4.841   3.751 -0.8909  1.6180  1.4377
30493SOL    HW295268   5.788   4.912   3.795  0.1348  0.8807 -0.2391
30494SOL     OW95269   0.103   5.216   6.350 -0.3485  0.5215  0.0662
30494SOL    HW195270   0.157   5.138   6.340  0.5335  1.1280 -0.0111
30494SOL    HW295271   0.060   5.205   6.435  0.1883  0.2012  0.3026
30495SOL     OW95272   7.346   7.279   4.611 -0.2570 -0.1063 -0.0995
30495SOL    HW195273   7.359   7.328   4.530 -1.4237  0.6017  0.1146
30495SOL    HW295274   7.425   7.225   4.620  0.3788  0.6216 -1.1205
30496SOL     OW95275   6.340   6.993   7.983 -0.2256 -0.2934  0.2098
30496SOL    HW195276   6.405   6.989   8.053 -0.2072 -1.6241  0.1439
30496SOL    HW295277   6.292   6.911   7.990  0.5593 -1.0335 -2.0642
30497SOL     OW95278   6.974   2.515   7.557  0.3889  0.1483  0.5589
30497SOL    HW195279   7.044   2.502   7.493 -1.6036  0.1049 -1.7650
30497SOL    HW295280   6.984   2.442   7.618  1.0719 -1.1416 -0.9968
30498SOL     OW95281   5.788   1.199   5.481  0.5292  0.6880 -0.5616
30498SOL    HW195282   5.763   1.277   5.532  0.8758  1.0462 -0.9298
30498SOL    HW295283   5.794   1.129   5.547  1.3480  1.2306 -0.0363
30499SOL     OW95284   9.320   9.645   9.146 -0.0515 -0.6780 -0.1517
30499SOL    HW195285   9.242   9.702   9.143  1.0301  0.7990 -1.6029
30499SOL    HW295286   9.294   9.566   9.098 -0.3903  0.1767 -1.4133
30500SOL     OW95287   6.071   4.910   3.001 -0.0454  0.2302  0.8839
30500SOL    HW195288   6.083   4.832   2.946 -0.8871  0.0762  0.8961
30500SOL    HW295289   5.981   4.902   3.034  0.0484  0.9270  1.3319
30501SOL     OW95290   5.886   5.657   0.018  0.2114 -0.2322  0.0187
30501SOL    HW195291   5.846   5.616  -0.059  2.6475  2.0834 -2.7750
30501SOL    HW295292   5.848   5.745   0.021  2.3122  0.7551 -0.5112
30502SOL     OW95293   8.012   5.270   5.538 -0.1300  0.7039  0.2182
30502SOL    HW195294   7.995   5.228   5.622 -1.5966 -0.8689 -0.8029
30502SOL    HW295295   8.102   5.302   5.545  1.8862 -4.1096  0.5761
30503SOL     OW95296   7.220   1.056   3.257 -0.2168  0.2826  0.0713
30503SOL    HW195297   7.132   1.029   3.230  0.3180  0.5236 -2.1215
30503SOL    HW295298   7.225   1.149   3.234  0.4431  0.3935  0.6472
30504SOL     OW95299   3.750   7.647   5.834  0.5490 -0.3940  0.1643
30504SOL    HW195300   3.753   7.726   5.780  0.7867 -1.1712 -0.9966
30504SOL    HW295301   3.657   7.632   5.851  0.5271  0.4139  0.8473
30505SOL     OW95302   3.092   9.122   8.922 -0.3117  0.2297  0.1504
30505SOL    HW195303   3.138   9.039   8.910  2.0705  1.5076 -0.1047
30505SOL    HW295304   3.057   9.116   9.011 -1.0145 -1.3766 -0.1803
30506SOL     OW95305   1.395   5.931   8.040  0.0268 -0.3412 -0.3474
30506SOL    HW195306   1.484   5.927   8.005  0.1812  0.1395 -0.0268
30506SOL    HW295307   1.344   5.975   7.972  1.0087  3.7078  1.2487
30507SOL     OW95308   8.647   3.977  10.078 -0.4553  0.1899  0.5370
30507SOL    HW195309   8.720   4.035  10.102 -1.3752  1.5097  0.2446
30507SOL    HW295310   8.570   4.020  10.115 -0.9949 -1.7718  1.8467
30508SOL     OW95311   6.401   4.805   0.600  0.2222 -0.2357 -0.2430
30508SOL    HW195312   6.339   4.744   0.639  1.2235  0.0905  1.9842
30508SOL    HW295313   6.377   4.891   0.635  0.9275  0.1442 -0.6453
30509SOL     OW95314   2.990   7.785   5.293  0.0668 -0.2866  0.4181
30509SOL    HW195315   2.999   7.853   5.359 -0.8076 -1.3603  1.6802
30509SOL    HW295316   2.984   7.703   5.342 -1.3736 -1.0490 -0.9333
30510SOL     OW95317   0.666   8.545   1.665 -0.4031  0.3678 -0.7258
30510SOL    HW195318   0.611   8.482   1.618  0.1797 -0.3749 -0.4225
30510SOL    HW295319   0.744   8.496   1.689 -1.1704  0.3418  2.1236
30511SOL     OW95320   0.011   2.163   0.225 -0.2988 -0.0820  0.1784
30511SOL    HW195321  -0.049   2.177   0.299  0.7009  1.7139  0.7200
30511SOL    HW295322   0.097   2.153   0.266  0.2449  0.7686 -0.7224
30512SOL     OW95323   1.680   1.143   7.585  0.3313  0.1093  0.1750
30512SOL    HW195324   1.711   1.080   7.520 -0.7878 -0.4085  0.1189
30512SOL    HW295325   1.753   1.204   7.596  1.5383 -1.3351  0.4195
30513SOL     OW95326   9.898   7.677   3.910 -0.3279 -0.2096  0.1418
30513SOL    HW195327   9.898   7.700   4.003 -1.0164 -0.9450  0.3381
30513SOL    HW295328   9.963   7.735   3.871  0.7278 -0.5922  1.2690
30514SOL     OW95329   4.703   1.196   8.204  0.2226 -0.2219  0.4319
30514SOL    HW195330   4.648   1.165   8.132 -0.8798  1.2412  0.6194
30514SOL    HW295331   4.772   1.247   8.161 -0.9843  1.4620  0.4396
30515SOL     OW95332   6.875   8.126   7.423 -0.6328 -0.1902 -0.7035
30515SOL    HW195333   6.931   8.195   7.459 -1.0502 -0.8504  1.3402
30515SOL    HW295334   6.933   8.050   7.415 -0.7374 -0.2755 -0.6449
30516SOL     OW95335   7.092   3.773   0.361 -0.0904  0.8741 -0.3269
30516SOL    HW195336   7.055   3.756   0.447  0.6934  0.8762  0.0170
30516SOL    HW295337   7.051   3.708   0.304 -1.6027  1.6994 -0.2453
30517SOL     OW95338  10.201   2.557   0.858 -0.4108 -0.7189  0.3536
30517SOL    HW195339  10.210   2.538   0.765 -0.2879 -0.8107  0.3846
30517SOL    HW295340  10.289   2.550   0.893 -0.7927 -3.4288  1.0005
30518SOL     OW95341   0.649   9.995   5.520 -0.2272  0.7152 -0.4518
30518SOL    HW195342   0.679  10.078   5.483 -0.3546  0.6837 -0.6272
30518SOL    HW295343   0.606  10.019   5.602 -2.5922  1.1225 -1.7338
30519SOL     OW95344   8.803   8.173   9.046  0.1315 -0.1712 -0.0877
30519SOL    HW195345   8.866   8.118   8.999 -2.0709  0.1961 -3.8709
30519SOL    HW295346   8.720   8.125   9.041 -0.6498  0.8276  1.8779
30520SOL     OW95347   7.727   9.668   8.110  0.8260  0.4254 -0.2047
30520SOL    HW195348   7.808   9.618   8.103  0.0784 -0.9691  0.6189
30520SOL    HW295349   7.683   9.655   8.027  1.1104  0.6012 -0.3864
30521SOL     OW95350   5.537   8.759   6.046 -0.4580 -0.1525 -0.1917
30521SOL    HW195351   5.627   8.773   6.017 -1.0695  2.2769 -1.1528
30521SOL    HW295352   5.545   8.722   6.133  1.4622 -0.1175 -0.3221
30522SOL     OW95353   9.539  10.003   3.588  0.5449  0.1269  0.3413
30522SOL    HW195354   9.502   9.983   3.502  0.6748 -2.1632  0.7546
30522SOL    HW295355   9.464   9.996   3.648  1.0246 -1.5040  0.7917
30523SOL     OW95356  10.255   8.745   4.773 -0.6173 -0.2716 -0.1640
30523SOL    HW195357  10.309   8.667   4.765 -1.5411 -1.1186  1.4066
30523SOL    HW295358  10.269   8.775   4.862 -1.3908  0.5208 -0.2917
30524SOL     OW95359   0.636   1.791   2.696 -0.5941  0.5136 -0.2241
30524SOL    HW195360   0.700   1.863   2.703 -0.1505  0.0455  0.8550
30524SOL    HW295361   0.639   1.765   2.604  3.0432 -1.4446  0.2324
30525SOL     OW95362   0.836   8.763   0.641 -0.1130  0.3910  0.3893
30525SOL    HW195363   0.751   8.782   0.603 -0.7155  2.4548  2.5013
30525SOL    HW295364   0.818   8.696   0.708  0.0818  0.2216  0.2747
30526SOL     OW95365   8.840   5.177   1.887  0.5915 -0.5151  0.4758
30526SOL    HW195366   8.933   5.173   1.911  0.6594 -1.0840  0.1312
30526SOL    HW295367   8.827   5.267   1.857  0.9135 -0.2918  0.9953
30527SOL     OW95368   5.781   3.345   7.222  0.3374 -0.2883 -0.1041
30527SOL    HW195369   5.761   3.255   7.198 -1.0524 -0.3304  1.0639
30527SOL    HW295370   5.698   3.392   7.209  0.5787  0.4535  0.9421
30528SOL     OW95371   8.255   0.343   1.661 -0.3128  0.1880  0.1831
30528SOL    HW195372   8.234   0.374   1.749  0.3780  1.5429 -0.1019
30528SOL    HW295373   8.306   0.263   1.676  1.3913  1.3825  1.1119
30529SOL     OW95374   2.609   1.075   1.965 -0.7104  0.9023 -0.5083
30529SOL    HW195375   2.588   0.990   2.003  0.5244  1.2609  1.0587
30529SOL    HW295376   2.696   1.064   1.926 -0.2822  1.5961  0.2279
30530SOL     OW95377   2.109   5.178   4.248 -0.0818  0.3989  0.0182
30530SOL    HW195378   2.024   5.183   4.291 -0.3837  0.0036 -0.5276
30530SOL    HW295379   2.091   5.193   4.156  0.3869 -0.0594 -0.1578
30531SOL     OW95380   8.458   3.118   9.478 -0.8011 -0.4071 -0.0562
30531SOL    HW195381   8.486   3.136   9.389  0.6871 -1.2818  0.1872
30531SOL    HW295382   8.505   3.037   9.502 -0.9382 -0.0488  1.5894
30532SOL     OW95383   3.475   8.740   6.126 -0.3999 -0.1819 -0.1310
30532SOL    HW195384   3.416   8.750   6.052  0.2056 -1.7465 -0.8635
30532SOL    HW295385   3.554   8.700   6.090  0.3382  0.0364  1.1616
30533SOL     OW95386   0.640   6.455   1.574  0.2958  0.7763  0.2092
30533SOL    HW195387   0.557   6.492   1.544 -2.0267 -0.7011  4.0560
30533SOL    HW295388   0.630   6.361   1.560  1.5986  0.6163  0.2384
30534SOL     OW95389   3.148   7.231   1.661 -0.1453  0.3698 -0.2495
30534SOL    HW195390   3.203   7.158   1.687 -2.4599 -1.3357  0.1959
30534SOL    HW295391   3.134   7.219   1.567  0.2009  0.7784 -0.3555
30535SOL     OW95392  10.093   3.230   0.213  0.5385  0.5986 -0.7305
30535SOL    HW195393  10.117   3.148   0.256 -0.6313  0.0285 -1.1083
30535SOL    HW295394  10.073   3.205   0.123  0.5923  1.3695 -0.9617
30536SOL     OW95395   7.097   7.987   4.846  0.1371 -0.0163  0.2862
30536SOL    HW195396   7.086   7.990   4.941  0.8151  1.3379  0.3516
30536SOL    HW295397   7.106   8.079   4.820  0.7855 -0.4124 -0.9810
30537SOL     OW95398   7.831   9.485   2.706  0.2843 -0.1190 -0.2169
30537SOL    HW195399   7.779   9.476   2.626  0.0194  0.8423 -0.1545
30537SOL    HW295400   7.790   9.556   2.754  0.6935 -0.4211  0.5913
30538SOL     OW95401   0.676   8.994   2.117  0.0547 -0.2992 -0.0332
30538SOL    HW195402   0.589   9.016   2.083  0.2115  0.0767 -0.1950
30538SOL    HW295403   0.718   9.079   2.131  0.2694 -0.4712  0.3800
30539SOL     OW95404  10.074   4.940   3.551  0.0903 -0.4962 -0.5758
30539SOL    HW195405  10.024   4.942   3.632  2.7296 -0.2531  1.1492
30539SOL    HW295406  10.036   5.010   3.498 -0.3283  0.8023  1.3328
30540SOL     OW95407   4.675   7.442   3.299 -0.1969  0.6927  0.0966
30540SOL    HW195408   4.588   7.433   3.261 -1.5374  1.8095  2.6477
30540SOL    HW295409   4.720   7.506   3.243 -1.3583  0.8598 -0.6692
30541SOL     OW95410   5.128   4.462   8.437 -0.0030 -0.3651 -0.3830
30541SOL    HW195411   5.160   4.542   8.395  0.4515  1.0044  2.3387
30541SOL    HW295412   5.051   4.437   8.386 -1.3459  2.9645 -0.2354
30542SOL     OW95413   2.839   1.733   9.718 -0.5662 -0.0301  0.2165
30542SOL    HW195414   2.875   1.796   9.656 -2.0462  1.9955  1.3053
30542SOL    HW295415   2.779   1.679   9.666  0.5151 -0.4104 -0.6724
30543SOL     OW95416   5.586   6.184   5.679 -0.2952 -0.9058  0.5842
30543SOL    HW195417   5.615   6.093   5.682  1.0111 -0.5592 -0.7154
30543SOL    HW295418   5.593   6.214   5.770 -0.0163 -1.8813  0.8977
30544SOL     OW95419   4.371   7.759   4.250  0.4830  0.4135 -0.4332
30544SOL    HW195420   4.452   7.735   4.205  0.6200  0.1172 -0.0422
30544SOL    HW295421   4.302   7.749   4.185  0.8456  1.3243 -0.9648
30545SOL     OW95422   7.358   5.130   7.611 -0.5067 -0.1111 -0.8963
30545SOL    HW195423   7.424   5.088   7.556  0.2539 -0.9228  0.5714
30545SOL    HW295424   7.396   5.130   7.699 -1.3659  1.8170 -0.4695
30546SOL     OW95425  10.218   5.338   3.400  0.7370 -0.3759 -0.0398
30546SOL    HW195426  10.233   5.257   3.450  0.9882  0.6066  1.5386
30546SOL    HW295427  10.300   5.353   3.354  0.9263 -0.6403  0.2065
30547SOL     OW95428   3.940   0.319   7.815  0.0558  0.2057  0.3478
30547SOL    HW195429   3.993   0.328   7.894 -0.7682 -0.1578  0.9532
30547SOL    HW295430   3.903   0.406   7.800 -0.3991  0.0961  0.8103
30548SOL     OW95431   8.931   9.034   9.884  0.3387  0.4448 -0.0348
30548SOL    HW195432   9.016   9.044   9.926  1.2906  0.2308 -1.8462
30548SOL    HW295433   8.909   8.941   9.893 -0.4872  0.7747  1.8068
30549SOL     OW95434   8.494   7.127   3.742  0.2482  0.1833  0.1704
30549SOL    HW195435   8.492   7.178   3.661  1.2556 -0.7380 -0.4674
30549SOL    HW295436   8.466   7.039   3.715 -1.7667  0.4346  1.3059
30550SOL     OW95437   0.775   0.501   8.640 -0.1214  0.2545 -0.3001
30550SOL    HW195438   0.736   0.585   8.620 -0.0173  0.6247  0.9750
30550SOL    HW295439   0.715   0.460   8.701  1.8368  1.2408  2.4765
30551SOL     OW95440   3.746   0.874   8.146 -0.1302 -0.1748 -0.2772
30551SOL    HW195441   3.829   0.841   8.112 -0.9255 -0.7963 -1.7049
30551SOL    HW295442   3.715   0.805   8.205  1.8845  1.4578  3.0112
30552SOL     OW95443   6.611   8.537   4.428  0.0937  0.2419  0.5592
30552SOL    HW195444   6.596   8.482   4.350 -1.0777 -0.9505  1.5667
30552SOL    HW295445   6.580   8.624   4.402 -0.0155 -0.0694 -0.4045
30553SOL     OW95446   5.810   6.176   9.447  0.1157 -0.0132  0.1583
30553SOL    HW195447   5.803   6.084   9.421 -0.3864  0.1903 -0.4417
30553SOL    HW295448   5.773   6.225   9.373 -0.8379  0.6144  1.0354
30554SOL     OW95449   7.119  10.309   1.578  0.7453 -0.0803 -0.9317
30554SOL    HW195450   7.207  10.342   1.561  0.8539  0.0434 -0.1422
30554SOL    HW295451   7.130  10.246   1.649  0.1041  0.4094 -0.3977
30555SOL     OW95452   7.321   2.981   2.177 -0.5913  0.2359 -0.6834
30555SOL    HW195453   7.374   2.902   2.192  0.4245  0.8470 -0.9274
30555SOL    HW295454   7.270   2.991   2.257  0.3940  0.1651 -0.0193
30556SOL     OW95455  10.221   0.311   6.604  0.0957  0.1571 -0.0744
30556SOL    HW195456  10.236   0.385   6.545 -0.9615 -0.3720 -1.0297
30556SOL    HW295457  10.169   0.347   6.675  0.3830  0.5351 -0.0523
30557SOL     OW95458   2.255   3.011   4.810 -0.5449  1.1380  0.0645
30557SOL    HW195459   2.250   2.960   4.729  0.5804  1.2408 -0.0826
30557SOL    HW295460   2.325   2.969   4.860 -0.4698  1.7675  0.4909
30558SOL     OW95461   2.647   8.759   1.977 -0.0285  0.0644  0.1915
30558SOL    HW195462   2.575   8.696   1.976 -0.7711  0.8798  0.3980
30558SOL    HW295463   2.639   8.803   2.061 -1.2146  2.2919 -1.0018
30559SOL     OW95464   2.161   6.683   0.645 -0.0676  0.0419 -0.1001
30559SOL    HW195465   2.114   6.744   0.588  1.2803  0.0760 -1.2417
30559SOL    HW295466   2.123   6.597   0.626 -1.1902  0.3381  0.6764
30560SOL     OW95467   6.029   0.215  10.144 -0.1156  0.2493  0.6705
30560SOL    HW195468   5.938   0.228  10.117 -1.2726 -0.7216  3.6504
30560SOL    HW295469   6.055   0.134  10.100 -0.7925  0.3465  0.0529
30561SOL     OW95470   2.314  10.205   2.203 -0.0069  0.4061 -0.1423
30561SOL    HW195471   2.300  10.247   2.119  1.5219 -1.3261 -1.3533
30561SOL    HW295472   2.304  10.275   2.267  0.5228  2.1663 -1.8853
30562SOL     OW95473   6.296   1.294   1.405  0.5487  0.4652 -0.0282
30562SOL    HW195474   6.324   1.334   1.323  0.9685 -0.1741 -0.2062
30562SOL    HW295475   6.373   1.298   1.461  0.6447 -0.2206 -0.1035
30563SOL     OW95476   7.591   2.788   4.213 -0.1289 -0.0769  0.1339
30563SOL    HW195477   7.517   2.847   4.198  0.9750  1.4822  0.6252
30563SOL    HW295478   7.629   2.817   4.296  0.6010 -1.3441  0.2740
30564SOL     OW95479   9.008   8.948   8.324  0.9279  0.1234  0.4105
30564SOL    HW195480   9.037   8.943   8.232  2.2190  1.2639  0.7235
30564SOL    HW295481   9.089   8.949   8.374  0.2623  0.6794  1.5012
30565SOL     OW95482  10.200   4.947   4.974 -0.4407  0.0261 -0.3191
30565SOL    HW195483  10.260   4.982   5.041 -1.3644 -0.4536  0.7848
30565SOL    HW295484  10.256   4.932   4.898  2.1438 -5.2068  2.0889
30566SOL     OW95485   1.255   2.630   8.173  0.2192  0.2839  0.0679
30566SOL    HW195486   1.185   2.664   8.118  0.5044  1.8546  0.6003
30566SOL    HW295487   1.258   2.536   8.155 -0.8451  0.4843 -1.2562
30567SOL     OW95488   7.320   2.832   5.489  0.3230 -0.6911 -0.0731
30567SOL    HW195489   7.338   2.770   5.560  0.2657  0.0220  0.5742
30567SOL    HW295490   7.228   2.819   5.468  0.8337 -2.4120 -1.5100
30568SOL     OW95491   0.095  10.289   5.440 -0.0308 -0.0124 -0.4850
30568SOL    HW195492   0.042  10.220   5.401 -0.3655  0.3383 -0.6544
30568SOL    HW295493   0.040  10.367   5.437  0.7083  0.5030 -1.2416
30569SOL     OW95494   8.488   1.648   3.295 -0.8123 -0.1888  0.2987
30569SOL    HW195495   8.574   1.675   3.263 -0.3989 -1.3835  0.3553
30569SOL    HW295496   8.427   1.675   3.226 -0.2170 -0.5932 -0.3972
30570SOL     OW95497   8.530   6.434   2.774 -0.1729 -0.3689  0.0062
30570SOL    HW195498   8.597   6.409   2.711 -1.6179  2.1337 -2.7863
30570SOL    HW295499   8.578   6.458   2.853  2.0427 -0.4242 -1.2577
30571SOL     OW95500   2.297   3.727   7.579 -0.5970  0.4816  0.2728
30571SOL    HW195501   2.258   3.787   7.642 -1.4806  1.2853 -0.9718
30571SOL    HW295502   2.339   3.659   7.632 -2.3188  0.4542  1.7008
30572SOL     OW95503   8.143   3.210   3.942 -0.0411  0.0223 -0.6972
30572SOL    HW195504   8.231   3.226   3.907  0.0506  1.8373  0.2247
30572SOL    HW295505   8.123   3.289   3.992  0.1915 -2.5937  4.1834
30573SOL     OW95506   9.576   4.404   7.790  0.7320 -0.1473  0.2737
30573SOL    HW195507   9.547   4.399   7.881 -1.6359 -1.1743 -0.4428
30573SOL    HW295508   9.641   4.335   7.781 -1.0058 -1.9507  0.6282
30574SOL     OW95509   5.771   2.679   9.089 -0.2543 -0.3795  0.1262
30574SOL    HW195510   5.816   2.691   9.005  0.6644  1.8631  0.8876
30574SOL    HW295511   5.840   2.650   9.149 -0.7853 -1.3642  0.2821
30575SOL     OW95512   8.192   0.472   8.502  0.1308  0.2471 -0.0782
30575SOL    HW195513   8.097   0.464   8.516  0.1572  1.0272  0.6160
30575SOL    HW295514   8.228   0.489   8.589  0.8455  0.5300 -0.4191
30576SOL     OW95515   8.939   3.263   6.681 -0.1105 -0.5284  0.1275
30576SOL    HW195516   8.924   3.323   6.608 -1.5625  0.3140  1.0801
30576SOL    HW295517   9.021   3.292   6.720 -0.8720  0.9665  0.6706
30577SOL     OW95518   7.166   2.607   8.927  0.3364  0.2515  0.3220
30577SOL    HW195519   7.235   2.662   8.963 -0.8891  2.0753  0.0496
30577SOL    HW295520   7.154   2.637   8.838 -2.5525  1.9242  1.1209
30578SOL     OW95521   0.704   0.715   3.831 -0.1367  0.0907  0.0458
30578SOL    HW195522   0.759   0.671   3.896  1.0452 -2.1625 -2.3030
30578SOL    HW295523   0.766   0.763   3.776 -0.7112 -0.5264 -1.1955
30579SOL     OW95524   0.016   8.935   8.662 -0.3960  0.1672 -0.3349
30579SOL    HW195525   0.060   8.880   8.597  1.0988  1.3033 -0.3571
30579SOL    HW295526   0.062   9.019   8.657 -1.6816  0.9704  0.6750
30580SOL     OW95527   9.613   7.794   2.599  0.0985  0.1736 -0.4090
30580SOL    HW195528   9.534   7.762   2.556  0.0677  0.6242 -0.6995
30580SOL    HW295529   9.591   7.883   2.626  0.1236 -0.1055  0.5462
30581SOL     OW95530   7.270   7.914   4.633 -0.0188  0.3627  0.6229
30581SOL    HW195531   7.351   7.900   4.682  1.3913  1.2259 -1.3112
30581SOL    HW295532   7.212   7.959   4.694  0.2377 -1.8947  2.6501
30582SOL     OW95533   3.796   1.691   1.041 -0.1549 -0.0618  0.3935
30582SOL    HW195534   3.851   1.767   1.021 -0.6324  0.0778 -0.4399
30582SOL    HW295535   3.854   1.616   1.028 -0.3025  0.0478 -1.0974
30583SOL     OW95536   6.367   2.003   1.023 -0.2799  0.2922  0.4258
30583SOL    HW195537   6.336   1.913   1.034 -1.9352  0.9323  1.4687
30583SOL    HW295538   6.428   2.016   1.096  0.2544 -0.0771  0.0554
30584SOL     OW95539   9.292   6.170   2.152 -0.5958 -0.3281 -0.7027
30584SOL    HW195540   9.256   6.112   2.085 -0.1199 -0.2608 -1.0234
30584SOL    HW295541   9.218   6.223   2.180 -1.1716 -1.4744  0.0137
30585SOL     OW95542   5.965   3.852   0.183 -0.0567 -0.9747 -0.0231
30585SOL    HW195543   5.904   3.894   0.122  1.3582 -1.3533 -1.8011
30585SOL    HW295544   6.004   3.925   0.232 -0.6336 -0.5803 -0.1497
30586SOL     OW95545   9.118   4.034   4.457 -0.2590 -0.5160 -0.3058
30586SOL    HW195546   9.038   4.074   4.423 -0.0862  0.7355  0.6830
30586SOL    HW295547   9.117   4.054   4.550  0.2599 -2.1697  0.0817
30587SOL     OW95548   7.938   0.984   6.465  0.0659 -0.2951  0.6816
30587SOL    HW195549   7.959   1.051   6.400  0.6817 -0.4332  0.7366
30587SOL    HW295550   7.842   0.978   6.464 -0.0157  0.8297  0.9260
30588SOL     OW95551   4.017   9.378  10.022 -0.0007 -0.2664  0.2785
30588SOL    HW195552   3.979   9.460   9.991  0.1538 -0.3010 -0.0019
30588SOL    HW295553   4.105   9.377   9.986  0.4248  0.0110  1.2633
30589SOL     OW95554   6.823   5.338   9.126  0.0518 -0.4520  0.6685
30589SOL    HW195555   6.802   5.430   9.113  1.0759 -0.2669  0.1473
30589SOL    HW295556   6.897   5.322   9.066 -1.2606 -2.0750 -0.6198
30590SOL     OW95557   0.206   4.089   4.853 -0.3143  0.0877  1.0237
30590SOL    HW195558   0.273   4.112   4.918 -1.1532 -0.9107  2.2828
30590SOL    HW295559   0.143   4.161   4.858 -0.3432  0.0476  1.2762
30591SOL     OW95560   9.702   9.329   2.652  0.4062  0.0305 -0.2697
30591SOL    HW195561   9.691   9.241   2.689  3.3568 -0.7819 -1.1118
30591SOL    HW295562   9.718   9.385   2.728  4.0559 -1.2257  0.0731
30592SOL     OW95563   3.352   4.425   2.031  0.4763 -0.6584 -0.2442
30592SOL    HW195564   3.317   4.337   2.018  0.7814 -0.8571  0.2495
30592SOL    HW295565   3.299   4.463   2.100  1.8830 -1.3621  1.2997
30593SOL     OW95566   2.892   0.813   1.613  0.4001  0.6723 -0.0734
30593SOL    HW195567   2.956   0.860   1.561  0.1636  0.8427 -0.2153
30593SOL    HW295568   2.934   0.729   1.634  0.3461  0.4413 -0.8714
30594SOL     OW95569   3.746   1.053   3.212  0.0142 -0.2626  0.4400
30594SOL    HW195570   3.786   0.967   3.213 -0.8235 -0.6529  0.7664
30594SOL    HW295571   3.654   1.037   3.189  0.0273  0.6101 -0.2887
30595SOL     OW95572   1.614   1.868   2.453  0.1471 -0.0945  0.0713
30595SOL    HW195573   1.707   1.891   2.445  0.2387  0.3561  2.0784
30595SOL    HW295574   1.612   1.794   2.512 -0.7584 -0.3468 -0.2588
30596SOL     OW95575   7.841   2.011   1.662  0.0636 -0.4098  0.4710
30596SOL    HW195576   7.826   2.106   1.668  1.4199 -0.1899  0.7741
30596SOL    HW295577   7.791   1.984   1.586  0.5587  0.7710 -0.3155
30597SOL     OW95578   9.000   4.842   4.141 -0.7728 -0.3181 -0.2160
30597SOL    HW195579   9.095   4.844   4.152 -0.8335 -1.2306  0.5256
30597SOL    HW295580   8.966   4.887   4.218 -1.0114 -2.1680  0.8061
30598SOL     OW95581   8.882   7.134   0.213  0.1187 -0.3638  0.4583
30598SOL    HW195582   8.822   7.186   0.160 -0.4491 -0.2002  1.2430
30598SOL    HW295583   8.883   7.178   0.298  0.6656 -0.8743  0.7236
30599SOL     OW95584   3.377   3.930   8.858 -0.2853  0.0780 -0.0282
30599SOL    HW195585   3.298   3.922   8.803  0.4533  0.6590 -1.2245
30599SOL    HW295586   3.415   3.842   8.857 -0.2732  0.0819 -0.4900
30600SOL     OW95587   9.186   6.991   8.822  0.2917  0.2025 -0.0497
30600SOL    HW195588   9.242   6.995   8.745 -1.3808 -1.6909 -1.4721
30600SOL    HW295589   9.178   6.897   8.841 -2.5636  0.3569 -0.1120
30601SOL     OW95590  10.104   5.098   9.427 -0.1843  0.1368  0.2831
30601SOL    HW195591  10.043   5.126   9.359 -0.2496 -2.1483 -0.6949
30601SOL    HW295592  10.185   5.145   9.408 -0.7646  0.9422 -0.2230
30602SOL     OW95593   6.249   2.085   4.435  0.1693 -0.2421 -0.0551
30602SOL    HW195594   6.303   2.025   4.385 -0.5343  1.1012 -2.5845
30602SOL    HW295595   6.238   2.161   4.378 -0.2268  1.6739  2.3931
30603SOL     OW95596   7.378   7.406   1.260 -0.2531  0.1174  0.1578
30603SOL    HW195597   7.368   7.313   1.242  1.2031 -0.5141  2.2291
30603SOL    HW295598   7.323   7.421   1.338 -0.6350  1.0507 -0.2730
30604SOL     OW95599   8.179   3.491   0.443  0.3812 -0.3794  0.7361
30604SOL    HW195600   8.102   3.440   0.470  0.1551 -0.1670  0.5034
30604SOL    HW295601   8.246   3.425   0.424 -0.6804 -0.7959 -2.0850
30605SOL     OW95602   6.223   1.391   2.843  0.0777  0.0650 -0.5828
30605SOL    HW195603   6.226   1.325   2.775  1.9759 -0.1992 -0.3076
30605SOL    HW295604   6.300   1.374   2.897 -0.4902  1.2569  0.6898
30606SOL     OW95605   1.380   0.352   5.676  0.1793  0.1805 -0.1949
30606SOL    HW195606   1.408   0.264   5.651  2.2886  1.1547 -1.6087
30606SOL    HW295607   1.341   0.388   5.596 -1.8600  0.1658  0.7227
30607SOL     OW95608   3.820   4.918   1.467 -0.7812  0.1961  0.6743
30607SOL    HW195609   3.816   4.825   1.445  1.3518  0.3147 -0.4642
30607SOL    HW295610   3.769   4.961   1.400  0.7590  0.0428 -0.6677
30608SOL     OW95611   4.875   6.461   2.518  0.2149 -0.3807  0.7610
30608SOL    HW195612   4.969   6.475   2.516  0.2872 -0.9317 -1.2255
30608SOL    HW295613   4.852   6.431   2.430 -1.9120  0.3023  1.0075
30609SOL     OW95614   2.740   3.849   5.754  0.1722  0.2080 -0.2153
30609SOL    HW195615   2.681   3.814   5.687  1.5045  0.1514 -1.4004
30609SOL    HW295616   2.783   3.923   5.713  0.1774  0.9133  0.9998
30610SOL     OW95617   8.222   5.298   2.391  0.2360 -0.3253  0.1172
30610SOL    HW195618   8.264   5.235   2.333 -3.0053 -0.7586 -2.0195
30610SOL    HW295619   8.191   5.247   2.466  0.3670 -0.6860 -0.0760
30611SOL     OW95620   5.472   6.072   1.477  0.1424  0.4814 -0.1068
30611SOL    HW195621   5.462   6.166   1.491 -1.2289  0.4742 -0.8846
30611SOL    HW295622   5.529   6.044   1.549  0.7462  1.9186  0.0263
30612SOL     OW95623   4.588   1.901   4.091 -0.1177 -0.0047 -0.1782
30612SOL    HW195624   4.539   1.833   4.047 -1.3624  0.0015  1.1313
30612SOL    HW295625   4.591   1.874   4.183  0.2182  1.2139  0.1972
30613SOL     OW95626   9.755   0.300   5.991  0.2936 -0.0442 -0.3331
30613SOL    HW195627   9.698   0.328   5.919 -1.1806  0.8323  1.1098
30613SOL    HW295628   9.784   0.381   6.031  0.9551 -0.5249  0.1764
30614SOL     OW95629   7.377   1.173   8.092  0.0917 -0.9973 -0.0341
30614SOL    HW195630   7.416   1.191   8.006 -2.9136  0.5743 -1.1933
30614SOL    HW295631   7.452   1.171   8.152  2.0165  1.8455 -2.0809
30615SOL     OW95632   7.642   7.804   1.647  0.2559 -0.3076  0.1296
30615SOL    HW195633   7.716   7.845   1.602 -0.8433  0.5709 -0.9206
30615SOL    HW295634   7.564   7.838   1.603 -0.8851  0.2615  2.3990
30616SOL     OW95635   7.026   4.516   4.067 -0.0094  0.1202  0.0576
30616SOL    HW195636   7.067   4.548   4.147  2.7782 -0.5247 -0.9987
30616SOL    HW295637   6.997   4.427   4.088  2.7779 -0.9345 -0.1764
30617SOL     OW95638   2.590   6.946   0.361 -0.0473 -0.0088 -0.2628
30617SOL    HW195639   2.532   7.022   0.359 -0.9203 -0.6072  1.0912
30617SOL    HW295640   2.674   6.981   0.393 -0.4796  0.3754  0.4815
30618SOL     OW95641   4.251   6.225   3.885  0.3570  0.7374  0.0250
30618SOL    HW195642   4.343   6.216   3.861  0.3336  1.6436 -0.4783
30618SOL    HW295643   4.226   6.139   3.920  1.7890  0.9176  1.6130
30619SOL     OW95644   8.141   9.568   8.350  0.0172  0.1225  0.4203
30619SOL    HW195645   8.156   9.662   8.339 -0.8325  0.2571  0.3100
30619SOL    HW295646   8.213   9.527   8.303  0.1544  0.7258  0.0883
30620SOL     OW95647   5.203   3.054   3.017 -0.1609  0.4236  0.4826
30620SOL    HW195648   5.296   3.066   3.035 -0.2821  1.9117  0.2316
30620SOL    HW295649   5.175   2.986   3.079  1.5262 -1.6824 -0.9093
30621SOL     OW95650   3.755   0.648   4.517 -0.3567 -0.5390  0.4883
30621SOL    HW195651   3.772   0.665   4.610  1.1730 -0.9609  0.3034
30621SOL    HW295652   3.799   0.565   4.499  0.5567  0.2184 -0.9384
30622SOL     OW95653   2.288   4.628   4.672 -0.3410  0.4633 -0.5889
30622SOL    HW195654   2.338   4.651   4.595  0.0405 -1.9513 -1.1394
30622SOL    HW295655   2.345   4.570   4.722 -2.0472 -1.2812 -0.5590
30623SOL     OW95656   7.664   6.023   7.847  0.6412  0.3234 -0.0887
30623SOL    HW195657   7.758   6.015   7.864  1.0832  2.3234 -1.2985
30623SOL    HW295658   7.648   6.117   7.841 -1.6176  0.0520  0.8642
30624SOL     OW95659   8.087   2.584   3.642 -0.3522 -0.3054  0.7340
30624SOL    HW195660   8.143   2.661   3.648 -1.8752  0.8520  0.9197
30624SOL    HW295661   8.009   2.615   3.596 -0.2160 -2.2476 -0.9198
30625SOL     OW95662   9.008   6.195   3.476 -0.1375  0.0558  0.1140
30625SOL    HW195663   9.054   6.272   3.441 -0.8117  0.9094  1.0660
30625SOL    HW295664   8.916   6.213   3.459 -0.3039 -0.5416  0.3644
30626SOL     OW95665   8.511   3.421   2.507 -0.1420  0.4623  0.4576
30626SOL    HW195666   8.518   3.331   2.476 -0.4801  0.1792  1.1741
30626SOL    HW295667   8.562   3.421   2.588 -0.4505  0.8214  0.6513
30627SOL     OW95668   7.082   9.757   6.340 -0.0950  0.3439 -0.0724
30627SOL    HW195669   6.994   9.750   6.304 -0.1851 -2.2204  0.4544
30627SOL    HW295670   7.124   9.824   6.287 -1.2252 -0.9795 -2.8540
30628SOL     OW95671   1.856   5.269   1.967  0.3886  0.2261  0.0933
30628SOL    HW195672   1.887   5.241   2.053 -0.5777 -2.2203 -0.2665
30628SOL    HW295673   1.897   5.208   1.906 -0.4664  0.6798 -0.9663
30629SOL     OW95674   2.209   6.117   8.142 -0.1785 -0.1344  0.2860
30629SOL    HW195675   2.232   6.044   8.085 -1.8959 -0.6010  0.1265
30629SOL    HW295676   2.293   6.159   8.163  0.5854 -0.5198 -1.7740
30630SOL     OW95677   5.343   0.447   5.915 -0.0300  0.0788  0.5069
30630SOL    HW195678   5.255   0.477   5.890  0.0115  0.1090  0.3965
30630SOL    HW295679   5.335   0.352   5.919  0.7428 -0.2245 -2.7469
30631SOL     OW95680   0.534   0.198   6.820 -0.1240 -0.7995 -0.1158
30631SOL    HW195681   0.444   0.169   6.839  0.1696 -0.3386  2.2735
30631SOL    HW295682   0.584   0.117   6.814 -0.0497 -1.0115  2.4473
30632SOL     OW95683  10.258   0.652   3.247 -0.1783 -0.1871  0.2728
30632SOL    HW195684  10.292   0.654   3.158 -1.2745 -1.8080 -0.2310
30632SOL    HW295685  10.168   0.684   3.238 -0.1082  0.2018  0.9085
30633SOL     OW95686   8.212   7.449   9.170  0.4666  0.1649  0.4656
30633SOL    HW195687   8.228   7.542   9.152 -1.7366  0.4594 -0.3000
30633SOL    HW295688   8.165   7.449   9.254  1.6726 -0.4055  1.1684
30634SOL     OW95689   8.148   9.007   0.250  0.3709  0.2762  0.2840
30634SOL    HW195690   8.066   8.957   0.260 -0.2893  1.5880  1.9305
30634SOL    HW295691   8.216   8.945   0.276 -0.5019  0.3938  3.1735
30635SOL     OW95692   5.887   3.442   3.960  0.4775  0.1990 -0.4922
30635SOL    HW195693   5.933   3.376   3.909 -1.0031 -0.2956 -1.2371
30635SOL    HW295694   5.796   3.436   3.932 -0.4939 -0.3275  2.4093
30636SOL     OW95695   5.614   7.586   1.317  0.0390  0.6642 -0.4306
30636SOL    HW195696   5.566   7.552   1.393  0.2092 -0.5869 -0.8596
30636SOL    HW295697   5.549   7.586   1.246 -0.6148  3.4831  0.0769
30637SOL     OW95698   7.909   0.159   9.046 -0.4096 -0.5709  0.4203
30637SOL    HW195699   7.858   0.239   9.035  1.2203  0.4037 -0.5113
30637SOL    HW295700   7.932   0.158   9.139  0.1501  0.4442  0.3070
30638SOL     OW95701   2.689   0.997   3.997 -0.5984 -0.5864  0.0961
30638SOL    HW195702   2.764   0.971   4.051 -0.0667 -0.5226 -0.5950
30638SOL    HW295703   2.688   1.092   4.001  0.1429 -0.5249 -0.9177
30639SOL     OW95704   2.446   9.741   1.564  0.3209 -0.1983  0.2152
30639SOL    HW195705   2.502   9.736   1.486 -0.1964 -0.4236 -0.1498
30639SOL    HW295706   2.389   9.816   1.548  0.8540  0.3367  0.8133
30640SOL     OW95707   9.407   7.320   3.557  0.5438  0.0059 -0.1804
30640SOL    HW195708   9.433   7.252   3.619  1.8017 -0.7593 -1.4623
30640SOL    HW295709   9.459   7.396   3.582  1.4492 -0.4601 -0.5712
30641SOL     OW95710   2.187   8.985   0.659 -0.3037 -0.2918 -0.4003
30641SOL    HW195711   2.185   9.020   0.748 -2.2121 -2.0956  0.3649
30641SOL    HW295712   2.207   9.060   0.603 -0.8376  1.2659  1.4043
30642SOL     OW95713   8.062   3.045   9.199 -0.2927  0.0924  0.3844
30642SOL    HW195714   8.072   3.137   9.224 -0.2273  0.6552 -1.5405
30642SOL    HW295715   8.148   3.006   9.214  0.1346  0.7543 -0.2485
30643SOL     OW95716   8.619   6.170   2.280 -0.1154  0.0054  0.1275
30643SOL    HW195717   8.572   6.117   2.344  1.0475  0.0081  1.0255
30643SOL    HW295718   8.551   6.211   2.227 -1.1275  0.3277  1.6182
30644SOL     OW95719   3.289   7.157   0.979  0.1912 -0.3220  0.0635
30644SOL    HW195720   3.369   7.187   0.937  0.1198 -3.2790 -2.5647
30644SOL    HW295721   3.319   7.104   1.053  0.7126 -1.1491 -0.7160
30645SOL     OW95722   6.645   5.523  10.123  0.7578  0.3557  0.1494
30645SOL    HW195723   6.661   5.617  10.117  0.7433  0.3648  0.2544
30645SOL    HW295724   6.667   5.500  10.213 -0.0564  0.4124  0.3710
30646SOL     OW95725  10.233   6.949   9.781  0.3242 -0.4845 -0.6428
30646SOL    HW195726  10.283   7.021   9.743 -1.1487  0.8656 -0.1457
30646SOL    HW295727  10.176   6.919   9.710 -0.6462  0.3583 -0.2373
30647SOL     OW95728   2.031   5.321   0.292  0.3915  0.2735 -0.0392
30647SOL    HW195729   2.035   5.226   0.300 -2.1617  0.0979 -0.0593
30647SOL    HW295730   1.973   5.336   0.217 -0.8523  1.7949  1.1650
30648SOL     OW95731   8.155   7.761   0.463  0.0446  0.3944 -0.0634
30648SOL    HW195732   8.190   7.830   0.518  1.6583 -0.1234 -0.3983
30648SOL    HW295733   8.200   7.771   0.379 -1.4705  0.4067 -0.9236
30649SOL     OW95734   9.874   7.900   7.094 -0.9143  0.0439  0.0782
30649SOL    HW195735   9.827   7.883   7.176 -0.8104 -0.4544  0.0369
30649SOL    HW295736   9.902   7.814   7.065  1.7837  0.4628  1.1318
30650SOL     OW95737   7.505   1.223   6.581  0.2819  0.1623 -0.6079
30650SOL    HW195738   7.412   1.202   6.581  0.6952 -1.8985  1.0325
30650SOL    HW295739   7.525   1.242   6.489 -1.5685 -0.1172 -1.0969
30651SOL     OW95740   2.208   9.840   9.860  0.7258  0.4820  0.1043
30651SOL    HW195741   2.153   9.776   9.905  1.3076 -0.6488 -0.7460
30651SOL    HW295742   2.253   9.888   9.930 -0.8411  1.0073  0.7873
30652SOL     OW95743   5.756   8.130   4.060  0.1035 -0.2819 -0.0631
30652SOL    HW195744   5.722   8.041   4.070  0.5285 -0.7293 -2.1202
30652SOL    HW295745   5.850   8.121   4.071  0.1244 -0.0496 -0.0548
30653SOL     OW95746   5.613   3.098   7.357 -0.2538  0.0360  0.8401
30653SOL    HW195747   5.651   3.012   7.371  1.0115  0.5383  0.7037
30653SOL    HW295748   5.645   3.151   7.431 -1.4749  0.2571  1.2356
30654SOL     OW95749   1.956   2.302   6.554 -0.8067  0.3196  0.4374
30654SOL    HW195750   1.896   2.235   6.521 -0.6202  0.2022  0.3319
30654SOL    HW295751   1.953   2.372   6.488  0.7982 -0.6165 -0.6874
30655SOL     OW95752   1.692   9.649   7.541 -0.2898 -0.3606  0.3885
30655SOL    HW195753   1.713   9.565   7.580  0.9547 -0.7665 -1.0524
30655SOL    HW295754   1.711   9.638   7.448 -2.7091  0.6813 -0.3062
30656SOL     OW95755   3.124   0.112   6.043 -0.3280  0.2156  0.8511
30656SOL    HW195756   3.103   0.180   6.108  1.4267 -0.4643  2.2034
30656SOL    HW295757   3.220   0.109   6.041 -0.3617 -1.1928 -0.2819
30657SOL     OW95758   3.215   8.212   9.663 -0.2374  0.3090  0.2204
30657SOL    HW195759   3.134   8.176   9.626  0.3744 -0.4147 -0.4208
30657SOL    HW295760   3.190   8.239   9.752 -0.8066 -1.3511  0.6013
30658SOL     OW95761   2.588   6.799   5.061  0.6475 -0.2905  0.8602
30658SOL    HW195762   2.536   6.879   5.071 -0.5519 -0.5260 -2.3945
30658SOL    HW295763   2.677   6.825   5.085  0.4492  2.2968 -0.8391
30659SOL     OW95764   9.560   9.851   5.994  0.3716 -0.0962 -0.2829
30659SOL    HW195765   9.601   9.912   5.933  2.4142 -1.4156 -0.3027
30659SOL    HW295766   9.529   9.779   5.939  0.5290 -0.4106  0.0380
30660SOL     OW95767   8.653   8.098   9.806 -0.0468  0.2078  0.4669
30660SOL    HW195768   8.706   8.177   9.817  0.5283 -0.1993  0.6440
30660SOL    HW295769   8.582   8.108   9.869  0.4270  0.2490  1.0003
30661SOL     OW95770   9.239   9.809   2.269 -0.1495 -0.1477  0.3858
30661SOL    HW195771   9.273   9.860   2.195 -0.3798  0.3468  0.6180
30661SOL    HW295772   9.237   9.719   2.237  1.2232 -0.1729  0.3057
30662SOL     OW95773   2.359   2.092   2.738  0.4928 -0.6364  0.5016
30662SOL    HW195774   2.349   2.164   2.801 -0.6121 -1.8256  1.7546
30662SOL    HW295775   2.442   2.050   2.762  0.1181 -1.0326  1.1460
30663SOL     OW95776   6.739   6.435   0.031  0.5097  0.6487  0.1134
30663SOL    HW195777   6.680   6.365   0.003 -0.1841  0.9307  0.7973
30663SOL    HW295778   6.680   6.509   0.049  1.0332  0.8335  1.1388
30664SOL     OW95779   6.570   1.512   9.607  0.1173  0.1250 -0.3878
30664SOL    HW195780   6.522   1.497   9.689  1.1944  1.0429  0.4431
30664SOL    HW295781   6.570   1.607   9.596  0.1850  0.0262 -1.3525
30665SOL     OW95782   1.662   4.415   1.018  0.6060 -0.7230 -0.2043
30665SOL    HW195783   1.650   4.360   1.095  1.8471 -1.1881 -0.3203
30665SOL    HW295784   1.742   4.382   0.977  0.9529  0.6729 -0.7052
30666SOL     OW95785   7.697   9.803   3.072  0.6019  0.2584 -0.0218
30666SOL    HW195786   7.758   9.809   2.998  0.1043  1.3440 -0.3589
30666SOL    HW295787   7.644   9.883   3.066 -0.3859 -0.3286  0.6843
30667SOL     OW95788   0.299   3.315   1.943  0.6487  0.2071  0.5842
30667SOL    HW195789   0.234   3.363   1.891 -0.7875 -0.6514  1.5154
30667SOL    HW295790   0.310   3.232   1.897  1.9979  0.7748 -0.1943
30668SOL     OW95791   3.792   9.987   8.124 -0.7468 -0.2469 -0.2824
30668SOL    HW195792   3.800  10.081   8.144  0.3437  0.1320 -2.1974
30668SOL    HW295793   3.733   9.953   8.191  0.2323  1.4451  1.5625
30669SOL     OW95794   4.244  10.345   0.046  0.3357 -0.2388 -0.0451
30669SOL    HW195795   4.312  10.400   0.009 -0.9576  2.7352  1.6798
30669SOL    HW295796   4.218  10.287  -0.026  2.0477  1.1222 -1.8523
30670SOL     OW95797   4.460   1.083   5.980  0.9755 -0.2882 -0.2471
30670SOL    HW195798   4.366   1.099   5.986  1.1160  0.2425  0.6198
30670SOL    HW295799   4.474   1.003   6.031  1.0225 -0.2438 -0.1900
30671SOL     OW95800   6.122   1.190   1.586 -0.2788 -0.2467  0.4297
30671SOL    HW195801   6.182   1.190   1.512  0.3542  0.4313  0.9279
30671SOL    HW295802   6.160   1.252   1.648 -2.0527  1.0791  0.3069
30672SOL     OW95803   2.166   7.442   5.395 -0.2148  0.0377  0.2584
30672SOL    HW195804   2.106   7.422   5.324  1.0970  0.5857 -1.0558
30672SOL    HW295805   2.109   7.461   5.470 -1.8825  3.2519 -1.5889
30673SOL     OW95806   5.397   0.159   3.576  0.2832  1.0106  0.4335
30673SOL    HW195807   5.408   0.239   3.628 -0.0468 -0.3366  2.6715
30673SOL    HW295808   5.474   0.158   3.518  2.2005  1.1853  2.8405
30674SOL     OW95809   9.593   8.404   4.140  0.3630  0.3073  0.4584
30674SOL    HW195810   9.586   8.308   4.144  0.6941  0.2886  0.6380
30674SOL    HW295811   9.569   8.433   4.228 -0.8117  0.4654  0.1024
30675SOL     OW95812   0.249   5.371   5.174  0.3211 -0.3495 -0.0525
30675SOL    HW195813   0.192   5.372   5.250  0.3722  0.0178 -0.0166
30675SOL    HW295814   0.332   5.406   5.206  0.5623 -0.8598 -0.1082
30676SOL     OW95815   4.302   5.855   8.121 -0.3114  0.0344 -0.1922
30676SOL    HW195816   4.366   5.879   8.054  1.2702  3.0167  2.1646
30676SOL    HW295817   4.219   5.853   8.074  0.8076  1.2852 -2.4111
30677SOL     OW95818   2.575   2.630   7.978 -0.3152  0.0004  0.3389
30677SOL    HW195819   2.572   2.540   8.010  0.6953  0.1113  0.7626
30677SOL    HW295820   2.546   2.682   8.053 -0.0980  0.0932  0.3574
30678SOL     OW95821   4.666  10.052   4.145  0.1329 -0.0040  0.2989
30678SOL    HW195822   4.575  10.023   4.144  0.4022 -0.8698 -0.8246
30678SOL    HW295823   4.714   9.981   4.186  0.6900 -0.9132 -1.8006
30679SOL     OW95824   9.924   8.335   8.188  0.1718  0.9461  0.4004
30679SOL    HW195825   9.996   8.346   8.127  0.2149  0.0202  0.2625
30679SOL    HW295826   9.865   8.408   8.170  1.3280  2.0402  0.8967
30680SOL     OW95827   2.400   0.260   7.618  0.0042  0.0491 -0.2812
30680SOL    HW195828   2.382   0.171   7.588 -0.3477  0.1562 -0.3953
30680SOL    HW295829   2.473   0.251   7.679  2.0146  0.0531 -2.5516
30681SOL     OW95830   2.633   3.439   9.058  0.1017 -0.4900  0.2732
30681SOL    HW195831   2.545   3.438   9.021  0.4700 -0.4166 -0.6439
30681SOL    HW295832   2.652   3.532   9.071  1.2053 -0.1950 -2.5353
30682SOL     OW95833   2.048   3.436   7.579 -0.0205  0.0338  0.7655
30682SOL    HW195834   2.039   3.403   7.490  0.5938  0.3522  0.5872
30682SOL    HW295835   1.958   3.451   7.608 -0.1877  0.9924 -0.1938
30683SOL     OW95836   0.776   8.163   1.328  0.5351  0.4887  0.6263
30683SOL    HW195837   0.742   8.127   1.410  0.9673  0.1036  0.6366
30683SOL    HW295838   0.744   8.254   1.327 -0.2261  0.2308  0.7862
30684SOL     OW95839   9.321   4.777   5.817 -0.0725 -0.1405 -0.7108
30684SOL    HW195840   9.406   4.733   5.821 -0.0718 -0.0820  0.0459
30684SOL    HW295841   9.272   4.742   5.892 -0.2215  0.8315 -0.3410
30685SOL     OW95842   8.049   0.726   1.784 -0.0455  0.3026  0.0368
30685SOL    HW195843   8.078   0.688   1.701  1.0409  0.2989  0.3986
30685SOL    HW295844   8.127   0.768   1.820 -0.6012  0.6546  0.8671
30686SOL     OW95845   4.911   6.782   3.264 -0.5349  0.2272 -0.2486
30686SOL    HW195846   4.953   6.713   3.317 -0.4439  1.0765  0.8309
30686SOL    HW295847   4.831   6.803   3.312 -0.1594  1.4303 -0.1191
30687SOL     OW95848   4.035   4.741   3.951 -0.1273  0.0203  0.4670
30687SOL    HW195849   4.129   4.749   3.932 -0.1165 -1.1912 -0.1114
30687SOL    HW295850   3.992   4.778   3.874 -0.0989 -0.6222  0.1285
30688SOL     OW95851   1.664   2.317   2.527 -0.1905 -0.4615  1.0070
30688SOL    HW195852   1.710   2.402   2.531 -0.2180 -0.4341  0.7182
30688SOL    HW295853   1.605   2.325   2.453  0.6701 -1.1695  0.2242
30689SOL     OW95854   4.197  10.361   7.370  0.4604 -0.2659 -0.5563
30689SOL    HW195855   4.126  10.405   7.322 -0.9881 -1.7407  0.1233
30689SOL    HW295856   4.212  10.280   7.322  0.3990 -0.8154  0.3269
30690SOL     OW95857   8.758   3.939   1.807 -0.4412 -0.0219  0.1546
30690SOL    HW195858   8.797   3.885   1.738  0.3727 -0.5218  0.9920
30690SOL    HW295859   8.780   4.029   1.782 -1.3915 -0.0897 -0.9904
30691SOL     OW95860   7.548   1.711   6.752 -0.1791 -0.3011 -0.3069
30691SOL    HW195861   7.467   1.669   6.726  1.1033 -2.1362 -1.5837
30691SOL    HW295862   7.587   1.741   6.670 -0.0453  1.5657  0.3863
30692SOL     OW95863   1.364   4.019   8.421 -0.3198  0.4401  0.1590
30692SOL    HW195864   1.337   3.932   8.448 -1.4201  1.1840  1.5840
30692SOL    HW295865   1.286   4.073   8.431 -0.2046  1.2465 -2.5407
30693SOL     OW95866   3.422   2.267   9.064  0.5188 -0.2115 -0.1234
30693SOL    HW195867   3.439   2.342   9.008  0.8854  0.3512  0.7244
30693SOL    HW295868   3.469   2.286   9.145 -0.3872 -0.7985  0.5568
30694SOL     OW95869  10.017   2.949   8.678  0.0458  0.2192 -0.3817
30694SOL    HW195870  10.030   2.860   8.711 -0.7022  0.8469  1.8131
30694SOL    HW295871  10.105   2.983   8.665  0.4158 -0.0848  1.0827
30695SOL     OW95872   4.462   7.062   8.727 -0.3314 -0.4071 -0.1168
30695SOL    HW195873   4.431   7.134   8.782 -0.1073 -0.3237 -0.1014
30695SOL    HW295874   4.422   6.984   8.765 -0.0086 -0.3768  0.2930
30696SOL     OW95875   2.679   9.834   6.099  0.0316  0.5498 -0.4103
30696SOL    HW195876   2.701   9.852   6.191 -1.5639 -0.7020  0.2715
30696SOL    HW295877   2.626   9.909   6.072 -1.8790 -0.3384  0.6388
30697SOL     OW95878   5.541   1.992   3.096 -0.7446 -0.2122 -0.3430
30697SOL    HW195879   5.556   1.901   3.071 -2.6116 -0.7354  0.3304
30697SOL    HW295880   5.582   2.001   3.182 -1.0765 -0.5731 -0.1489
30698SOL     OW95881   4.648   3.348   5.897 -0.0898 -0.0402 -0.4746
30698SOL    HW195882   4.737   3.328   5.923 -0.4222 -2.6081 -1.0045
30698SOL    HW295883   4.600   3.358   5.979  0.3010 -0.6422 -0.1717
30699SOL     OW95884   5.463   3.696   5.701 -0.4908  0.5305  0.0555
30699SOL    HW195885   5.384   3.677   5.751 -0.7256  1.0119 -0.1299
30699SOL    HW295886   5.483   3.614   5.656  1.3201 -0.8181  3.0564
30700SOL     OW95887   8.891   1.920   0.203 -0.9622  0.2616  0.5214
30700SOL    HW195888   8.911   1.842   0.152 -1.9597  0.0275  0.4703
30700SOL    HW295889   8.856   1.982   0.140 -2.8878 -0.2843  0.9916
30701SOL     OW95890   7.948   8.019   6.027  0.5496  0.3218 -0.3313
30701SOL    HW195891   7.883   7.984   6.089  1.0375  0.4698  0.2779
30701SOL    HW295892   8.022   7.959   6.034  0.4678  0.1293 -1.0573
30702SOL     OW95893   2.192   3.135  10.269  0.5078 -0.5678  0.2885
30702SOL    HW195894   2.123   3.122  10.203  0.5559  1.2198 -0.1615
30702SOL    HW295895   2.246   3.057  10.262 -1.5018 -2.0909  0.7273
30703SOL     OW95896   0.051   8.307   9.387 -0.1818  0.1339  0.0281
30703SOL    HW195897   0.013   8.379   9.438 -0.7036 -0.2142  0.1360
30703SOL    HW295898  -0.020   8.281   9.327 -0.8779 -1.9003  1.6392
30704SOL     OW95899   8.408   0.646   6.826  0.0102  0.0546  0.4123
30704SOL    HW195900   8.384   0.634   6.917 -2.5611 -0.5001 -0.2658
30704SOL    HW295901   8.396   0.740   6.810  1.1517  0.2766  0.7985
30705SOL     OW95902   9.323   7.459   4.557  0.1746 -0.3926 -0.1578
30705SOL    HW195903   9.415   7.480   4.574 -0.3927  0.7398  1.7880
30705SOL    HW295904   9.279   7.470   4.642 -1.7840 -0.8157 -1.0513
30706SOL     OW95905   7.623   9.855   0.841  0.1054  0.1056 -0.0846
30706SOL    HW195906   7.544   9.900   0.812 -0.1414  1.2220  2.1408
30706SOL    HW295907   7.694   9.917   0.824  0.5067 -0.7556 -1.7515
30707SOL     OW95908   7.500   9.628   5.695 -0.0845 -0.2902  0.0350
30707SOL    HW195909   7.423   9.655   5.745  0.7437  3.8297 -0.5707
30707SOL    HW295910   7.471   9.628   5.604  0.5672  1.5601 -0.2248
30708SOL     OW95911   8.091   5.518   7.286 -0.5175  0.5487 -0.3410
30708SOL    HW195912   8.081   5.556   7.199  0.3128 -0.9239 -1.1152
30708SOL    HW295913   8.172   5.557   7.320 -0.6225  0.8059 -0.3765
30709SOL     OW95914   6.966   4.443   5.925  0.3500 -0.0000  0.2936
30709SOL    HW195915   6.957   4.367   5.982  0.6418  0.4376  0.9356
30709SOL    HW295916   6.954   4.409   5.837 -0.6678 -0.6039  0.6476
30710SOL     OW95917   9.293   8.358   4.762  0.0829 -0.6668 -0.3696
30710SOL    HW195918   9.246   8.361   4.679 -0.7572  1.0425  0.1265
30710SOL    HW295919   9.368   8.416   4.750 -0.2613 -0.0975  0.1789
30711SOL     OW95920   5.575   5.771   7.611  0.8409 -0.2441 -1.5109
30711SOL    HW195921   5.643   5.717   7.651  1.2885 -0.6311 -2.7739
30711SOL    HW295922   5.613   5.859   7.609 -0.1286  0.3453  1.1370
30712SOL     OW95923   1.137   8.967   8.904  0.4801  0.1894  0.1730
30712SOL    HW195924   1.189   8.887   8.893 -2.2953 -1.4980 -2.1675
30712SOL    HW295925   1.075   8.945   8.974  1.1530  1.2173  1.1287
30713SOL     OW95926   0.201   9.514   7.140 -0.4241 -0.0401 -0.3965
30713SOL    HW195927   0.194   9.570   7.217 -1.5166  0.5546 -0.9109
30713SOL    HW295928   0.277   9.459   7.158 -0.9901 -0.3278  1.3836
30714SOL     OW95929   1.299   4.895   1.302  0.3940  0.2372 -0.7099
30714SOL    HW195930   1.220   4.903   1.249 -0.3947  3.4753  0.6838
30714SOL    HW295931   1.274   4.841   1.376 -0.7781  1.6694 -0.0045
30715SOL     OW95932   9.679   9.463   1.665  0.2117  0.4446  0.0674
30715SOL    HW195933   9.645   9.535   1.718  1.9335  1.3327  0.0425
30715SOL    HW295934   9.688   9.390   1.725  0.0584  0.7779  0.4974
30716SOL     OW95935   4.943   2.528   4.291  0.4523 -0.3644 -0.1155
30716SOL    HW195936   4.928   2.514   4.385  1.2032 -2.2104 -0.2239
30716SOL    HW295937   4.910   2.448   4.250  1.0542 -0.0076 -1.3362
30717SOL     OW95938   4.891   1.943   6.379  0.6105  0.0994 -0.1192
30717SOL    HW195939   4.964   1.889   6.352  1.0707 -0.2468  1.6536
30717SOL    HW295940   4.813   1.891   6.359  1.0114 -0.8526  0.7061
30718SOL     OW95941   1.795   2.390   6.324  0.3518  0.0514 -0.3617
30718SOL    HW195942   1.823   2.379   6.233  0.8894 -1.0853 -0.0723
30718SOL    HW295943   1.725   2.455   6.319  1.8647  1.7183 -1.3224
30719SOL     OW95944   5.805   4.780   2.982  0.4956  0.3618 -0.1531
30719SOL    HW195945   5.814   4.687   3.004 -0.0467 -0.0245 -1.4354
30719SOL    HW295946   5.805   4.781   2.886  1.7706  1.8301 -0.1736
30720SOL     OW95947   8.244   3.031   0.368  0.0846 -0.1617  0.1804
30720SOL    HW195948   8.172   3.005   0.426 -0.9622  0.5086 -0.7792
30720SOL    HW295949   8.314   2.969   0.388 -0.2916 -0.0495  2.0349
30721SOL     OW95950   1.448   7.887   3.086 -0.0853  0.1675 -0.2630
30721SOL    HW195951   1.481   7.914   3.000  0.5079  1.6271  0.3828
30721SOL    HW295952   1.501   7.937   3.148  0.6762 -2.0989  1.0414
30722SOL     OW95953   7.547   2.910   8.331 -0.6250  0.3721  0.2980
30722SOL    HW195954   7.507   2.912   8.244  1.5006 -1.2322 -0.8051
30722SOL    HW295955   7.568   3.002   8.349 -1.7136  0.8175 -0.5475
30723SOL     OW95956   2.661   2.292   9.020 -0.7682  0.0188  0.2771
30723SOL    HW195957   2.582   2.243   8.998  0.4040 -1.7085 -0.3397
30723SOL    HW295958   2.667   2.360   8.953 -2.0529  0.5768  0.7118
30724SOL     OW95959   7.360   7.226   5.456  0.3193  0.0603 -0.2858
30724SOL    HW195960   7.333   7.198   5.368 -0.3745  0.7993 -0.3233
30724SOL    HW295961   7.296   7.185   5.514 -1.2539  2.1482 -0.4053
30725SOL     OW95962   7.980   0.959   1.649 -0.1376  0.2016 -0.0594
30725SOL    HW195963   8.038   1.026   1.686  0.0355  0.6867 -1.1834
30725SOL    HW295964   8.004   0.879   1.696  1.0408  0.5143 -0.0847
30726SOL     OW95965   3.932   4.067   4.626 -0.1469 -0.4422  0.5282
30726SOL    HW195966   3.893   3.993   4.673  1.5499 -0.7211  1.5783
30726SOL    HW295967   3.952   4.033   4.539 -0.8654 -0.7150  0.4621
30727SOL     OW95968   6.244   3.498   2.900 -0.2700 -0.4263 -0.1620
30727SOL    HW195969   6.169   3.440   2.888 -0.2210 -0.4390 -0.4142
30727SOL    HW295970   6.294   3.490   2.819 -0.2688 -0.0229 -0.2078
30728SOL     OW95971   6.205   6.076   2.788 -0.3936  0.2752 -0.0590
30728SOL    HW195972   6.249   6.151   2.748  3.2175  0.1129  3.0157
30728SOL    HW295973   6.265   6.003   2.775 -0.9059 -0.6248  2.1915
30729SOL     OW95974   8.085   9.306   3.648  0.1261  0.0029  0.2792
30729SOL    HW195975   8.101   9.213   3.667  1.3500  0.2252  0.4449
30729SOL    HW295976   8.102   9.315   3.554  0.5561  0.1656  0.3725
30730SOL     OW95977   3.362   8.466   9.360  0.0731  0.3421 -0.6060
30730SOL    HW195978   3.281   8.415   9.360  0.2456  0.0435 -1.5919
30730SOL    HW295979   3.333   8.557   9.349 -0.0834  0.0944 -2.5436
30731SOL     OW95980   1.882   6.600   8.278  0.2832  0.2573 -0.4227
30731SOL    HW195981   1.829   6.537   8.328  0.9788 -0.3078 -0.3786
30731SOL    HW295982   1.892   6.675   8.336 -2.1065  1.2330 -1.1422
30732SOL     OW95983  10.243   5.039   6.941 -0.6821  0.1307 -0.2265
30732SOL    HW195984  10.335   5.064   6.953 -0.8370  0.7838 -0.3137
30732SOL    HW295985  10.218   4.997   7.023  0.4438 -2.5271 -1.1649
30733SOL     OW95986   7.845   0.627   4.694 -0.1148  0.7255 -0.0591
30733SOL    HW195987   7.821   0.652   4.605  0.5050 -0.5222 -0.6055
30733SOL    HW295988   7.921   0.682   4.715  1.5337 -0.8820 -1.4246
30734SOL     OW95989   9.035   7.539   6.584 -0.0384 -0.1162 -0.1482
30734SOL    HW195990   9.035   7.534   6.679 -0.5317  1.2049 -0.0551
30734SOL    HW295991   9.026   7.448   6.555 -2.6725 -0.3654  1.1232
30735SOL     OW95992   6.956   4.314   7.350  0.1490 -0.1089  0.0881
30735SOL    HW195993   6.861   4.316   7.343  0.2271  0.0869 -1.1028
30735SOL    HW295994   6.987   4.303   7.260  1.2730  0.4848  0.3782
30736SOL     OW95995   8.704   5.653   9.078 -0.2332  0.5106  0.4870
30736SOL    HW195996   8.787   5.653   9.126  1.5895 -1.0140 -2.3747
30736SOL    HW295997   8.666   5.568   9.098 -1.9078  1.7126  2.8540
30737SOL     OW95998   1.105   2.007   4.001  0.3064  0.5950  0.2918
30737SOL    HW195999   1.092   2.090   4.046 -0.3410  1.2824 -1.1106
30737SOL    HW296000   1.016   1.976   3.984  0.5465 -0.0581  0.2004
30738SOL     OW96001   0.732   7.711   8.318 -0.2457  0.4272 -0.2379
30738SOL    HW196002   0.799   7.779   8.323 -2.1305  2.5926 -2.0016
30738SOL    HW296003   0.656   7.749   8.362 -0.4341 -1.9261  1.6460
30739SOL     OW96004   5.684   5.413   1.062  0.3576 -0.1368 -0.5095
30739SOL    HW196005   5.607   5.378   1.016 -0.7551  2.0840 -0.4899
30739SOL    HW296006   5.754   5.350   1.043 -1.4067 -2.1975 -0.6017
30740SOL     OW96007   9.951   8.454   9.943 -0.4378 -0.0641 -0.0934
30740SOL    HW196008  10.019   8.399   9.981 -1.0625 -0.8357 -0.0512
30740SOL    HW296009   9.953   8.534   9.996  0.8234  0.1748 -0.4846
30741SOL     OW96010   1.608   8.076   7.705 -0.9049  0.5422  0.3988
30741SOL    HW196011   1.617   8.047   7.795 -1.6595  1.5882  0.8244
30741SOL    HW296012   1.581   8.167   7.711  0.8917  1.2136 -0.8918
30742SOL     OW96013   2.628   2.683   1.811  0.0832  0.0372 -0.2250
30742SOL    HW196014   2.674   2.643   1.738  0.4625 -2.6080  1.3322
30742SOL    HW296015   2.689   2.748   1.846 -0.4680  2.0302 -2.7037
30743SOL     OW96016   8.723   1.492   9.639 -0.1986  0.0554 -0.4890
30743SOL    HW196017   8.647   1.447   9.676 -0.7934  0.2505 -1.4684
30743SOL    HW296018   8.790   1.423   9.634 -0.6335 -0.3713 -0.5790
30744SOL     OW96019   4.175   2.562   5.358 -0.7836  0.1876 -0.5493
30744SOL    HW196020   4.255   2.537   5.406 -1.1847 -2.8834 -1.2961
30744SOL    HW296021   4.202   2.563   5.266 -1.6438 -1.3190 -0.8472
30745SOL     OW96022   9.824   6.478   6.546  0.0878 -0.2725 -0.1676
30745SOL    HW196023   9.873   6.399   6.527 -0.1017 -0.9544  2.0049
30745SOL    HW296024   9.886   6.550   6.530  1.5669 -1.0678  1.7331
30746SOL     OW96025   8.892   2.651   9.162  0.1686  0.2875 -0.5166
30746SOL    HW196026   8.870   2.564   9.127 -3.6164  0.2419  1.4440
30746SOL    HW296027   8.858   2.712   9.097 -3.4116  0.1699  0.9948
30747SOL     OW96028   3.201   9.811   9.193 -0.0008 -0.1561  0.2303
30747SOL    HW196029   3.234   9.823   9.282 -1.5234 -0.4665  0.8719
30747SOL    HW296030   3.136   9.881   9.183  1.4764  1.0878 -1.3589
30748SOL     OW96031   7.583   6.896   9.259 -0.1857  0.4529 -0.1601
30748SOL    HW196032   7.573   6.852   9.174  0.3785  0.4211 -0.2203
30748SOL    HW296033   7.538   6.839   9.321 -0.1736  0.2160 -0.3663
30749SOL     OW96034   7.824   7.959   3.882 -0.0140 -1.0178  0.2114
30749SOL    HW196035   7.909   7.929   3.848  0.6008  0.4624  0.3830
30749SOL    HW296036   7.799   8.032   3.825  0.9389  1.4054  2.6676
30750SOL     OW96037   9.786   3.667   1.458 -0.2041  0.0337  0.5875
30750SOL    HW196038   9.691   3.670   1.455 -0.1683  2.0055 -0.1983
30750SOL    HW296039   9.814   3.743   1.407  1.7929 -0.3498  1.0214
30751SOL     OW96040   5.702   1.174   6.820  0.0236  0.1257 -0.0155
30751SOL    HW196041   5.611   1.196   6.805 -0.2101  0.0242  1.1030
30751SOL    HW296042   5.718   1.200   6.911  0.4603 -1.8215  0.5329
30752SOL     OW96043   2.079   5.365  10.198  0.0620  0.1777  0.5193
30752SOL    HW196044   2.049   5.291  10.250  0.1411 -0.7209 -0.6733
30752SOL    HW296045   2.172   5.374  10.221  0.3140 -0.7590 -0.0544
30753SOL     OW96046   7.329   1.695   4.641 -0.1189  0.0565  0.1844
30753SOL    HW196047   7.358   1.753   4.711  1.5583 -0.9059  0.3458
30753SOL    HW296048   7.377   1.725   4.563 -2.9634  1.9796 -0.9827
30754SOL     OW96049   4.982   0.454   2.361  0.3528  0.3875 -0.1002
30754SOL    HW196050   5.067   0.466   2.404 -0.2243  2.9974  0.4790
30754SOL    HW296051   4.928   0.409   2.426  0.4007  1.5316  0.7567
30755SOL     OW96052   5.347   8.001   9.102  0.5616 -0.2067 -0.5191
30755SOL    HW196053   5.278   7.937   9.115  0.6734  0.0488  1.7935
30755SOL    HW296054   5.333   8.034   9.013 -0.6636 -2.0117 -1.0512
30756SOL     OW96055   6.107   9.538   8.589 -0.1191  0.0855  0.5241
30756SOL    HW196056   6.094   9.516   8.681  0.7319 -0.6581  0.4796
30756SOL    HW296057   6.137   9.629   8.590  0.5952 -0.1500  1.0473
30757SOL     OW96058   5.162   8.044   6.988 -0.0967  0.4917  0.1119
30757SOL    HW196059   5.080   8.063   6.941 -0.1217  1.0956  0.3901
30757SOL    HW296060   5.154   8.091   7.070  0.0947 -0.2943  0.5881
30758SOL     OW96061   9.568   9.889   3.318  0.0889  0.3296  0.2896
30758SOL    HW196062   9.472   9.893   3.320  0.1013  1.3822 -0.4626
30758SOL    HW296063   9.589   9.859   3.230  0.4566  0.0480  0.4715
30759SOL     OW96064   9.889   0.384   5.204  0.2013  0.0124  0.2445
30759SOL    HW196065   9.860   0.467   5.167 -0.0648 -0.3163 -0.3025
30759SOL    HW296066   9.979   0.400   5.233  1.1820 -0.2598 -2.4003
30760SOL     OW96067   1.031   2.098   1.307 -0.8540  0.0509 -0.5922
30760SOL    HW196068   1.123   2.123   1.302 -0.7739 -0.0715  0.2012
30760SOL    HW296069   1.032   2.004   1.328 -1.1488  0.3483  0.8294
30761SOL     OW96070   4.521  10.108   4.498 -0.5371  0.5697 -0.1889
30761SOL    HW196071   4.435  10.138   4.525 -0.7710 -1.5639  1.7832
30761SOL    HW296072   4.545  10.165   4.425 -3.9824  0.6514 -1.4349
30762SOL     OW96073   8.900   2.497   5.914  0.8539 -0.2144  0.3176
30762SOL    HW196074   8.976   2.516   5.860  0.9046  1.5705  0.9548
30762SOL    HW296075   8.917   2.541   5.997 -0.0086 -1.4280  1.1931
30763SOL     OW96076   8.713   9.958   9.596  0.9705 -0.1211 -0.3294
30763SOL    HW196077   8.642   9.893   9.592  1.1606 -0.3161 -0.6270
30763SOL    HW296078   8.683  10.023   9.659 -0.1550  0.6096 -1.5771
30764SOL     OW96079   5.931   6.304   4.032  0.0928  1.0742  0.2267
30764SOL    HW196080   5.883   6.229   3.999 -1.8342  2.2660  0.2136
30764SOL    HW296081   6.016   6.298   3.988  0.3148 -1.4922  0.8085
30765SOL     OW96082   5.311   3.106   5.804 -0.0045 -0.0603 -0.0651
30765SOL    HW196083   5.400   3.138   5.788  0.1520 -0.7353 -0.6128
30765SOL    HW296084   5.254   3.170   5.763  0.2651 -0.0183 -0.3755
30766SOL     OW96085   5.931   3.655   4.123 -0.6972  0.2768 -0.3307
30766SOL    HW196086   5.924   3.560   4.109 -0.0278  0.1011  0.4417
30766SOL    HW296087   5.909   3.666   4.216 -0.1307  0.8076 -0.2582
30767SOL     OW96088   2.433   8.833   6.450  0.3028 -0.3302 -0.3155
30767SOL    HW196089   2.486   8.892   6.396  0.0465 -0.5407 -0.8021
30767SOL    HW296090   2.400   8.888   6.521  1.9610 -0.4041  0.5503
30768SOL     OW96091   9.230   4.338   4.223  0.0204 -0.0506 -0.1630
30768SOL    HW196092   9.245   4.314   4.131  1.8465  0.7375 -0.1210
30768SOL    HW296093   9.306   4.302   4.269 -0.7368 -0.1860  1.0004
30769SOL     OW96094   9.187   9.225   3.875 -0.5562 -0.5611 -0.0900
30769SOL    HW196095   9.118   9.287   3.897 -0.4170 -1.1417  2.1559
30769SOL    HW296096   9.266   9.263   3.914  0.0830 -0.7714 -1.1364
30770SOL     OW96097   8.157   8.348   5.417 -0.6459  0.3263  0.1967
30770SOL    HW196098   8.136   8.332   5.509 -2.4507 -1.5457 -0.4660
30770SOL    HW296099   8.073   8.345   5.372  0.1827  1.3526 -1.5350
30771SOL     OW96100   5.454   8.982   8.724  0.1733 -0.2957  0.2179
30771SOL    HW196101   5.397   9.053   8.753  1.1054  0.4839  0.1967
30771SOL    HW296102   5.534   9.026   8.695  1.5739 -1.4416  2.0828
30772SOL     OW96103   9.259   8.724   9.820  0.1015 -0.4715  0.0400
30772SOL    HW196104   9.250   8.794   9.756 -0.5982  0.6416  1.2837
30772SOL    HW296105   9.353   8.711   9.829  0.2613  0.5758  0.0336
30773SOL     OW96106   5.306   3.693   2.515 -0.1544 -0.3346 -0.1909
30773SOL    HW196107   5.288   3.600   2.499  0.6995 -0.5093 -0.1619
30773SOL    HW296108   5.400   3.698   2.528 -0.2377  0.4849  0.1976
30774SOL     OW96109   4.300   5.614   6.120  0.0289  0.2775 -0.1409
30774SOL    HW196110   4.327   5.566   6.198 -1.5265 -0.6536 -0.1237
30774SOL    HW296111   4.255   5.692   6.154  2.6150  1.8875 -0.1687
30775SOL     OW96112   6.894   6.667   9.472  0.0626  0.5816 -0.5664
30775SOL    HW196113   6.813   6.714   9.451  0.5540  3.0527  2.2653
30775SOL    HW296114   6.947   6.672   9.393 -1.8873  0.3190 -1.9572
30776SOL     OW96115   4.111   9.062   7.986 -0.3474  0.5006  0.3271
30776SOL    HW196116   4.031   9.020   8.015 -0.1382 -0.0042  0.1982
30776SOL    HW296117   4.167   8.989   7.957  0.3808  0.7910  0.9596
30777SOL     OW96118   7.004   3.239   9.715  0.1144  0.6109 -0.0718
30777SOL    HW196119   7.043   3.322   9.688  1.2891  0.5979  1.4334
30777SOL    HW296120   6.922   3.233   9.666  1.2266  1.4227 -2.1580
30778SOL     OW96121   7.010   7.483   6.185 -0.2910 -0.4387 -0.2651
30778SOL    HW196122   6.927   7.519   6.154 -0.0188  0.3115 -0.1428
30778SOL    HW296123   6.996   7.389   6.188 -1.0426 -0.3388 -0.5276
30779SOL     OW96124   6.189   0.191   1.857  0.5744  0.1570 -0.7424
30779SOL    HW196125   6.112   0.246   1.842 -0.0621  0.1717  2.1390
30779SOL    HW296126   6.168   0.109   1.813  0.3121  1.1701 -2.6474
30780SOL     OW96127   9.689   9.914   7.857 -0.1117  0.1105 -0.1978
30780SOL    HW196128   9.680   9.882   7.767  1.6255  1.5638 -0.9631
30780SOL    HW296129   9.748   9.851   7.899 -1.9324 -1.3022  0.3960
30781SOL     OW96130  10.090   2.908   4.658 -0.5263  0.2998 -0.0460
30781SOL    HW196131  10.160   2.861   4.613 -0.1822 -1.4470  2.1547
30781SOL    HW296132  10.016   2.903   4.598  0.1337 -1.2461 -0.7986
30782SOL     OW96133   2.077   3.616   0.151 -0.1306  0.4567  0.5347
30782SOL    HW196134   2.018   3.689   0.133  0.8897  1.7952  2.2983
30782SOL    HW296135   2.136   3.613   0.076 -1.8121 -0.3392 -0.8319
30783SOL     OW96136   1.282   4.425   5.998  0.4499 -0.4494  0.2453
30783SOL    HW196137   1.307   4.386   5.915 -0.4973  0.1086 -0.3187
30783SOL    HW296138   1.218   4.364   6.035  0.7045 -0.5853  0.4666
30784SOL     OW96139   3.147   9.727   8.933  0.4178 -0.4021  0.3575
30784SOL    HW196140   3.174   9.765   9.017 -1.0811  0.5150  0.4633
30784SOL    HW296141   3.163   9.633   8.943  1.9113 -0.1075  0.9979
30785SOL     OW96142   4.164   6.981   4.120  0.2708  0.0053  0.0815
30785SOL    HW196143   4.158   6.903   4.065  1.6414 -1.0521  1.3460
30785SOL    HW296144   4.227   7.037   4.076 -0.5264  0.3276 -0.6965
30786SOL     OW96145   8.190   2.159   8.801  0.2002 -0.3131 -0.2748
30786SOL    HW196146   8.170   2.209   8.880 -1.1789 -0.1769 -0.6918
30786SOL    HW296147   8.209   2.226   8.735 -1.4757 -0.3119 -0.7875
30787SOL     OW96148   8.981   7.446   3.099 -0.3138  0.1465  0.3122
30787SOL    HW196149   8.955   7.392   3.174 -1.3279  0.0072 -0.1230
30787SOL    HW296150   9.056   7.497   3.131  0.2413 -1.0069  0.9497
30788SOL     OW96151   7.365   3.065   5.711  0.4763  0.6060  0.3446
30788SOL    HW196152   7.338   2.979   5.680  3.1920 -0.6496  1.1069
30788SOL    HW296153   7.374   3.118   5.632 -0.2765 -0.0947 -0.2306
30789SOL     OW96154   7.098   4.692   2.241  0.3607 -0.1819  0.0418
30789SOL    HW196155   7.053   4.726   2.164  0.3369 -1.0434 -0.3274
30789SOL    HW296156   7.191   4.703   2.222  0.3561 -0.4514 -0.1379
30790SOL     OW96157   7.703   6.489   5.837 -0.1694 -0.1328  0.4330
30790SOL    HW196158   7.753   6.567   5.814 -0.9708  0.1697 -0.3618
30790SOL    HW296159   7.741   6.459   5.920 -1.5168  2.6593  2.2408
30791SOL     OW96160   4.377   3.731   5.119  0.6767 -0.0700  0.0897
30791SOL    HW196161   4.425   3.809   5.090 -0.0363 -0.7632 -3.4874
30791SOL    HW296162   4.387   3.669   5.046 -1.6427 -2.0194  1.3028
30792SOL     OW96163   2.901   5.133   9.177 -0.1698  0.0637  0.2978
30792SOL    HW196164   2.851   5.196   9.125 -0.4826 -0.1880  0.2885
30792SOL    HW296165   2.989   5.136   9.140 -0.6770 -1.0271 -1.1068
30793SOL     OW96166   9.893   4.453   7.539 -0.0708 -0.0514 -0.0163
30793SOL    HW196167   9.939   4.537   7.532  2.4308 -1.4001 -1.1942
30793SOL    HW296168   9.805   4.471   7.507  1.2166  1.5782 -3.0744
30794SOL     OW96169   5.771   8.114   8.147 -0.1207  0.0374 -0.0902
30794SOL    HW196170   5.743   8.176   8.213  1.2288 -0.5820  1.1279
30794SOL    HW296171   5.847   8.155   8.106 -0.6052  0.1676 -0.8896
30795SOL     OW96172   2.604   3.010   2.068 -0.0212  0.2216  0.0380
30795SOL    HW196173   2.530   2.980   2.014  0.5652 -1.0403 -0.1026
30795SOL    HW296174   2.642   3.082   2.018 -0.9946  0.7329 -0.0021
30796SOL     OW96175   7.537   6.721   7.857 -0.2288 -0.4387 -0.0645
30796SOL    HW196176   7.619   6.677   7.878  0.9447  2.3651  1.8371
30796SOL    HW296177   7.553   6.763   7.772  0.1319 -0.3141  0.0643
30797SOL     OW96178   6.270   2.192   4.714 -0.5735 -0.4311 -0.1499
30797SOL    HW196179   6.353   2.149   4.734  0.3207  0.9105 -0.8654
30797SOL    HW296180   6.265   2.193   4.619 -0.5151  1.0997 -0.1681
30798SOL     OW96181   4.479   5.943   7.937  0.0821  0.1735  0.2266
30798SOL    HW196182   4.467   6.036   7.919 -1.1391 -0.1206 -0.6434
30798SOL    HW296183   4.506   5.906   7.853  0.6550 -0.2412  0.5895
30799SOL     OW96184   6.912   4.707   8.628  0.3519 -1.1671 -0.2864
30799SOL    HW196185   6.820   4.688   8.647  0.1471  0.2679  0.2895
30799SOL    HW296186   6.961   4.644   8.681 -0.2339  1.5417  3.9920
30800SOL     OW96187   7.227   5.389   3.732  0.4008  0.7109  0.6744
30800SOL    HW196188   7.211   5.330   3.805  0.4934 -0.1974 -0.0272
30800SOL    HW296189   7.201   5.475   3.765 -0.4864  0.1650  1.4467
30801SOL     OW96190   1.608   3.923   1.057  0.5461 -0.7255  0.5662
30801SOL    HW196191   1.702   3.927   1.041  0.4129 -1.6327 -0.5967
30801SOL    HW296192   1.568   3.968   0.983  0.0556 -0.6867  0.8477
30802SOL     OW96193   0.559   8.547   0.544  0.4530  0.1213  0.1574
30802SOL    HW196194   0.561   8.452   0.531  0.3165  0.0358  0.7174
30802SOL    HW296195   0.490   8.561   0.610  1.2420  0.5024  0.9262
30803SOL     OW96196   1.347   8.442  10.321  0.0516 -0.3008 -0.0611
30803SOL    HW196197   1.378   8.383  10.389 -1.2561 -1.8732 -0.7578
30803SOL    HW296198   1.302   8.385  10.258 -1.7982  1.4724 -0.4767
30804SOL     OW96199   7.088   4.536   0.361  0.5084 -0.3611 -0.5550
30804SOL    HW196200   7.176   4.507   0.337  0.1287 -0.9301 -1.3028
30804SOL    HW296201   7.031   4.465   0.330 -0.2044 -0.0260 -0.0215
30805SOL     OW96202   8.133   5.894   7.032 -0.0994 -0.5992 -0.2878
30805SOL    HW196203   8.201   5.894   7.099 -0.2978 -0.2092 -0.0806
30805SOL    HW296204   8.097   5.806   7.034  1.8241 -1.4934 -1.8746
30806SOL     OW96205   4.938  10.135   1.784 -0.4924 -0.6650  0.4159
30806SOL    HW196206   5.004  10.205   1.789 -0.6975 -0.5131  1.0587
30806SOL    HW296207   4.931  10.116   1.690 -0.1527 -0.0918  0.2672
30807SOL     OW96208   9.718   6.700   7.421  0.0334 -0.4247 -0.1705
30807SOL    HW196209   9.713   6.772   7.357 -3.0717 -0.2770  0.1077
30807SOL    HW296210   9.786   6.729   7.483  1.0396  0.7840 -1.7317
30808SOL     OW96211   0.787   7.921   2.897  0.3287 -0.1023  0.5288
30808SOL    HW196212   0.722   7.903   2.964  0.8798 -0.0544  1.0856
30808SOL    HW296213   0.827   8.004   2.923 -0.5219  0.7184 -0.7062
30809SOL     OW96214   4.125   8.585   0.554 -0.3918  0.2381  0.4513
30809SOL    HW196215   4.152   8.603   0.644 -2.0718  0.3639  0.9661
30809SOL    HW296216   4.095   8.669   0.520  0.5986  0.2685 -0.3673
30810SOL     OW96217   0.297   3.358   0.964 -0.1378  0.0693 -0.3658
30810SOL    HW196218   0.252   3.431   1.005 -1.7463 -0.7253 -0.6329
30810SOL    HW296219   0.348   3.397   0.893 -0.8745  0.9613 -0.4207
30811SOL     OW96220   2.895   5.968   5.804 -0.1675 -0.0728  0.1391
30811SOL    HW196221   2.932   6.056   5.806 -1.0399  0.2919  1.0359
30811SOL    HW296222   2.819   5.976   5.745  1.1664 -0.8477 -1.8140
30812SOL     OW96223   4.559   3.122   0.395 -0.1182  0.5202  0.0812
30812SOL    HW196224   4.511   3.131   0.477  0.9333  1.1129  0.6553
30812SOL    HW296225   4.511   3.054   0.346 -0.6560  0.0367  1.2451
30813SOL     OW96226   3.501   3.730   3.609  0.6057 -0.2608 -0.3319
30813SOL    HW196227   3.597   3.725   3.613  0.4979 -2.0051  1.8006
30813SOL    HW296228   3.480   3.814   3.648  1.2263 -0.6020  0.7704
30814SOL     OW96229   2.720  10.129   0.092  0.3447  0.0068  0.7336
30814SOL    HW196230   2.628  10.133   0.066  0.2279 -1.4441  0.8402
30814SOL    HW296231   2.769  10.150   0.013 -0.0704  0.6453  0.6407
30815SOL     OW96232   0.056   0.219   7.456  0.0217 -0.3327 -0.7842
30815SOL    HW196233   0.104   0.145   7.418 -0.2504 -1.2850  0.6235
30815SOL    HW296234  -0.001   0.250   7.386  0.2847 -1.3506 -1.4637
30816SOL     OW96235   7.594   0.116   9.687  0.3725 -0.1622 -0.1038
30816SOL    HW196236   7.624   0.106   9.597 -0.3041 -1.1211 -0.2360
30816SOL    HW296237   7.532   0.189   9.684  1.7968  1.1089 -0.0270
30817SOL     OW96238   5.820   3.293   0.387 -0.4655 -0.0987 -0.2580
30817SOL    HW196239   5.821   3.377   0.341  1.7701  0.9534  1.4871
30817SOL    HW296240   5.730   3.283   0.417 -1.1943  0.7483 -2.0276
30818SOL     OW96241   5.206   5.440   5.483  0.2081 -0.4288  0.1087
30818SOL    HW196242   5.207   5.504   5.554  2.4183 -0.4362  0.1402
30818SOL    HW296243   5.161   5.364   5.520  0.6596 -0.1559  1.2480
30819SOL     OW96244   5.268   1.618   3.952  0.0530  0.1461  0.2840
30819SOL    HW196245   5.206   1.554   3.917 -0.4827  1.0397 -0.4345
30819SOL    HW296246   5.261   1.607   4.047 -0.8189 -0.1387  0.2023
30820SOL     OW96247   8.356   0.329   4.064 -0.2040 -0.3730 -0.2540
30820SOL    HW196248   8.416   0.342   4.138  0.0705 -0.6829 -0.4249
30820SOL    HW296249   8.276   0.294   4.105 -0.6513  1.0155  0.1054
30821SOL     OW96250   3.017   8.379   1.666  0.1663  0.2065 -0.7029
30821SOL    HW196251   3.048   8.403   1.753 -0.8920  0.0223 -0.2694
30821SOL    HW296252   3.083   8.317   1.633 -0.9458 -2.1254  1.1784
30822SOL     OW96253   0.165   5.122   1.974 -0.2776 -0.5183  0.2333
30822SOL    HW196254   0.215   5.202   1.959 -1.2583 -0.0724 -0.8731
30822SOL    HW296255   0.087   5.151   2.022 -0.9866 -0.6600 -0.7899
30823SOL     OW96256   0.203   1.321   8.914 -0.2957 -0.0970  0.5840
30823SOL    HW196257   0.188   1.374   8.836 -3.2759  0.4503  1.3777
30823SOL    HW296258   0.184   1.232   8.886 -1.7017  0.1387  0.6806
30824SOL     OW96259   4.075   2.048   9.553 -0.1342  0.1570 -0.5716
30824SOL    HW196260   4.138   2.060   9.624 -0.6809  0.7308 -0.1676
30824SOL    HW296261   4.006   1.993   9.592 -1.3253  1.9172 -0.0542
30825SOL     OW96262   6.137   2.118   8.787  0.5982 -0.3538  0.7327
30825SOL    HW196263   6.161   2.069   8.865 -1.8368 -2.3957  0.3327
30825SOL    HW296264   6.078   2.060   8.738 -0.0871  1.8470 -1.3112
30826SOL     OW96265   4.843   6.253   4.340 -0.4043  0.7396 -0.4231
30826SOL    HW196266   4.859   6.213   4.255  0.5068 -0.1582  0.1470
30826SOL    HW296267   4.748   6.263   4.345 -0.4546  0.9087 -1.5825
30827SOL     OW96268   4.165   8.738   8.083  0.2952  0.1323  0.1538
30827SOL    HW196269   4.070   8.728   8.071 -0.2433  3.6513  0.4133
30827SOL    HW296270   4.197   8.769   7.998  1.6768 -2.8008 -0.5325
30828SOL     OW96271   4.563  10.059   7.989  0.0222  0.0942 -0.0523
30828SOL    HW196272   4.470  10.080   7.982  0.5059  2.4296 -0.2183
30828SOL    HW296273   4.590  10.042   7.898 -0.0867  0.1074 -0.0876
30829SOL     OW96274   9.464   7.680   8.386  0.5984 -0.2918  0.0437
30829SOL    HW196275   9.489   7.707   8.474  1.1782 -1.8631  0.3763
30829SOL    HW296276   9.547   7.666   8.340  0.3007 -0.2069 -0.5382
30830SOL     OW96277   1.064   0.153   5.251 -0.5011 -0.1149  0.2231
30830SOL    HW196278   1.050   0.173   5.159  0.8361  0.6183  0.1501
30830SOL    HW296279   1.092   0.236   5.290  0.6207 -0.7756  0.9099
30831SOL     OW96280   0.099   2.850   3.300 -0.6997  0.1221  0.2820
30831SOL    HW196281   0.183   2.888   3.327 -1.0221  2.7965 -1.9717
30831SOL    HW296282   0.123   2.786   3.232 -0.4359  0.7365 -0.2169
30832SOL     OW96283   2.976   4.016   6.774 -0.5782  0.0925 -0.6920
30832SOL    HW196284   2.902   3.999   6.831  1.2309 -0.5101  1.6328
30832SOL    HW296285   2.963   4.105   6.743 -3.2523 -0.6470 -2.0412
30833SOL     OW96286   1.632   5.631   7.716 -0.2044  0.7836  0.0017
30833SOL    HW196287   1.696   5.635   7.645 -0.5483  0.4529 -0.3351
30833SOL    HW296288   1.662   5.696   7.779  0.7806  0.2294  0.1236
30834SOL     OW96289   5.281   2.396   8.939 -0.7751  0.1208 -0.0257
30834SOL    HW196290   5.298   2.482   8.900 -1.0723 -0.0467 -0.5382
30834SOL    HW296291   5.311   2.334   8.872 -1.2261 -0.1754  0.0449
30835SOL     OW96292   1.782   8.469   1.603  0.1580  0.2730  0.2714
30835SOL    HW196293   1.845   8.527   1.559  0.9610 -0.4263  0.4846
30835SOL    HW296294   1.835   8.409   1.654 -0.7262  0.5558  1.6062
30836SOL     OW96295   6.688   7.914  10.152 -0.2693  0.2723  0.1572
30836SOL    HW196296   6.727   7.996  10.180  0.3042 -0.1103  0.4899
30836SOL    HW296297   6.664   7.929  10.060 -0.0598  0.7685  0.1800
30837SOL     OW96298   7.235   3.618   5.947 -0.5301 -0.2775 -0.3271
30837SOL    HW196299   7.268   3.548   5.890 -4.0254 -1.7679 -0.7777
30837SOL    HW296300   7.248   3.586   6.036  0.9787  0.0799 -0.4053
30838SOL     OW96301   5.968   2.412   1.434  0.3941 -0.1646  0.0194
30838SOL    HW196302   5.882   2.384   1.467  0.0651  0.6084 -0.1600
30838SOL    HW296303   6.014   2.330   1.415 -0.6714 -0.5899 -0.8366
30839SOL     OW96304   3.172   2.074   2.706  0.1081  0.4195 -0.0066
30839SOL    HW196305   3.153   1.993   2.660 -0.7811 -0.5239  1.8922
30839SOL    HW296306   3.219   2.046   2.785  2.6828  2.0557 -0.8483
30840SOL     OW96307   1.976   9.304   8.217 -0.3070 -0.3438 -0.1279
30840SOL    HW196308   1.921   9.235   8.181 -1.1509  0.2277  0.0317
30840SOL    HW296309   1.923   9.343   8.287  0.4271  0.0113  0.2377
30841SOL     OW96310   4.980   6.390   5.886  0.7227 -0.3870 -0.1198
30841SOL    HW196311   4.997   6.423   5.974  0.4526 -2.0037  0.5780
30841SOL    HW296312   5.017   6.456   5.828 -0.1549  1.2926  1.1713
30842SOL     OW96313   3.275   5.446   1.469 -0.3650  0.1300 -0.3312
30842SOL    HW196314   3.367   5.434   1.444 -0.2605 -0.2286  0.1968
30842SOL    HW296315   3.265   5.393   1.548 -0.6513  1.2740  0.4359
30843SOL     OW96316   6.002   0.822   1.407 -0.2727  0.3969  0.1699
30843SOL    HW196317   6.016   0.730   1.387 -0.7795  0.2509  0.4881
30843SOL    HW296318   6.082   0.866   1.376 -0.3730 -0.0381 -0.7228
30844SOL     OW96319   1.385   1.770   4.422  0.2094 -0.7828  0.3797
30844SOL    HW196320   1.343   1.779   4.507  1.2623  2.0150  0.7139
30844SOL    HW296321   1.477   1.757   4.442  0.8061  1.8979 -0.2069
30845SOL     OW96322   5.359   2.202   7.259  0.5398 -0.1566 -0.5959
30845SOL    HW196323   5.313   2.121   7.237  0.7111 -0.2858 -0.4771
30845SOL    HW296324   5.291   2.269   7.256  0.2247 -0.4300  0.1503
30846SOL     OW96325  10.302   1.340   3.659  0.4131  0.2115  0.1210
30846SOL    HW196326  10.349   1.423   3.655 -0.2961  0.5903 -0.5884
30846SOL    HW296327  10.368   1.274   3.639  0.5852  0.7631 -1.2718
30847SOL     OW96328   4.051   0.784   8.750  0.1198  0.0658  0.4513
30847SOL    HW196329   4.047   0.872   8.787  2.4090 -0.2254  1.5757
30847SOL    HW296330   4.114   0.790   8.679  0.0657 -0.6167  0.3339
30848SOL     OW96331   6.587   0.990   1.246 -0.1303 -0.0493  0.1495
30848SOL    HW196332   6.608   1.055   1.313  0.3261 -0.6858  0.6439
30848SOL    HW296333   6.538   0.922   1.294 -0.9772  0.1292 -0.4412
30849SOL     OW96334   5.856   8.533   9.066  0.0558  0.5415  0.3452
30849SOL    HW196335   5.816   8.451   9.038 -1.7044  0.9296  1.5452
30849SOL    HW296336   5.931   8.506   9.120 -0.1741 -0.2745  0.2718
30850SOL     OW96337   1.692   1.799   3.522  0.3281 -0.7010 -0.3541
30850SOL    HW196338   1.701   1.784   3.428  0.4293 -2.0582 -0.1594
30850SOL    HW296339   1.780   1.788   3.557  0.2032 -0.7456 -0.0468
30851SOL     OW96340   7.322   6.693   3.659 -0.4701 -0.3435  0.0944
30851SOL    HW196341   7.340   6.754   3.587 -0.6869 -0.3922 -0.0029
30851SOL    HW296342   7.391   6.710   3.723 -1.5913  1.3367  0.9323
30852SOL     OW96343   0.532  10.344   3.637  0.7543 -0.4919 -0.2010
30852SOL    HW196344   0.534  10.364   3.730  0.4862  3.6705 -0.9016
30852SOL    HW296345   0.624  10.329   3.613  1.5923  3.3614  0.0195
30853SOL     OW96346   0.674   6.526   7.933 -0.5105  0.3800 -0.4451
30853SOL    HW196347   0.672   6.620   7.947 -1.1748  0.4418 -0.9265
30853SOL    HW296348   0.748   6.512   7.874  0.6438  0.4033  0.9398
30854SOL     OW96349   2.962   5.946  10.077  0.1633  0.0727  0.1094
30854SOL    HW196350   2.897   5.995  10.026  0.4572  0.8201  0.4348
30854SOL    HW296351   2.910   5.891  10.135 -0.1752 -0.4000 -0.6337
30855SOL     OW96352   8.599   5.752   9.817  0.3705  0.7905  0.7716
30855SOL    HW196353   8.525   5.808   9.838  1.3396  1.7902  1.6618
30855SOL    HW296354   8.631   5.785   9.733 -0.2704  0.2572  0.3103
30856SOL     OW96355   1.649  10.138   3.352 -0.8028  0.1650 -0.3462
30856SOL    HW196356   1.742  10.115   3.352 -1.2623 -2.0836  1.5246
30856SOL    HW296357   1.618  10.113   3.265 -0.0094 -0.8646 -0.3525
30857SOL     OW96358  10.046   2.932   6.915  0.1837  0.4947  0.4399
30857SOL    HW196359  10.133   2.917   6.879  0.2569 -0.8196  1.1220
30857SOL    HW296360  10.003   2.846   6.914 -0.9080  1.0125  0.6238
30858SOL     OW96361   5.889   4.086   0.944  0.0322 -0.8009 -0.1753
30858SOL    HW196362   5.907   3.998   0.976 -1.0481 -0.7983  0.4998
30858SOL    HW296363   5.863   4.135   1.023 -0.3244 -0.1493 -0.6914
30859SOL     OW96364   0.705   4.031   2.324 -0.2365 -0.0421 -0.1376
30859SOL    HW196365   0.743   4.086   2.392 -2.0576  0.6034  0.4224
30859SOL    HW296366   0.677   3.952   2.369  0.5165 -0.5621 -0.5619
30860SOL     OW96367   5.427   8.496   1.522 -0.3916 -0.0107 -0.2510
30860SOL    HW196368   5.468   8.465   1.441 -1.9721 -0.9754 -0.7153
30860SOL    HW296369   5.336   8.468   1.515 -0.2157 -1.6662  2.6379
30861SOL     OW96370   4.429   0.341   2.742  0.5124 -0.1968 -0.4910
30861SOL    HW196371   4.344   0.373   2.773  0.1971 -0.7720 -0.7441
30861SOL    HW296372   4.437   0.254   2.781  0.3767 -0.6916 -1.5128
30862SOL     OW96373   0.349   8.683   7.446  0.4663  0.0933  0.1905
30862SOL    HW196374   0.322   8.682   7.538  0.7769 -0.3747  0.2805
30862SOL    HW296375   0.437   8.645   7.446  0.9257  1.1288 -0.1660
30863SOL     OW96376   4.669   7.510   2.864 -0.2579 -0.2618 -0.4196
30863SOL    HW196377   4.666   7.417   2.888 -3.2669 -0.7514 -2.1662
30863SOL    HW296378   4.580   7.542   2.881  0.6019  2.2667 -0.2018
30864SOL     OW96379  10.013   0.138   4.408  0.3191  0.2151  0.0957
30864SOL    HW196380  10.104   0.115   4.427  0.4852  0.7826  0.0012
30864SOL    HW296381   9.974   0.056   4.377  0.0817 -0.6896  2.5882
30865SOL     OW96382   9.431   2.334   3.518  0.1649 -0.3853  0.6495
30865SOL    HW196383   9.517   2.377   3.526  0.1220  0.0672 -1.0220
30865SOL    HW296384   9.451   2.241   3.511  0.4151 -0.4229  1.7028
30866SOL     OW96385   9.347   4.821   2.004 -0.1663  0.6613  0.4444
30866SOL    HW196386   9.317   4.737   1.969  3.3467 -0.0490 -1.3113
30866SOL    HW296387   9.287   4.886   1.966 -2.1925 -0.8840  0.8478
30867SOL     OW96388   1.553   0.114   2.204 -0.2768 -0.0043 -0.2595
30867SOL    HW196389   1.473   0.112   2.152 -0.4596 -1.3390  0.0262
30867SOL    HW296390   1.523   0.124   2.294 -0.0411  0.7931 -0.2608
30868SOL     OW96391   8.833   3.524   0.834 -0.0875 -0.5046 -0.9705
30868SOL    HW196392   8.844   3.610   0.795  1.0421 -0.5141 -0.7107
30868SOL    HW296393   8.895   3.468   0.787  1.5960 -0.4318  1.0440
30869SOL     OW96394   1.025   4.650   5.952 -0.2631 -0.0922  0.3144
30869SOL    HW196395   0.970   4.669   6.028  0.7200 -1.8785  1.5753
30869SOL    HW296396   1.019   4.555   5.942  0.4523 -0.0070 -1.2278
30870SOL     OW96397  10.162   8.175   4.455 -0.6123  0.5617  0.5179
30870SOL    HW196398  10.131   8.091   4.422 -0.7744  0.5946  0.5832
30870SOL    HW296399  10.104   8.240   4.414  0.6088  0.7995 -0.9282
30871SOL     OW96400   4.036   2.895   1.685  0.1953  0.1949  0.4508
30871SOL    HW196401   4.057   2.977   1.640  0.2327  0.4240  0.8822
30871SOL    HW296402   4.115   2.842   1.676  1.0872  1.1371  2.2606
30872SOL     OW96403   1.949   8.437   9.258 -0.1528  0.1505 -0.1939
30872SOL    HW196404   1.931   8.343   9.261  0.6248  0.0115  0.4753
30872SOL    HW296405   1.977   8.453   9.168 -1.0393 -0.1040 -0.5276
30873SOL     OW96406   1.136   4.370   4.581  0.3580 -0.0628 -0.4351
30873SOL    HW196407   1.146   4.277   4.561  0.0372 -0.1342 -0.2733
30873SOL    HW296408   1.217   4.394   4.625  1.0686  0.0918 -1.7898
30874SOL     OW96409   0.364   5.761   0.686  0.0558 -0.0735  0.2514
30874SOL    HW196410   0.412   5.746   0.604  0.8501  0.1194  0.6687
30874SOL    HW296411   0.335   5.851   0.681  1.6720  0.5292  0.9455
30875SOL     OW96412   7.883   6.004   9.812  0.3187  0.2427 -0.1980
30875SOL    HW196413   7.844   6.086   9.842 -0.6878  0.5148 -2.0505
30875SOL    HW296414   7.959   6.032   9.760 -0.7891  0.1342 -1.9462
30876SOL     OW96415   5.437   9.366   7.459  0.2263 -0.8412  0.0008
30876SOL    HW196416   5.483   9.417   7.527 -0.9612  0.1208  0.1123
30876SOL    HW296417   5.475   9.279   7.466  1.4945 -0.2784  0.5992
30877SOL     OW96418   9.987   4.174   6.050  0.1420 -0.1855 -0.0450
30877SOL    HW196419  10.008   4.103   5.990  0.2548 -0.7847  0.6869
30877SOL    HW296420   9.892   4.181   6.048  0.0093 -1.3910  1.0173
30878SOL     OW96421   3.952   3.767   7.753 -0.3803  0.2661 -0.0671
30878SOL    HW196422   4.009   3.833   7.793 -0.5871  0.2958  0.1819
30878SOL    HW296423   3.969   3.688   7.804  1.0601 -0.3128 -1.3654
30879SOL     OW96424   6.325   9.150   1.135 -0.3759  0.0341  0.0023
30879SOL    HW196425   6.354   9.103   1.057 -0.0667 -0.8152  0.6041
30879SOL    HW296426   6.306   9.081   1.198  1.0201  0.7220  1.2447
30880SOL     OW96427   7.004   3.420   3.452 -0.3309 -0.6459 -0.2360
30880SOL    HW196428   6.950   3.494   3.479  1.2427  1.0596 -1.5151
30880SOL    HW296429   7.034   3.380   3.534 -0.1682  0.9302  0.4952
30881SOL     OW96430   7.378   8.554   1.625  0.4254 -0.6719 -0.3045
30881SOL    HW196431   7.340   8.627   1.674 -0.1835 -1.6819  0.7778
30881SOL    HW296432   7.453   8.592   1.579  0.7718  0.4124  1.0975
30882SOL     OW96433   4.567   8.310   9.261 -0.2273 -0.2238  0.4003
30882SOL    HW196434   4.504   8.271   9.322 -1.1392  0.5449 -0.0310
30882SOL    HW296435   4.599   8.388   9.307 -0.4347  0.0046  0.1567
30883SOL     OW96436   7.801   4.695   9.659 -0.1885 -0.1656 -0.8962
30883SOL    HW196437   7.880   4.747   9.674 -1.4225  0.9598  2.9078
30883SOL    HW296438   7.814   4.616   9.712 -1.5693  0.0937 -0.1120
30884SOL     OW96439   0.491   4.726   0.847  0.3690  0.4773  0.5327
30884SOL    HW196440   0.554   4.674   0.897 -0.0670  1.4374  2.1519
30884SOL    HW296441   0.542   4.801   0.816  0.3666  0.5001  0.5835
30885SOL     OW96442   7.895   2.457   7.782  0.0150 -0.1077  0.0782
30885SOL    HW196443   7.970   2.398   7.788 -1.1230 -1.7378 -1.1133
30885SOL    HW296444   7.891   2.481   7.690 -0.3515  0.7694  0.3157
30886SOL     OW96445   5.561   9.142   7.439 -0.1680 -0.2141  0.1735
30886SOL    HW196446   5.513   9.067   7.404 -0.3560  0.0317 -0.1009
30886SOL    HW296447   5.607   9.179   7.364 -1.8564  1.2915 -0.2050
30887SOL     OW96448   0.676   2.645   5.493 -0.5013 -0.2972 -0.2295
30887SOL    HW196449   0.628   2.727   5.509 -0.0834 -0.3322  1.4448
30887SOL    HW296450   0.614   2.576   5.517  0.1395 -0.3574  1.3837
30888SOL     OW96451  10.252   3.194   5.091 -0.4123  0.2748 -0.4235
30888SOL    HW196452  10.347   3.198   5.098 -0.4563  0.2795  0.3094
30888SOL    HW296453  10.232   3.100   5.084 -0.3498  0.2798 -0.6742
30889SOL     OW96454   2.736   5.458   2.500 -0.0764 -0.5007  0.4879
30889SOL    HW196455   2.747   5.549   2.526 -0.3085 -0.3892  0.2007
30889SOL    HW296456   2.641   5.446   2.493 -0.0122 -0.4475 -0.5807
30890SOL     OW96457   8.635   2.170   6.108  0.2202 -0.2390 -0.0052
30890SOL    HW196458   8.627   2.252   6.157  1.8921 -0.0156 -0.0729
30890SOL    HW296459   8.581   2.184   6.030  0.3534  0.7343  0.0622
30891SOL     OW96460   8.960   4.529   3.142 -0.5442 -0.2171 -0.2718
30891SOL    HW196461   9.023   4.495   3.206  0.2948  0.0972 -0.9213
30891SOL    HW296462   8.987   4.490   3.059 -1.2552 -0.1265 -0.5532
30892SOL     OW96463   2.424   0.685   9.438 -0.4693 -0.2763  0.2185
30892SOL    HW196464   2.519   0.695   9.435 -0.6291  1.1700 -1.2598
30892SOL    HW296465   2.400   0.712   9.527  0.4683 -0.3777  0.5092
30893SOL     OW96466   6.766   1.842   8.948  0.3710  0.3357  0.1679
30893SOL    HW196467   6.682   1.834   8.994  0.9301  0.5378  1.2631
30893SOL    HW296468   6.743   1.869   8.860 -0.9383 -2.7397 -0.5589
30894SOL     OW96469  10.329   9.159   3.803 -0.8456 -0.2198 -0.3965
30894SOL    HW196470  10.253   9.121   3.759 -1.3007 -0.2517  0.3961
30894SOL    HW296471  10.292   9.211   3.874 -0.1152 -0.3064  0.0550
30895SOL     OW96472   3.805   0.864   8.615  0.2204 -0.1104 -0.2745
30895SOL    HW196473   3.811   0.948   8.569  1.3605  0.2775  0.5437
30895SOL    HW296474   3.896   0.835   8.624 -0.0910 -0.9110  0.4172
30896SOL     OW96475   9.524   3.440   8.045  0.0164 -0.1742  0.3815
30896SOL    HW196476   9.485   3.413   8.129 -1.2684  0.2347 -0.0666
30896SOL    HW296477   9.593   3.501   8.070  0.3915 -0.8923  1.1875
30897SOL     OW96478   0.561   8.590   5.703 -0.2842 -0.0272  0.5040
30897SOL    HW196479   0.520   8.567   5.620 -1.2001  1.6697  0.4456
30897SOL    HW296480   0.645   8.629   5.679 -1.3110  2.1459  0.1857
30898SOL     OW96481   7.941   9.644   4.722 -0.1564 -0.1733 -0.7165
30898SOL    HW196482   7.946   9.606   4.810 -2.4030  1.7503  0.3618
30898SOL    HW296483   8.018   9.700   4.716 -1.0017  1.2627  0.9193
30899SOL     OW96484   1.497   9.697   0.512  0.0319 -0.0759  0.0870
30899SOL    HW196485   1.434   9.656   0.453  0.0754 -1.0531  0.6974
30899SOL    HW296486   1.570   9.723   0.455  0.2323 -1.3145 -0.2552
30900SOL     OW96487   2.471   2.066   0.425  0.2327  0.1612  0.0241
30900SOL    HW196488   2.535   2.116   0.474 -0.5367  0.2850  0.9284
30900SOL    HW296489   2.419   2.133   0.380  0.1130  0.1095  0.0854
30901SOL     OW96490   6.234   2.953   9.420 -0.5524  0.4002  0.1612
30901SOL    HW196491   6.273   2.872   9.453  0.3264  0.1176 -1.4861
30901SOL    HW296492   6.302   2.991   9.364 -1.1637  1.9908  0.4477
30902SOL     OW96493   8.905   4.942   3.543  0.0668  0.2273 -0.6549
30902SOL    HW196494   8.968   4.941   3.471  0.2296 -0.5333 -0.5044
30902SOL    HW296495   8.820   4.931   3.500 -0.0521  1.9250 -0.9227
30903SOL     OW96496   1.722   4.421   2.681 -0.2966  0.4967  0.0742
30903SOL    HW196497   1.793   4.385   2.733  0.3307  0.9348 -0.4633
30903SOL    HW296498   1.656   4.447   2.745  0.1096  0.2549  0.5920
30904SOL     OW96499   9.372   6.196   4.064  0.7885  0.4600  0.1193
30904SOL    HW196500   9.327   6.266   4.016  1.1418 -0.4951 -1.6919
30904SOL    HW296501   9.348   6.116   4.017  2.2446 -0.3641  0.7336
30905SOL     OW96502   3.273   4.002   1.053 -0.0702 -0.7430 -0.3442
30905SOL    HW196503   3.348   3.955   1.017 -0.3585 -2.0655  0.7144
30905SOL    HW296504   3.277   3.986   1.147 -0.5994  0.7791 -0.0289
30906SOL     OW96505   7.567   4.237   9.266  0.4253 -0.3288 -0.4933
30906SOL    HW196506   7.649   4.278   9.293  0.6372 -0.1374 -1.4280
30906SOL    HW296507   7.592   4.174   9.198 -0.0787 -0.9987 -0.0779
30907SOL     OW96508   8.978   2.204   5.910  0.4967  0.3119  0.0675
30907SOL    HW196509   8.964   2.284   5.860  0.1993  0.3172  0.1564
30907SOL    HW296510   8.890   2.176   5.934  0.5398 -0.4965 -0.6727
30908SOL     OW96511   6.565   2.150   9.878 -0.2517  0.6587 -0.4275
30908SOL    HW196512   6.510   2.109   9.945  0.0301 -0.0114 -0.5924
30908SOL    HW296513   6.503   2.181   9.812 -0.5420  1.4910  0.2276
30909SOL     OW96514   8.496   5.771   9.469  0.5525 -0.0783 -0.0379
30909SOL    HW196515   8.584   5.800   9.496  0.2565  1.2219 -0.3835
30909SOL    HW296516   8.508   5.680   9.443  1.8862  0.1836 -0.4435
30910SOL     OW96517   8.049   3.852   9.283  0.3860  0.6516 -0.2877
30910SOL    HW196518   8.030   3.925   9.342  1.4088  0.5597  0.1721
30910SOL    HW296519   8.048   3.891   9.195 -1.1627  0.7820 -0.2372
30911SOL     OW96520   9.629   9.957   9.722  0.5101 -0.3369  0.7213
30911SOL    HW196521   9.671   9.914   9.796 -1.4773 -1.2093  1.3978
30911SOL    HW296522   9.535   9.944   9.736  0.0494 -1.9240 -2.6987
30912SOL     OW96523   6.253   0.993   6.522  0.4302 -0.4844  0.4875
30912SOL    HW196524   6.295   1.038   6.449  0.0634 -0.5001  0.2662
30912SOL    HW296525   6.224   1.063   6.581  0.7975 -0.4755  0.6572
30913SOL     OW96526   2.585   2.451   0.439 -0.7555  0.3316 -0.1557
30913SOL    HW196527   2.566   2.388   0.370 -0.6020 -0.2249  0.3079
30913SOL    HW296528   2.548   2.412   0.518 -0.2228  0.5928  0.2281
30914SOL     OW96529   6.882   2.564   5.255 -0.5088  0.2392  0.0268
30914SOL    HW196530   6.975   2.567   5.234 -0.2276  1.2363  1.2149
30914SOL    HW296531   6.843   2.633   5.201 -0.5433 -0.1230 -0.4104
30915SOL     OW96532   1.769   8.655   9.806 -0.0503  0.6108 -0.0509
30915SOL    HW196533   1.701   8.604   9.851  1.5976  0.0206  1.8914
30915SOL    HW296534   1.760   8.629   9.714 -2.0575  0.1205  0.2321
30916SOL     OW96535   5.831   2.589   3.612  0.5982  0.3873  0.1144
30916SOL    HW196536   5.863   2.505   3.581  0.3154  0.1270  0.5210
30916SOL    HW296537   5.902   2.624   3.665  0.9955  0.7317 -0.6325
30917SOL     OW96538   0.211   7.800   8.531  0.2768  0.2156 -0.7567
30917SOL    HW196539   0.208   7.788   8.436 -0.8138  0.0507 -0.7072
30917SOL    HW296540   0.303   7.787   8.553  0.7502  1.3926 -1.9356
30918SOL     OW96541   8.078   5.194   4.934 -0.1718 -0.2649  0.5762
30918SOL    HW196542   8.115   5.283   4.934 -0.1104 -0.2839 -0.2009
30918SOL    HW296543   8.079   5.168   4.842 -1.1329 -0.6770  0.6716
30919SOL     OW96544   8.889  10.303   0.337  0.1000  0.9489  0.2592
30919SOL    HW196545   8.907  10.396   0.347 -0.5535  1.0272  0.7146
30919SOL    HW296546   8.970  10.267   0.299 -0.5884  2.1459 -2.5979
30920SOL     OW96547   6.980   0.269   1.185 -0.2030  0.1525  0.2699
30920SOL    HW196548   7.038   0.193   1.191 -0.8164 -0.3416  0.0865
30920SOL    HW296549   6.905   0.237   1.135 -1.9239 -0.0147  2.8295
30921SOL     OW96550   1.061   3.877   1.466 -0.1155  0.4136  0.1115
30921SOL    HW196551   1.033   3.824   1.541  1.0470 -1.0872 -0.4678
30921SOL    HW296552   0.981   3.890   1.415 -0.9836  1.6963  1.7008
30922SOL     OW96553   6.625   4.088   9.888 -0.6879 -0.0932 -0.1420
30922SOL    HW196554   6.571   4.048   9.820  0.1200 -0.8768 -0.3522
30922SOL    HW296555   6.666   4.164   9.846  0.7404 -1.2467 -0.9427
30923SOL     OW96556   7.161   3.696   0.782  0.7111 -0.0997  0.1378
30923SOL    HW196557   7.103   3.695   0.707  1.2142 -0.2196 -0.2587
30923SOL    HW296558   7.230   3.633   0.760  0.3418 -0.8842  1.1204
30924SOL     OW96559   0.887   8.614   0.951  0.5186 -0.9989 -0.7331
30924SOL    HW196560   0.817   8.583   1.009 -0.8815 -0.9961 -2.3564
30924SOL    HW296561   0.883   8.709   0.957  1.0112 -1.0114 -0.1261
30925SOL     OW96562   1.264   7.064   9.393  0.3281  0.2946 -0.0743
30925SOL    HW196563   1.186   7.102   9.434 -0.0747  0.6332 -1.1399
30925SOL    HW296564   1.311   7.022   9.466 -1.0458 -0.2823  0.5088
30926SOL     OW96565   6.723   4.002   3.665 -0.1359  0.2544  0.0558
30926SOL    HW196566   6.741   4.085   3.708 -2.6539  0.8230  0.1921
30926SOL    HW296567   6.703   3.941   3.737  4.2509 -1.3763  0.1951
30927SOL     OW96568   4.952   6.974   6.361 -0.3557 -0.7037 -0.9737
30927SOL    HW196569   4.995   6.916   6.424 -0.6692 -1.6279 -1.5890
30927SOL    HW296570   4.910   7.041   6.415 -0.3403 -1.2902 -0.2177
30928SOL     OW96571   4.719   9.108   4.874  0.1679 -0.3215 -0.0188
30928SOL    HW196572   4.790   9.160   4.838  0.2569 -1.2831 -1.2988
30928SOL    HW296573   4.640   9.159   4.854  0.3565 -0.0531 -0.0871
30929SOL     OW96574   8.172   3.933   3.566 -0.4761 -0.0917 -0.3718
30929SOL    HW196575   8.182   3.937   3.471  2.6382 -0.0843 -0.1392
30929SOL    HW296576   8.231   3.863   3.593 -1.6577 -0.4178  1.5580
30930SOL     OW96577   3.134   8.552   9.825  0.7113 -0.4517 -0.7158
30930SOL    HW196578   3.164   8.464   9.849  0.3843 -0.5644 -0.7130
30930SOL    HW296579   3.073   8.537   9.753  3.2410  0.0142 -3.1044
30931SOL     OW96580   0.104   0.003   0.452  0.1318  0.0948 -0.3674
30931SOL    HW196581   0.120   0.087   0.409 -0.6445 -0.5569 -1.9854
30931SOL    HW296582   0.175  -0.054   0.422 -0.5876 -0.4531 -1.0739
30932SOL     OW96583   6.767  10.254   3.647  0.2893 -0.4275  0.1308
30932SOL    HW196584   6.751  10.161   3.627 -1.0773 -0.0458 -0.6889
30932SOL    HW296585   6.748  10.299   3.565  0.0040  0.6696  0.7917
30933SOL     OW96586   6.125   0.035   3.341 -0.4182  0.2512  0.4716
30933SOL    HW196587   6.179   0.077   3.274 -1.9088  2.4010  0.5451
30933SOL    HW296588   6.147   0.081   3.422  0.1599 -1.2398  1.2123
30934SOL     OW96589   8.436   6.281   5.713  0.1206 -0.1807 -0.3460
30934SOL    HW196590   8.493   6.335   5.768  0.0264  1.5208 -1.8130
30934SOL    HW296591   8.348   6.318   5.726  0.1536  0.5130 -1.8603
30935SOL     OW96592   9.881  10.010   3.295  0.0179 -0.9288 -0.4750
30935SOL    HW196593   9.928  10.048   3.369  0.3566  0.6402 -1.4337
30935SOL    HW296594   9.794   9.992   3.328  0.2975 -0.6840  0.4293
30936SOL     OW96595   9.406   9.039   7.418  0.1629  0.3178  0.2783
30936SOL    HW196596   9.402   9.128   7.451  2.5778  0.6942 -0.2346
30936SOL    HW296597   9.464   9.044   7.342  0.6456 -1.7338  0.4444
30937SOL     OW96598   8.090   8.334   6.570  0.1286 -0.1613 -0.7023
30937SOL    HW196599   8.151   8.398   6.605  0.1640  0.0673 -1.1657
30937SOL    HW296600   8.121   8.250   6.603  0.8095 -0.0683 -1.0851
30938SOL     OW96601   1.652   1.073   3.822 -0.4808  0.1681 -0.1155
30938SOL    HW196602   1.673   1.115   3.905  0.0923  0.4669 -0.4072
30938SOL    HW296603   1.718   1.004   3.813 -1.6216 -1.0614  0.5326
30939SOL     OW96604   4.157   2.109   5.663 -0.4820  0.1997 -0.4271
30939SOL    HW196605   4.075   2.137   5.704 -2.4527 -0.9364 -3.2822
30939SOL    HW296606   4.203   2.061   5.732 -2.0702  1.1081  1.3370
30940SOL     OW96607   5.981   4.056   5.075 -0.5793  0.7079  0.3566
30940SOL    HW196608   5.909   4.002   5.042 -2.2409  3.6982 -1.4410
30940SOL    HW296609   6.021   4.092   4.996  0.7862  1.6549  1.4344
30941SOL     OW96610   8.083   6.885   8.119 -0.0505  0.2528  0.0718
30941SOL    HW196611   7.999   6.857   8.084  0.3660  0.7091 -1.3376
30941SOL    HW296612   8.094   6.975   8.089 -0.1068  1.0293  2.2229
30942SOL     OW96613   6.109   3.746   4.889 -0.1539 -0.2587 -0.2019
30942SOL    HW196614   6.133   3.654   4.886  2.1036  0.2565 -0.2463
30942SOL    HW296615   6.029   3.749   4.942  0.1869 -2.1552  0.4865
30943SOL     OW96616   9.346   3.761   4.631 -0.3028  0.3957  0.4833
30943SOL    HW196617   9.363   3.854   4.647  0.9566  0.2365  0.1639
30943SOL    HW296618   9.254   3.757   4.608 -0.7445  1.3830  1.9115
30944SOL     OW96619   1.147  10.027   0.296  0.4146 -0.0626 -0.3432
30944SOL    HW196620   1.139  10.018   0.391 -1.4643 -0.7180 -0.5098
30944SOL    HW296621   1.190   9.946   0.268  1.0478  0.1692 -0.0504
30945SOL     OW96622  10.267   4.688   8.441 -0.4792  0.3335  0.4562
30945SOL    HW196623  10.308   4.626   8.381  0.2045  1.2269 -0.0206
30945SOL    HW296624  10.316   4.770   8.429 -1.0344  0.8320  1.4351
30946SOL     OW96625   9.513   5.053   8.476  0.0291 -0.2940  0.2645
30946SOL    HW196626   9.517   5.079   8.385 -1.1002 -2.1666 -0.3931
30946SOL    HW296627   9.419   5.042   8.493  0.1410  0.9678  1.9635
30947SOL     OW96628   7.694   5.472   2.453  0.0052  0.6359  0.0209
30947SOL    HW196629   7.653   5.559   2.458 -1.7670  0.0236 -2.4485
30947SOL    HW296630   7.716   5.461   2.361  1.1570 -1.1732  0.4624
30948SOL     OW96631   3.934   1.022   9.785  0.2905  0.6452 -0.0123
30948SOL    HW196632   3.876   0.979   9.847 -1.4668  0.6933 -1.5528
30948SOL    HW296633   3.979   1.089   9.837 -1.2957  0.8413  1.1715
30949SOL     OW96634   9.310   8.917   3.094 -0.0441 -0.2627 -0.1323
30949SOL    HW196635   9.223   8.942   3.064  0.3414  0.0151 -1.0634
30949SOL    HW296636   9.295   8.872   3.177 -1.0523 -0.0391 -0.1829
30950SOL     OW96637   6.183   7.828   0.038  0.3286 -0.0824 -0.5159
30950SOL    HW196638   6.248   7.877   0.089 -0.6283  1.1719 -0.4365
30950SOL    HW296639   6.098   7.860   0.071 -0.3143 -0.5209 -1.6976
30951SOL     OW96640   1.138   5.258   9.580  0.8590  0.0132  0.2188
30951SOL    HW196641   1.089   5.245   9.661  1.4802 -1.4088  0.4135
30951SOL    HW296642   1.227   5.230   9.601  0.5888 -2.5489 -1.4684
30952SOL     OW96643   1.882   5.628   1.701 -0.0421 -0.0976  0.0670
30952SOL    HW196644   1.856   5.698   1.641  0.4918  0.5968  0.6275
30952SOL    HW296645   1.959   5.663   1.746  0.1926 -1.0229  0.4067
30953SOL     OW96646   5.154   5.029   8.845 -0.1762 -0.2147  0.4412
30953SOL    HW196647   5.117   4.946   8.874 -0.6092 -0.2050 -0.0859
30953SOL    HW296648   5.225   5.046   8.907 -0.7261 -0.4794  1.1649
30954SOL     OW96649   2.426   7.994   6.038 -0.4057 -0.0769  0.5379
30954SOL    HW196650   2.437   7.929   5.968 -0.8364  1.3180 -0.8896
30954SOL    HW296651   2.334   7.989   6.061 -0.5521  0.3702  0.0628
30955SOL     OW96652   3.407   2.757  10.230  0.0099  0.5262  0.0497
30955SOL    HW196653   3.320   2.720  10.215  0.1126 -0.3052  1.3371
30955SOL    HW296654   3.410   2.834  10.173 -0.9955 -0.2676 -1.1322
30956SOL     OW96655   6.230   1.145   5.303  0.1551 -0.2445  0.2728
30956SOL    HW196656   6.139   1.173   5.316 -0.6787 -2.3450 -0.6144
30956SOL    HW296657   6.223   1.059   5.261  2.5798 -0.0592 -0.6583
30957SOL     OW96658   0.184   0.884   5.579  0.1631 -0.5236 -0.3980
30957SOL    HW196659   0.184   0.968   5.624  1.0878 -0.3022 -0.7705
30957SOL    HW296660   0.195   0.819   5.648 -1.7758 -0.4476  0.0237
30958SOL     OW96661   0.639   0.702   1.023 -0.5224 -0.1916  0.2275
30958SOL    HW196662   0.718   0.721   1.073 -0.5802  2.1027 -0.4510
30958SOL    HW296663   0.671   0.677   0.936 -0.5201 -0.0141  0.1770
30959SOL     OW96664   4.672   6.696   2.812 -0.1877 -0.5062  0.1840
30959SOL    HW196665   4.766   6.706   2.795 -0.2523  2.3849  0.9904
30959SOL    HW296666   4.630   6.757   2.751 -1.4694 -0.9264  0.6170
30960SOL     OW96667   7.481   4.582   2.414  0.0509 -0.0723 -0.2215
30960SOL    HW196668   7.452   4.602   2.325  1.2412 -0.9284 -0.8411
30960SOL    HW296669   7.577   4.586   2.409  0.1551  3.0532  1.8117
30961SOL     OW96670   9.323   2.342   4.868 -0.5753  0.1093  0.7348
30961SOL    HW196671   9.240   2.361   4.913 -0.7731 -0.1902  0.5076
30961SOL    HW296672   9.338   2.249   4.884 -1.2787 -0.3060 -0.8021
30962SOL     OW96673   4.346   7.213   8.935 -0.5342 -0.1448 -0.1532
30962SOL    HW196674   4.317   7.301   8.960  1.6236  0.5852 -0.0067
30962SOL    HW296675   4.354   7.166   9.017  1.1395  0.4938  0.0921
30963SOL     OW96676   6.125   1.608   6.699 -0.1100 -0.1511  0.4269
30963SOL    HW196677   6.111   1.661   6.621  0.4550 -0.3008  0.2170
30963SOL    HW296678   6.160   1.669   6.764 -1.1834  0.1075  0.7750
30964SOL     OW96679   7.799   3.983   2.736  0.3113 -0.1362 -0.0054
30964SOL    HW196680   7.856   4.061   2.731  1.4053 -0.9018  0.0711
30964SOL    HW296681   7.805   3.956   2.827 -1.2883  0.5496  0.3277
30965SOL     OW96682   5.026   2.420   7.990  0.1011 -0.6914  0.1577
30965SOL    HW196683   4.991   2.480   7.924 -0.9025 -3.0673 -1.6293
30965SOL    HW296684   5.119   2.442   7.997 -0.3521  1.4431  0.0847
30966SOL     OW96685   5.237   9.609   0.225  0.1127  0.1086 -0.2720
30966SOL    HW196686   5.161   9.588   0.171  0.2969  1.8468 -1.2805
30966SOL    HW296687   5.238   9.541   0.293 -0.5489 -1.7050 -1.9971
30967SOL     OW96688   3.806   8.783   1.688 -0.1039 -0.0871  0.0975
30967SOL    HW196689   3.860   8.704   1.690  1.3134  0.6863 -2.5434
30967SOL    HW296690   3.743   8.768   1.617 -0.5955  0.6831  0.3559
30968SOL     OW96691   1.432   8.067   4.187  0.4006 -0.5186 -0.4595
30968SOL    HW196692   1.382   7.985   4.185 -2.9528  1.2928  0.1799
30968SOL    HW296693   1.369   8.132   4.219  3.3087  2.0663  0.4828
30969SOL     OW96694   2.193   1.458   1.895 -0.2302  0.0167 -0.3147
30969SOL    HW196695   2.237   1.374   1.884  0.0967  0.3213 -1.5149
30969SOL    HW296696   2.264   1.523   1.895 -0.3538  0.2434  1.8991
30970SOL     OW96697   1.507   8.680   2.681 -0.7255  0.0618  0.2204
30970SOL    HW196698   1.538   8.638   2.761  3.9379  1.3426 -0.6072
30970SOL    HW296699   1.435   8.735   2.709 -2.0242 -2.5949  2.6595
30971SOL     OW96700   0.380   2.415   9.534 -0.2999 -0.2140 -0.4874
30971SOL    HW196701   0.358   2.502   9.502 -2.8193 -0.7042 -0.2550
30971SOL    HW296702   0.362   2.418   9.628  1.3647 -0.4933 -0.1225
30972SOL     OW96703   7.426   9.151   7.169 -0.1090  0.0899  0.0823
30972SOL    HW196704   7.346   9.201   7.153 -1.5739 -1.3204  2.3744
30972SOL    HW296705   7.413   9.113   7.256  1.4035 -3.2543 -0.9994
30973SOL     OW96706   3.446  10.253   4.640  0.0788  0.7050 -0.3225
30973SOL    HW196707   3.409  10.242   4.728  1.1440 -1.0207 -0.0475
30973SOL    HW296708   3.373  10.284   4.587 -1.6653 -1.9249  0.3260
30974SOL     OW96709   3.078   2.691   9.673  0.2822 -0.2386  0.2160
30974SOL    HW196710   3.054   2.605   9.708 -0.6396  0.0275  0.2750
30974SOL    HW296711   3.173   2.693   9.676  0.3365 -1.4668 -0.2854
30975SOL     OW96712   2.063   6.969   6.583 -0.2778  0.3785 -0.3060
30975SOL    HW196713   2.010   6.890   6.574 -0.3039  0.3598 -0.0202
30975SOL    HW296714   2.119   6.952   6.659 -1.0635  1.0556  0.4543
30976SOL     OW96715   3.560   7.482   3.366 -0.1131  0.1509 -0.0448
30976SOL    HW196716   3.619   7.415   3.332 -0.1787  0.1322 -0.1225
30976SOL    HW296717   3.576   7.559   3.310  0.3644  0.3762  0.3956
30977SOL     OW96718   4.967   8.128   1.049 -0.4449 -0.1329  0.4242
30977SOL    HW196719   5.053   8.146   1.088  0.5085 -1.1019 -1.1232
30977SOL    HW296720   4.927   8.214   1.038 -0.2447  0.2505  2.3383
30978SOL     OW96721   4.517   4.712   3.740 -0.2158  0.4015 -0.5356
30978SOL    HW196722   4.591   4.728   3.799 -1.3099  1.0314  0.7583
30978SOL    HW296723   4.553   4.720   3.652  1.5928 -1.0608  0.0256
30979SOL     OW96724   5.442   5.840   3.770 -0.0125 -0.2296  0.3038
30979SOL    HW196725   5.371   5.817   3.711  1.2271 -0.0503 -1.3533
30979SOL    HW296726   5.399   5.881   3.845 -1.5966  0.7763 -1.0744
30980SOL     OW96727   1.979   3.114   5.720 -0.3535 -0.3135  0.1665
30980SOL    HW196728   2.042   3.141   5.653 -1.6771  2.3385 -0.1790
30980SOL    HW296729   2.014   3.148   5.802 -0.1201 -1.0693  0.3880
30981SOL     OW96730   9.830   6.462   8.495 -0.1924 -0.3595  0.0164
30981SOL    HW196731   9.754   6.424   8.450 -0.4801  0.4530 -0.2140
30981SOL    HW296732   9.792   6.524   8.557  0.2201 -1.2044  1.1578
30982SOL     OW96733   5.623   6.391   9.383  1.3238  0.3542 -0.3909
30982SOL    HW196734   5.538   6.389   9.426  1.0481 -0.3701 -0.9508
30982SOL    HW296735   5.686   6.402   9.454  0.7764  0.8104  0.0339
30983SOL     OW96736   7.595  10.310   7.687 -0.5359  0.0783  0.0372
30983SOL    HW196737   7.662  10.312   7.619  0.0659  1.8270  0.6234
30983SOL    HW296738   7.565  10.219   7.689  3.5204 -1.4735  1.4123
30984SOL     OW96739   8.104  10.217  10.271 -0.1934  0.4854 -0.2354
30984SOL    HW196740   8.136  10.156  10.338  1.0409 -0.4529 -1.6082
30984SOL    HW296741   8.019  10.181  10.245  0.8467 -1.1698 -1.5611
30985SOL     OW96742   1.325   8.744   3.988  0.1166 -0.6006  0.1182
30985SOL    HW196743   1.244   8.754   3.939 -0.6534 -1.5312  1.1569
30985SOL    HW296744   1.312   8.795   4.068  0.5907 -0.6905  0.2594
30986SOL     OW96745   2.710   5.120   7.295  0.0890 -0.2220 -0.5469
30986SOL    HW196746   2.743   5.207   7.318 -0.8034  0.2668 -1.0789
30986SOL    HW296747   2.708   5.120   7.199  0.9577 -1.1709 -0.5822
30987SOL     OW96748   6.525   9.681   5.050  0.2603 -0.0966 -0.0969
30987SOL    HW196749   6.481   9.741   4.989  1.5410 -0.0336 -1.0049
30987SOL    HW296750   6.486   9.596   5.031 -1.2361  0.3321  0.8731
30988SOL     OW96751   0.222   6.493   3.906  0.0178  0.0558 -0.5694
30988SOL    HW196752   0.317   6.494   3.900  0.0908  1.0935  0.2791
30988SOL    HW296753   0.198   6.401   3.911  1.0149 -0.1966 -0.3796
30989SOL     OW96754   0.095   9.531   4.281 -0.1582  0.5210 -0.3473
30989SOL    HW196755   0.104   9.554   4.189  0.8231  1.3275 -0.0741
30989SOL    HW296756   0.183   9.504   4.308 -0.5169 -0.0744  0.2631
30990SOL     OW96757   2.779  10.332   3.474 -0.9347  0.1942  0.1715
30990SOL    HW196758   2.737  10.247   3.485 -1.1900  0.0363 -1.7387
30990SOL    HW296759   2.719  10.394   3.517 -1.3347 -0.4458  0.5420
30991SOL     OW96760   3.540   1.266   3.771  0.1904 -0.3953  0.6093
30991SOL    HW196761   3.456   1.276   3.817  0.0789 -0.5793  0.4486
30991SOL    HW296762   3.518   1.214   3.694  0.2283  0.5392 -0.0555
30992SOL     OW96763   0.284   3.209  10.287 -0.4064  0.0276  0.1831
30992SOL    HW196764   0.370   3.232  10.322 -0.6787  0.1211  0.8060
30992SOL    HW296765   0.296   3.208  10.192  0.0352  1.0701  0.2081
30993SOL     OW96766   8.648   7.668   3.678  0.3523 -0.1166  0.3713
30993SOL    HW196767   8.587   7.593   3.682 -0.3540  0.3905 -0.4655
30993SOL    HW296768   8.612   7.724   3.609  0.5685  1.2627  1.3297
30994SOL     OW96769   8.130   7.604   5.859 -0.2653  0.3509 -0.0184
30994SOL    HW196770   8.154   7.638   5.772 -0.8963 -0.8950 -0.7033
30994SOL    HW296771   8.214   7.590   5.902  0.0897  0.1386 -0.7628
30995SOL     OW96772   2.819   3.403   7.587  0.4590 -0.1936  0.2137
30995SOL    HW196773   2.884   3.412   7.657  0.8515  0.0254 -0.1698
30995SOL    HW296774   2.789   3.492   7.571 -0.0337 -0.3089  0.4735
30996SOL     OW96775   2.741   4.981   0.284  0.2512 -0.0849 -0.1624
30996SOL    HW196776   2.831   4.956   0.306 -0.5337 -1.7809  1.4225
30996SOL    HW296777   2.704   5.013   0.366 -1.9667 -3.9661  0.6080
30997SOL     OW96778   8.186   7.834   3.339 -0.2029 -0.3213 -0.2506
30997SOL    HW196779   8.247   7.882   3.396 -0.6372  0.3427 -0.3335
30997SOL    HW296780   8.106   7.826   3.390  0.0089 -1.3939 -0.0554
30998SOL     OW96781   1.221   4.597   3.822 -0.3789 -0.2388 -0.2924
30998SOL    HW196782   1.287   4.536   3.854 -1.3670 -0.8747  0.5590
30998SOL    HW296783   1.234   4.676   3.874  1.0586  0.4048 -1.5587
30999SOL     OW96784   0.844   1.060   0.555 -0.1187 -0.4226 -0.4387
30999SOL    HW196785   0.832   1.151   0.579  0.7872 -0.6736  1.0733
30999SOL    HW296786   0.768   1.015   0.591  0.1244 -0.4670  0.0204
31000SOL     OW96787   1.471   2.473   5.832  0.2562  0.3141 -0.3511
31000SOL    HW196788   1.551   2.424   5.814 -0.2506 -0.2676 -1.0947
31000SOL    HW296789   1.486   2.559   5.793  0.5051  0.1917 -0.5265
31001SOL     OW96790   6.046   5.109   7.499 -0.0286 -0.8284 -0.8135
31001SOL    HW196791   6.080   5.090   7.586  0.3514 -0.0816 -0.7908
31001SOL    HW296792   6.007   5.026   7.470 -1.6217 -0.6723  0.7151
31002SOL     OW96793   7.680   6.454   0.482 -0.6859 -0.4883  0.1066
31002SOL    HW196794   7.715   6.495   0.403 -0.3636  0.1132  0.5548
31002SOL    HW296795   7.632   6.378   0.450  0.6726 -1.0953 -0.5588
31003SOL     OW96796   4.701   5.097   7.043 -0.0264 -0.3962  0.3152
31003SOL    HW196797   4.774   5.067   6.989  0.6037  2.2302 -0.4031
31003SOL    HW296798   4.667   5.174   6.998 -2.7289 -1.0119  1.1064
31004SOL     OW96799   1.557   0.359   2.947  0.5546 -0.0119 -0.1141
31004SOL    HW196800   1.542   0.447   2.912  1.2143 -0.3599 -1.3177
31004SOL    HW296801   1.475   0.313   2.933 -0.2970  0.7984  1.8405
31005SOL     OW96802   5.284   0.420   8.518 -0.0126  0.8133  0.1395
31005SOL    HW196803   5.298   0.508   8.484 -1.4361  1.4624  1.1056
31005SOL    HW296804   5.202   0.427   8.568  0.7014 -0.6607  1.6166
31006SOL     OW96805   2.840   5.966   2.358  0.4444  0.2797 -0.9052
31006SOL    HW196806   2.854   5.984   2.265  1.5603  0.2209 -0.7684
31006SOL    HW296807   2.804   5.877   2.360  0.1968  0.3691 -1.2895
31007SOL     OW96808   8.253   9.079   3.238  0.0234  0.6512  0.4685
31007SOL    HW196809   8.330   9.132   3.220 -0.7525  1.6769  0.0716
31007SOL    HW296810   8.201   9.084   3.157  0.4406 -1.6380  0.0033
31008SOL     OW96811   9.744   8.521   5.948  0.3648  0.4614  0.0267
31008SOL    HW196812   9.817   8.507   6.008 -0.3876 -0.9187  0.6807
31008SOL    HW296813   9.699   8.436   5.945  0.7228  0.2650 -3.0121
31009SOL     OW96814   7.519   6.115   3.534  0.7268 -0.2913 -0.0097
31009SOL    HW196815   7.487   6.136   3.446  1.0639 -1.0134 -0.3101
31009SOL    HW296816   7.576   6.039   3.521  1.0779 -0.1694  0.7808
31010SOL     OW96817   1.766   9.267   9.089  0.1716  0.0215 -0.5194
31010SOL    HW196818   1.760   9.172   9.079  0.9499  0.0725 -1.6604
31010SOL    HW296819   1.682   9.300   9.057 -0.5738 -0.3245  0.9801
31011SOL     OW96820   2.775   3.466   6.043  0.3801 -0.2772  0.1202
31011SOL    HW196821   2.851   3.420   6.007 -0.2768 -1.6421  0.4176
31011SOL    HW296822   2.700   3.417   6.010 -0.6465  2.8121 -2.8080
31012SOL     OW96823   1.022   4.125   8.811 -0.1997 -0.4094  0.2260
31012SOL    HW196824   1.107   4.123   8.767 -0.6730  0.3072 -0.7415
31012SOL    HW296825   1.003   4.218   8.821 -1.9506 -0.5125 -1.7082
31013SOL     OW96826   8.541   6.872   5.762  0.1098  0.1346 -0.3577
31013SOL    HW196827   8.594   6.794   5.780 -0.1336  0.3265  1.3690
31013SOL    HW296828   8.487   6.883   5.841 -0.8920  1.2296 -1.1637
31014SOL     OW96829   0.947   0.422   5.879  0.1766  0.0407  0.0895
31014SOL    HW196830   0.857   0.445   5.902  0.3320  0.0058  0.7543
31014SOL    HW296831   1.000   0.492   5.918  0.3036  1.2976 -2.1516
31015SOL     OW96832   4.976   0.730  10.046  0.3477 -0.1986 -0.3681
31015SOL    HW196833   5.056   0.724   9.993 -0.5790 -0.2849 -1.7990
31015SOL    HW296834   4.991   0.670  10.119  1.5963 -0.1959 -0.6034
31016SOL     OW96835   2.349   7.988   2.438 -0.0457 -0.3613 -0.2774
31016SOL    HW196836   2.415   7.996   2.507  0.6859  0.0561 -1.0128
31016SOL    HW296837   2.378   8.048   2.370 -0.7569 -0.7748 -0.9606
31017SOL     OW96838   9.126   5.690   2.769  0.1445  0.6492  0.3718
31017SOL    HW196839   9.132   5.785   2.781 -0.6120  0.8198 -0.5117
31017SOL    HW296840   9.201   5.668   2.714 -0.5697  0.9916 -0.7694
31018SOL     OW96841   6.072   2.188   4.141 -0.7446 -0.0257 -1.2762
31018SOL    HW196842   6.032   2.102   4.127  0.6943 -1.1831  1.0482
31018SOL    HW296843   6.025   2.224   4.216 -1.0985  1.1086 -2.0138
31019SOL     OW96844   2.417   2.978   7.292  0.2156  0.3088 -0.1380
31019SOL    HW196845   2.403   2.886   7.271  0.1479  0.2660  0.0935
31019SOL    HW296846   2.332   3.009   7.322  0.2928  0.3891  0.0006
31020SOL     OW96847   0.991   8.100   8.788 -0.3922 -0.1771 -0.2713
31020SOL    HW196848   0.987   8.016   8.743  0.1557 -0.3457 -0.0094
31020SOL    HW296849   0.912   8.101   8.843  0.5793 -1.4003  1.2229
31021SOL     OW96850   7.204   1.482   7.281  0.3133 -0.0799  0.9402
31021SOL    HW196851   7.279   1.540   7.270 -0.4870  0.9367  0.6455
31021SOL    HW296852   7.205   1.427   7.203  0.6512  0.0592  0.8452
31022SOL     OW96853  10.136   1.950   7.220 -0.3219 -0.5927  0.2040
31022SOL    HW196854  10.117   2.012   7.291 -0.9836 -1.3505  0.7028
31022SOL    HW296855  10.227   1.924   7.236  0.4444  1.2674 -0.8230
31023SOL     OW96856   2.721   7.140   7.011  0.4298  0.3113  1.0636
31023SOL    HW196857   2.773   7.101   6.940 -1.1190 -1.1899  0.6823
31023SOL    HW296858   2.632   7.143   6.975 -0.4438 -0.7425  3.0089
31024SOL     OW96859   7.090   2.452   3.350 -0.4441 -0.1530 -0.1694
31024SOL    HW196860   7.014   2.493   3.309 -0.5224 -0.1245  0.0053
31024SOL    HW296861   7.091   2.486   3.439  0.5136  0.8348 -0.5388
31025SOL     OW96862   9.792   1.473  10.150 -0.1735 -0.4109 -0.4737
31025SOL    HW196863   9.759   1.529  10.080 -1.1480 -1.0295 -0.5276
31025SOL    HW296864   9.723   1.408  10.162  0.5254 -1.0264  0.2345
31026SOL     OW96865   9.554   2.989   2.300 -0.0700  0.0194  0.2645
31026SOL    HW196866   9.583   3.071   2.258 -0.6468 -0.8184 -1.9248
31026SOL    HW296867   9.620   2.925   2.274 -0.7155 -0.6416  0.2243
31027SOL     OW96868   4.689   6.365   3.659  0.4456 -0.1774  0.0303
31027SOL    HW196869   4.769   6.333   3.701  1.0628 -0.1752 -1.0870
31027SOL    HW296870   4.618   6.338   3.717  1.1602 -1.2788  0.4274
31028SOL     OW96871   5.707   1.660   9.146  0.1488  0.0867 -0.4547
31028SOL    HW196872   5.630   1.717   9.152  0.4218  0.3938  0.1402
31028SOL    HW296873   5.767   1.693   9.212  0.3873 -0.7868 -0.2262
31029SOL     OW96874   2.652   3.142   2.872 -0.2187 -0.2875  0.2896
31029SOL    HW196875   2.588   3.147   2.801  0.0687 -1.5936 -0.0977
31029SOL    HW296876   2.622   3.069   2.926 -0.5417  0.8061  1.6497
31030SOL     OW96877   2.209   9.918   4.969 -0.1502  0.1493  0.6359
31030SOL    HW196878   2.200  10.000   5.018 -1.6312 -0.7137  1.9438
31030SOL    HW296879   2.156   9.856   5.019  0.7793 -1.5557 -0.4346
31031SOL     OW96880   1.690   5.782   8.839  0.2473 -0.4801  0.4303
31031SOL    HW196881   1.739   5.701   8.824  0.5271 -0.4428  1.1192
31031SOL    HW296882   1.621   5.757   8.900 -0.6817 -0.5580 -0.6211
31032SOL     OW96883   7.624   3.426   4.087 -0.4769  0.5025  0.0379
31032SOL    HW196884   7.650   3.344   4.127 -0.6291  0.7284  0.6126
31032SOL    HW296885   7.607   3.404   3.995  1.2980  0.2728 -0.2653
31033SOL     OW96886   1.175   4.390   7.580 -0.7090  0.5689 -0.4318
31033SOL    HW196887   1.200   4.373   7.670  1.6051  1.5414 -0.8336
31033SOL    HW296888   1.180   4.485   7.570  1.2475  0.3760 -2.0954
31034SOL     OW96889   5.007   3.133   1.471 -0.4218 -0.0769  0.1974
31034SOL    HW196890   5.046   3.160   1.388 -0.1640  0.8030  0.5884
31034SOL    HW296891   5.079   3.092   1.519 -0.0246  1.2605  0.7912
31035SOL     OW96892   3.608   3.215   0.428 -0.7865 -0.2463 -0.2231
31035SOL    HW196893   3.525   3.197   0.384 -0.7904 -1.8440  0.3922
31035SOL    HW296894   3.674   3.173   0.373 -0.5391 -0.2671  0.0899
31036SOL     OW96895   3.906   3.190   0.017  0.6823 -0.2125  0.1222
31036SOL    HW196896   3.883   3.101  -0.009  1.4482 -0.5246  0.4743
31036SOL    HW296897   3.933   3.182   0.108  1.2107  0.2902  0.0178
31037SOL     OW96898   4.595   9.322   3.575  0.0470 -0.1184 -0.3607
31037SOL    HW196899   4.535   9.277   3.634 -0.9835  1.2683 -0.2857
31037SOL    HW296900   4.670   9.346   3.630 -0.1249 -0.3269 -0.0334
31038SOL     OW96901   8.979   8.647   0.689 -0.2058  0.4009  0.1142
31038SOL    HW196902   8.967   8.554   0.671  0.5289 -0.2423  2.4886
31038SOL    HW296903   8.947   8.692   0.611  0.1086 -1.8603 -1.3877
31039SOL     OW96904   2.219   7.748   7.611  0.4455  0.1244 -0.0926
31039SOL    HW196905   2.147   7.689   7.590  0.3403  0.1171  0.2762
31039SOL    HW296906   2.249   7.719   7.697  1.1197 -0.0965 -0.4004
31040SOL     OW96907   9.634   5.999   2.878  0.1443  0.1484 -0.0812
31040SOL    HW196908   9.571   5.943   2.832  0.1965 -0.5317  0.6647
31040SOL    HW296909   9.590   6.084   2.885 -1.2099 -0.6357  1.4980
31041SOL     OW96910   5.189   7.940   5.374  0.8409 -0.3845 -0.3177
31041SOL    HW196911   5.121   7.980   5.429  0.5254 -1.7845  0.3391
31041SOL    HW296912   5.141   7.902   5.301  0.7746 -2.1424  0.5928
31042SOL     OW96913   1.411   6.129   1.987 -0.2715 -0.1543 -0.2701
31042SOL    HW196914   1.375   6.175   2.063 -0.0999  0.7042 -0.7004
31042SOL    HW296915   1.351   6.055   1.974 -0.4331 -0.1810  0.5561
31043SOL     OW96916   8.785   5.266   7.798 -0.1582 -0.2738 -0.1243
31043SOL    HW196917   8.809   5.345   7.846  2.3816 -1.5760  0.9204
31043SOL    HW296918   8.735   5.214   7.860 -3.9690  1.3322 -1.5222
31044SOL     OW96919   7.071   2.030   2.767 -0.2185 -0.0140 -0.5912
31044SOL    HW196920   6.996   2.068   2.721 -0.8888 -0.6746 -0.0709
31044SOL    HW296921   7.033   1.989   2.845  1.0146  2.0279  1.1629
31045SOL     OW96922   5.769   2.175   0.270 -0.1067  0.5892  0.2534
31045SOL    HW196923   5.706   2.244   0.286  0.5915  0.8594  2.0220
31045SOL    HW296924   5.725   2.094   0.297 -0.1570  0.6067  0.2232
31046SOL     OW96925   1.233   9.007   6.486 -0.1071 -0.0441 -0.3630
31046SOL    HW196926   1.236   9.000   6.391 -0.6314 -1.8780 -0.2845
31046SOL    HW296927   1.186   8.929   6.514  1.6608 -0.5150  1.5142
31047SOL     OW96928   7.752   9.326   8.214 -0.6405 -0.6639  0.1596
31047SOL    HW196929   7.749   9.385   8.139  1.2985  1.5710  1.6829
31047SOL    HW296930   7.661   9.303   8.230 -1.1090 -1.1874 -2.7810
31048SOL     OW96931   8.411   5.600   8.810 -0.4449 -0.0619  0.7551
31048SOL    HW196932   8.375   5.580   8.724  0.5283  0.7778  0.1422
31048SOL    HW296933   8.406   5.516   8.857  1.4569 -1.2498 -0.9954
31049SOL     OW96934   8.302  10.033   9.057  0.3343  0.2281 -0.2200
31049SOL    HW196935   8.257  10.110   9.021 -3.1873 -0.1507  2.7334
31049SOL    HW296936   8.282   9.963   8.995 -1.0396  0.6289 -0.2623
31050SOL     OW96937   2.014   0.184   6.296 -0.5153 -0.2698 -0.3493
31050SOL    HW196938   2.033   0.111   6.355 -0.4427  0.2135  0.2231
31050SOL    HW296939   2.004   0.142   6.210 -0.1704 -0.9211 -0.0832
31051SOL     OW96940   2.026   7.262   9.811 -0.0010 -0.1200  0.6132
31051SOL    HW196941   2.029   7.208   9.732  0.1356 -3.1532  2.5098
31051SOL    HW296942   1.933   7.280   9.824  0.1262  4.0642 -2.2994
31052SOL     OW96943   8.807   1.764   3.452  0.8363  0.1883 -0.8226
31052SOL    HW196944   8.872   1.834   3.461  0.0775  0.7514  0.5500
31052SOL    HW296945   8.723   1.807   3.462  0.3393 -0.8649 -0.2457
31053SOL     OW96946   1.729   2.841   5.006 -0.0400  0.5646 -0.0944
31053SOL    HW196947   1.668   2.769   4.987 -0.5973  1.1917 -0.7327
31053SOL    HW296948   1.673   2.915   5.029  0.5286  0.8071  0.5336
31054SOL     OW96949   3.874   8.692   0.223 -0.0529 -0.1404 -0.2108
31054SOL    HW196950   3.857   8.600   0.202 -0.8233 -0.2313  0.7056
31054SOL    HW296951   3.855   8.699   0.317  3.4196  0.1835  0.6110
31055SOL     OW96952   4.754   1.633   6.322 -0.0362 -0.0345 -0.5270
31055SOL    HW196953   4.784   1.686   6.248  1.1186  1.4271  0.9166
31055SOL    HW296954   4.821   1.566   6.334 -0.7713 -0.9714 -1.4403
31056SOL     OW96955   6.621   8.059   3.282  0.1908 -0.7398  0.7190
31056SOL    HW196956   6.658   7.982   3.241  1.5033 -0.0540  0.5665
31056SOL    HW296957   6.649   8.132   3.226  0.8783  0.0751  2.0772
31057SOL     OW96958   9.555   4.888   2.209 -0.0443 -0.1177 -0.1118
31057SOL    HW196959   9.484   4.880   2.146 -1.7119 -0.6598  1.7440
31057SOL    HW296960   9.548   4.811   2.265  0.7067  0.8275  1.3743
31058SOL     OW96961   9.880   2.871   9.234  0.3209  0.2537 -0.3521
31058SOL    HW196962   9.942   2.907   9.171  2.8754 -0.9892  1.2769
31058SOL    HW296963   9.902   2.778   9.239 -1.9994 -0.3560  0.0414
31059SOL     OW96964   8.409   1.799   4.939 -0.0963 -0.4054 -1.0436
31059SOL    HW196965   8.354   1.871   4.907  2.7344  1.9642 -0.9141
31059SOL    HW296966   8.479   1.791   4.875  2.3167  0.2929  1.3339
31060SOL     OW96967   4.275   2.888   9.519  0.0765 -0.1966 -0.6063
31060SOL    HW196968   4.197   2.843   9.486 -1.2051 -1.1256  3.2622
31060SOL    HW296969   4.245   2.977   9.539 -0.4569 -0.8969  2.0328
31061SOL     OW96970   0.155   0.117   2.772  0.1446 -0.4338  0.4550
31061SOL    HW196971   0.148   0.174   2.848 -2.0503 -0.1953  0.1468
31061SOL    HW296972   0.178   0.176   2.700 -2.4031  0.2194  0.0801
31062SOL     OW96973   6.914   7.360   6.825 -0.1482  0.1321 -0.1483
31062SOL    HW196974   6.914   7.424   6.897  3.5214  0.3753 -0.1790
31062SOL    HW296975   6.888   7.411   6.748 -1.3528  0.5331  0.4928
31063SOL     OW96976   3.987   4.084   2.509 -0.3224 -0.4365 -0.1993
31063SOL    HW196977   4.078   4.104   2.532 -0.0932 -1.2018 -0.4128
31063SOL    HW296978   3.974   4.125   2.424 -0.1343 -0.4327 -0.2264
31064SOL     OW96979   2.484   3.245   7.249 -0.2224 -0.1722 -0.4380
31064SOL    HW196980   2.484   3.149   7.244  2.1344 -0.2042 -0.9177
31064SOL    HW296981   2.561   3.266   7.301 -0.7903  1.4996 -0.2096
31065SOL     OW96982   7.400   1.023   7.142 -0.3275  0.6861 -0.5490
31065SOL    HW196983   7.388   1.089   7.074 -0.2610 -1.6355 -3.0189
31065SOL    HW296984   7.331   0.958   7.125 -0.3985  0.0816  1.7451
31066SOL     OW96985   0.927   6.559   9.693  0.3450 -0.0918 -0.3901
31066SOL    HW196986   0.891   6.640   9.657 -0.2541 -0.1379  0.0858
31066SOL    HW296987   0.870   6.539   9.767  0.6451 -0.8093 -0.3481
31067SOL     OW96988   0.501   0.733   2.103 -0.0801  0.0843  0.4537
31067SOL    HW196989   0.408   0.729   2.126 -0.3207 -1.3429 -0.6254
31067SOL    HW296990   0.546   0.702   2.182 -0.5621  0.1160  0.7444
31068SOL     OW96991   3.973   5.932   6.882 -0.2118  0.3399 -0.2879
31068SOL    HW196992   3.975   5.934   6.786  0.9103  0.0780 -0.2910
31068SOL    HW296993   4.017   5.850   6.904 -0.7179  0.2659  0.4506
31069SOL     OW96994   7.438   1.888   7.843  0.0774 -0.5741 -0.6584
31069SOL    HW196995   7.442   1.844   7.928 -2.0021  1.2416  0.4809
31069SOL    HW296996   7.529   1.898   7.816  0.7745 -1.2038  1.3486
31070SOL     OW96997   9.119   7.981   1.201 -0.3962 -0.4133  0.4215
31070SOL    HW196998   9.037   7.979   1.151 -1.0230  1.1262  1.3226
31070SOL    HW296999   9.135   8.073   1.217 -0.2902 -0.8148  3.1414
31071SOL     OW97000   4.708   0.692   4.340 -0.5635  0.0208 -0.1206
31071SOL    HW197001   4.619   0.698   4.307 -0.8329 -0.3052  0.5290
31071SOL    HW297002   4.727   0.598   4.340  0.0768  0.1342 -1.0041
31072SOL     OW97003   5.838   0.922   6.913  0.3293 -0.3376  0.0183
31072SOL    HW197004   5.750   0.913   6.877  0.5700  0.6509 -0.8660
31072SOL    HW297005   5.827   0.977   6.990  0.4535  1.9640 -1.5077
31073SOL     OW97006   0.372   1.792   7.134  0.2753 -0.2130  0.2671
31073SOL    HW197007   0.346   1.795   7.226  0.6358 -2.1616  0.4715
31073SOL    HW297008   0.460   1.755   7.136  0.5902  0.4331 -0.8358
31074SOL     OW97009   9.585   8.183   3.252  0.8443  0.7170  0.3385
31074SOL    HW197010   9.512   8.242   3.270  1.4935  1.0688  2.0459
31074SOL    HW297011   9.592   8.130   3.331  0.2325 -1.7573 -1.1755
31075SOL     OW97012   5.966   3.215   5.319  0.0483  0.0269 -0.4984
31075SOL    HW197013   5.893   3.222   5.380  0.2570 -0.7660 -0.1353
31075SOL    HW297014   5.983   3.120   5.313  1.2387  0.2070 -0.3286
31076SOL     OW97015   1.068   1.025   1.966 -0.5087 -0.1916  0.6580
31076SOL    HW197016   1.025   0.943   1.993 -0.5286 -0.3451  0.1590
31076SOL    HW297017   1.161   1.003   1.961 -0.3892  0.0846  1.5229
31077SOL     OW97018   9.861   8.055   1.688  0.0193  0.0820 -0.1788
31077SOL    HW197019   9.882   8.148   1.674  1.3949  0.4654  3.4153
31077SOL    HW297020   9.786   8.057   1.748 -0.3975 -1.1987 -0.6330
31078SOL     OW97021   8.463   5.893   5.623 -0.1443 -0.4698  0.0001
31078SOL    HW197022   8.551   5.866   5.599 -0.5743 -1.8407 -0.1676
31078SOL    HW297023   8.463   5.895   5.719 -0.5610 -2.9690  0.1254
31079SOL     OW97024   0.718   9.221   5.450  0.1006 -0.0330  0.3920
31079SOL    HW197025   0.748   9.147   5.503  0.6568  1.5439  2.4241
31079SOL    HW297026   0.776   9.293   5.475 -0.9709  1.3307 -0.8538
31080SOL     OW97027   6.230   2.655   5.024  0.6200 -0.5138  0.3052
31080SOL    HW197028   6.315   2.636   4.984  0.7281  1.2917 -0.4347
31080SOL    HW297029   6.178   2.692   4.953 -0.0566  0.4000  1.2499
31081SOL     OW97030   6.952   0.705   2.819  0.2032  0.1480  0.1379
31081SOL    HW197031   6.875   0.744   2.859  1.4016 -0.5036  3.3892
31081SOL    HW297032   6.925   0.685   2.729 -3.3817 -0.0484  1.0946
31082SOL     OW97033   7.341   8.409   7.738 -0.3439 -0.0099  0.8794
31082SOL    HW197034   7.246   8.396   7.741 -0.2894 -2.2171 -2.2498
31082SOL    HW297035   7.359   8.440   7.650  1.9940 -1.8885  0.5857
31083SOL     OW97036   7.395   9.536   8.938 -0.3691  0.0179  0.4466
31083SOL    HW197037   7.464   9.575   8.993  0.0688  0.5453 -0.4631
31083SOL    HW297038   7.421   9.557   8.849 -0.4227 -1.8901 -0.0486
31084SOL     OW97039   9.192   1.421   7.868  0.3544 -0.0648 -0.1365
31084SOL    HW197040   9.282   1.397   7.888  1.0788  2.1991 -0.3765
31084SOL    HW297041   9.190   1.432   7.773  0.3646  1.6866  0.0286
31085SOL     OW97042   0.313   8.822   6.492 -0.2160  0.2169 -0.3426
31085SOL    HW197043   0.260   8.779   6.559 -0.0444  0.7022  0.1119
31085SOL    HW297044   0.258   8.894   6.461  0.7088  1.6430  1.1778
31086SOL     OW97045   4.237   8.423   3.129  0.2590 -0.5079  0.7461
31086SOL    HW197046   4.211   8.360   3.062  0.1872  1.4234 -1.1481
31086SOL    HW297047   4.328   8.402   3.148  0.6011 -0.5185 -0.7321
31087SOL     OW97048   8.199   4.569   3.136 -0.2356  0.5238 -0.1504
31087SOL    HW197049   8.144   4.593   3.062  0.7257 -0.8021 -1.3442
31087SOL    HW297050   8.288   4.584   3.105  0.1767  0.1885  0.8334
31088SOL     OW97051   0.985   3.348   4.464  0.1062 -0.5002 -0.5050
31088SOL    HW197052   0.929   3.282   4.504  0.4204 -0.2343  0.3932
31088SOL    HW297053   0.958   3.350   4.372 -0.9158 -0.8157 -0.2210
31089SOL     OW97054   9.299   2.827   0.576 -0.0556 -0.2844  0.4792
31089SOL    HW197055   9.295   2.753   0.516 -1.7572  0.4339 -0.3691
31089SOL    HW297056   9.369   2.805   0.637  0.8960 -1.6197 -1.0085
31090SOL     OW97057   5.482   5.040   5.987 -0.1665 -0.9452  0.2005
31090SOL    HW197058   5.518   4.954   6.009 -1.3458 -0.9184  2.6301
31090SOL    HW297059   5.395   5.022   5.953 -0.2566 -0.7483  0.3233
31091SOL     OW97060   4.834   0.396   8.717  0.3785  0.2801 -0.3862
31091SOL    HW197061   4.822   0.448   8.797  1.5605  0.6314 -0.4177
31091SOL    HW297062   4.847   0.306   8.748  1.2339  0.4823 -0.1597
31092SOL     OW97063   7.845  10.022   2.161 -0.0368 -0.2597  0.2416
31092SOL    HW197064   7.873   9.930   2.163  0.7519 -0.0862 -1.2893
31092SOL    HW297065   7.887  10.062   2.236  1.9663 -0.5388 -0.6707
31093SOL     OW97066   0.001   2.961   6.150  0.3805  0.0249 -0.2373
31093SOL    HW197067   0.008   3.046   6.192  1.3884 -0.3741  0.4498
31093SOL    HW297068  -0.020   2.980   6.059  0.5288  1.0062 -0.0693
31094SOL     OW97069   2.212   3.539   7.782  0.0449  0.3184 -0.0983
31094SOL    HW197070   2.187   3.489   7.860  1.2078 -0.1679 -0.0123
31094SOL    HW297071   2.160   3.502   7.711 -0.6968  0.4611  0.3636
31095SOL     OW97072  10.049   5.610   5.281  0.3581  0.4932 -0.0235
31095SOL    HW197073  10.101   5.660   5.345 -0.6705  0.8868  0.5225
31095SOL    HW297074  10.039   5.670   5.207 -0.5380  0.9624  0.4682
31096SOL     OW97075   0.759   6.244   4.595 -0.3741  0.0579 -0.0141
31096SOL    HW197076   0.762   6.280   4.506  0.6495  1.5650  0.5984
31096SOL    HW297077   0.667   6.244   4.618 -0.8586 -1.8616 -1.6288
31097SOL     OW97078   9.132  10.258   9.679  0.2327  0.5088 -0.3364
31097SOL    HW197079   9.044  10.280   9.649  0.4205  2.1045  0.1820
31097SOL    HW297080   9.186  10.264   9.600  0.0719  0.7105 -0.4332
31098SOL     OW97081   1.138   6.366   7.365  0.3406 -0.7728 -0.3684
31098SOL    HW197082   1.057   6.413   7.346  0.1939 -0.4958  0.8893
31098SOL    HW297083   1.197   6.389   7.293  1.5443  4.2730  1.7902
31099SOL     OW97084   2.586   1.596   7.620 -0.0955 -0.1370 -0.5833
31099SOL    HW197085   2.541   1.514   7.598  0.4595 -0.6726  0.2353
31099SOL    HW297086   2.612   1.585   7.711 -0.2277  1.0576 -0.3866
31100SOL     OW97087   4.555   4.994  10.192  0.0409 -0.0620 -0.2355
31100SOL    HW197088   4.519   5.055  10.256 -0.2479 -1.0316  0.5528
31100SOL    HW297089   4.646   4.984  10.217 -0.3610 -1.3670  0.7950
31101SOL     OW97090   1.057   8.191   9.534 -0.0724 -0.7846 -0.2498
31101SOL    HW197091   1.098   8.228   9.612 -0.4216 -0.4176 -0.2332
31101SOL    HW297092   1.064   8.096   9.545 -0.0315 -0.7316  0.1771
31102SOL     OW97093   6.872   0.802   1.294 -0.2857 -0.2818 -0.1211
31102SOL    HW197094   6.948   0.852   1.265 -0.0085 -0.3014  0.5627
31102SOL    HW297095   6.800   0.865   1.289 -0.1597 -0.1516 -0.3902
31103SOL     OW97096   0.760   0.769   1.841 -0.2007 -0.4255 -0.0043
31103SOL    HW197097   0.770   0.710   1.915  1.9460 -0.5670 -0.3408
31103SOL    HW297098   0.757   0.711   1.765 -0.5722 -0.2046 -0.1597
31104SOL     OW97099   6.680   6.786   9.356 -0.3870  0.5591  0.2582
31104SOL    HW197100   6.629   6.840   9.416 -1.4616  0.9201 -0.9300
31104SOL    HW297101   6.614   6.743   9.301  0.4865 -1.1955  0.5128
31105SOL     OW97102   3.196   4.156   0.800  0.0947  0.0025 -0.5201
31105SOL    HW197103   3.209   4.096   0.874  0.3759  1.1700  0.4039
31105SOL    HW297104   3.194   4.098   0.723 -2.4067 -1.5090  0.5331
31106SOL     OW97105   1.314   7.377   3.684  0.6832  0.5485  0.2031
31106SOL    HW197106   1.275   7.291   3.698 -0.5014  1.3154  2.0055
31106SOL    HW297107   1.251   7.425   3.631  0.2155  1.0367  1.1705
31107SOL     OW97108   8.752   6.432   7.291 -0.3969 -0.0276  0.6101
31107SOL    HW197109   8.737   6.466   7.380 -0.8075 -2.2663  1.4531
31107SOL    HW297110   8.776   6.341   7.304 -2.2371 -0.9271 -1.6772
31108SOL     OW97111   1.668   4.041   5.679  0.0371  0.2647 -0.2037
31108SOL    HW197112   1.744   4.099   5.670  0.5881 -0.5844 -1.1981
31108SOL    HW297113   1.704   3.958   5.711 -0.4796 -0.0968 -0.5378
31109SOL     OW97114   4.254   3.350   2.085  0.0837  0.1890 -0.0830
31109SOL    HW197115   4.294   3.412   2.145 -2.5753 -0.1803  2.3035
31109SOL    HW297116   4.164   3.342   2.116 -0.5547 -2.4699 -2.2404
31110SOL     OW97117   6.169   3.420   5.296  0.3830 -0.0807  0.0256
31110SOL    HW197118   6.109   3.347   5.312  0.6384 -0.5889 -1.1968
31110SOL    HW297119   6.111   3.496   5.288  0.1303 -0.0861  1.5009
31111SOL     OW97120   2.258   8.159   8.090 -0.3165 -0.0277  0.6506
31111SOL    HW197121   2.165   8.139   8.094 -0.1178 -1.4040 -0.4631
31111SOL    HW297122   2.264   8.241   8.042 -0.9929  0.6640  1.7187
31112SOL     OW97123   5.519   8.469   2.757  0.2833 -0.4419 -0.4720
31112SOL    HW197124   5.523   8.523   2.677  0.8870  1.3519  0.6993
31112SOL    HW297125   5.426   8.452   2.770 -0.0506  1.2697 -0.3274
31113SOL     OW97126  10.290   7.103   1.729 -0.1522  0.2996  0.0767
31113SOL    HW197127  10.199   7.079   1.712  0.2323 -0.3000 -1.3504
31113SOL    HW297128  10.292   7.198   1.721 -0.4116  0.2107 -1.3523
31114SOL     OW97129   7.412   3.090   5.407 -0.0205  0.0730 -0.3214
31114SOL    HW197130   7.408   2.998   5.432 -0.9537 -0.0596 -0.8924
31114SOL    HW297131   7.451   3.090   5.320  1.3876  0.3627  0.2863
31115SOL     OW97132   3.466   0.664   3.866 -0.4486  0.1710 -0.6634
31115SOL    HW197133   3.528   0.656   3.794 -0.1957 -1.9781 -0.2755
31115SOL    HW297134   3.382   0.637   3.829 -0.2916 -1.0730 -0.1559
31116SOL     OW97135   4.082   5.537   1.151  0.4708 -0.0826  0.3520
31116SOL    HW197136   4.174   5.512   1.161  0.0988 -1.1911  1.2388
31116SOL    HW297137   4.046   5.472   1.090 -0.5155 -1.9109  2.7118
31117SOL     OW97138   1.165   7.922   0.294 -0.2214  0.2127 -0.2791
31117SOL    HW197139   1.102   7.965   0.237  0.1330 -1.2610 -1.8629
31117SOL    HW297140   1.222   7.992   0.326 -1.8695  1.3827  0.1917
31118SOL     OW97141   3.569   8.504   1.867 -0.2376 -0.1009 -0.0164
31118SOL    HW197142   3.539   8.585   1.825  2.1551  1.0157  0.2686
31118SOL    HW297143   3.488   8.461   1.897 -1.5710  2.5580  0.5251
31119SOL     OW97144   7.275   5.846   1.760  0.5650 -0.0572  0.3700
31119SOL    HW197145   7.235   5.930   1.735  1.1758  0.1058 -0.0874
31119SOL    HW297146   7.266   5.791   1.682 -0.6959 -0.7588  0.9819
31120SOL     OW97147   5.913   9.850   6.066 -0.0415  0.0872 -0.3722
31120SOL    HW197148   5.870   9.879   6.147 -2.1994  1.2444 -1.8372
31120SOL    HW297149   5.978   9.918   6.048 -1.2019  1.1151 -0.8182
31121SOL     OW97150   3.362   8.833   5.006 -0.1198  0.3735  0.6314
31121SOL    HW197151   3.406   8.763   5.055 -0.2006 -0.0784  0.0714
31121SOL    HW297152   3.278   8.796   4.980  0.4126  0.1442 -0.8984
31122SOL     OW97153   5.144   4.562  10.009  0.2820  0.3592  0.4432
31122SOL    HW197154   5.181   4.555   9.921  0.4823 -1.7496  0.6402
31122SOL    HW297155   5.062   4.610   9.996 -0.1060 -0.6145 -1.0488
31123SOL     OW97156   4.826   1.706   9.508  0.0628 -0.1149  0.1204
31123SOL    HW197157   4.920   1.724   9.511 -0.0184  0.1280  1.3242
31123SOL    HW297158   4.817   1.622   9.554 -0.3331 -0.0572  0.1460
31124SOL     OW97159   9.062   1.093   0.907 -0.2274  0.2177  0.0637
31124SOL    HW197160   9.021   1.104   0.821 -0.0664  0.4291  0.0109
31124SOL    HW297161   8.999   1.130   0.969 -0.2632  0.2373  0.0158
31125SOL     OW97162   5.603   7.048   4.383  0.0749 -0.2046  0.5279
31125SOL    HW197163   5.651   7.070   4.462  0.2011  1.9626 -0.0855
31125SOL    HW297164   5.557   7.128   4.360 -1.3550 -1.3111 -0.6336
31126SOL     OW97165   2.706   3.465  10.179  0.1823  0.2892 -0.1429
31126SOL    HW197166   2.729   3.517  10.256 -1.7284  0.6350  0.2353
31126SOL    HW297167   2.684   3.529  10.112 -0.3433 -0.0179 -0.2669
31127SOL     OW97168   4.977   5.564   9.687 -0.4089  0.2680 -0.5027
31127SOL    HW197169   4.965   5.618   9.765 -0.8455 -0.3608 -0.1233
31127SOL    HW297170   5.064   5.589   9.653 -1.6260  3.1250 -1.8773
31128SOL     OW97171   0.828   7.155   7.463  0.2959  0.1381  0.4541
31128SOL    HW197172   0.846   7.068   7.426 -1.4422  0.0158 -0.1776
31128SOL    HW297173   0.912   7.182   7.500  1.4040 -0.9571 -1.1009
31129SOL     OW97174   5.097   9.435   4.739  0.0016 -0.1488 -0.0121
31129SOL    HW197175   5.048   9.517   4.741 -0.0551 -0.1814 -0.0710
31129SOL    HW297176   5.188   9.461   4.754  0.0189 -0.0476 -0.2931
31130SOL     OW97177   1.092   3.485   9.858  0.3642 -0.0181 -0.3074
31130SOL    HW197178   1.054   3.548   9.798  0.0973 -0.1194 -0.2467
31130SOL    HW297179   1.040   3.494   9.938  0.4521 -0.1731 -0.2326
31131SOL     OW97180   7.412   7.826   2.630 -0.6495 -0.6226 -0.0045
31131SOL    HW197181   7.477   7.859   2.692  1.3032  0.3248 -2.3815
31131SOL    HW297182   7.417   7.731   2.639 -1.6252 -0.5063  2.3699
31132SOL     OW97183   1.754   8.774   7.602 -0.1137 -0.0280 -0.3437
31132SOL    HW197184   1.673   8.725   7.583 -0.1865  0.8843 -2.7601
31132SOL    HW297185   1.810   8.710   7.646 -0.8081 -1.8222 -1.9080
31133SOL     OW97186   7.532  10.255   3.274  0.4158 -0.2276 -0.4714
31133SOL    HW197187   7.438  10.269   3.280  0.3368 -0.0084 -1.9206
31133SOL    HW297188   7.570  10.343   3.282  0.4875 -0.2858 -0.1551
31134SOL     OW97189   0.094   2.163  10.142  0.2360 -0.2881 -0.4963
31134SOL    HW197190   0.116   2.222  10.215  1.5920  0.4514 -1.4568
31134SOL    HW297191   0.027   2.210  10.092  0.1884 -0.2541 -0.4016
31135SOL     OW97192   9.545   1.897   9.741  0.1019  0.0741 -0.4008
31135SOL    HW197193   9.480   1.889   9.811  0.4870 -1.3068 -0.1737
31135SOL    HW297194   9.494   1.924   9.664 -0.7319 -0.8656 -0.2003
31136SOL     OW97195   1.727   5.067   1.437  0.9691 -0.5307  0.1458
31136SOL    HW197196   1.728   5.150   1.389  0.0163 -1.3062 -1.2991
31136SOL    HW297197   1.678   5.086   1.517  0.0377  0.1015 -0.5542
31137SOL     OW97198   1.472   7.792   8.496 -0.3136  0.2322 -0.0391
31137SOL    HW197199   1.429   7.709   8.514  0.7405 -0.1891  0.5842
31137SOL    HW297200   1.477   7.796   8.400  1.0370 -1.1769 -0.0603
31138SOL     OW97201   0.150   9.423   0.080  0.4753 -0.1470  0.0983
31138SOL    HW197202   0.060   9.452   0.088  0.5135 -0.4697  2.5337
31138SOL    HW297203   0.146   9.327   0.085  1.0217 -0.1124  2.0932
31139SOL     OW97204   1.839   6.200   9.255 -0.2864 -0.3767  0.3107
31139SOL    HW197205   1.776   6.156   9.311  0.4072 -0.8932  0.7074
31139SOL    HW297206   1.788   6.267   9.209 -1.2201 -1.1292  0.2156
31140SOL     OW97207   8.162   2.941   8.951  0.0397  0.3035 -0.0290
31140SOL    HW197208   8.124   2.981   9.028  0.7552 -0.8308  0.9495
31140SOL    HW297209   8.124   2.853   8.949 -0.3468  0.4761 -1.2606
31141SOL     OW97210   2.349   7.194   2.958 -0.0635 -0.2881 -0.4256
31141SOL    HW197211   2.367   7.158   3.044  0.7208 -0.9734 -0.8552
31141SOL    HW297212   2.261   7.164   2.937 -0.0638 -0.5355 -0.0738
31142SOL     OW97213   9.897   1.393   4.038  0.1325  0.0375 -0.0652
31142SOL    HW197214   9.905   1.347   4.122  1.0355  0.5752  0.1556
31142SOL    HW297215   9.986   1.395   4.003  0.3084  2.3582  0.3352
31143SOL     OW97216   1.715   6.244   3.070  0.6160  0.7337  0.2631
31143SOL    HW197217   1.704   6.154   3.100 -0.8554  0.8475  0.1632
31143SOL    HW297218   1.671   6.297   3.136 -0.5014  1.1800 -0.7842
31144SOL     OW97219   5.829   0.461   7.440  0.1512  0.3808 -0.0471
31144SOL    HW197220   5.758   0.510   7.482 -0.5665  0.2037 -1.0138
31144SOL    HW297221   5.785   0.405   7.376  0.9418 -1.5529  1.0152
31145SOL     OW97222   4.523   4.607   1.175  0.2325  0.2952  0.2190
31145SOL    HW197223   4.538   4.557   1.095  1.5061  0.0189  0.6203
31145SOL    HW297224   4.582   4.682   1.169 -1.8117  1.9675 -0.4930
31146SOL     OW97225   3.016   3.142   1.089 -0.6221 -0.0645 -0.0674
31146SOL    HW197226   3.010   3.234   1.114 -0.0734 -0.0860  0.1623
31146SOL    HW297227   3.098   3.112   1.127 -0.5948 -0.5448 -0.4910
31147SOL     OW97228   8.312   5.677   5.503  0.4579 -0.2116  0.0685
31147SOL    HW197229   8.349   5.683   5.414 -1.3386 -0.8320 -0.7715
31147SOL    HW297230   8.353   5.750   5.550  1.2722  0.2913 -1.3273
31148SOL     OW97231   4.367   0.910   6.852 -0.6314  0.0310  0.0173
31148SOL    HW197232   4.377   0.817   6.831 -1.5447 -0.3620  1.1603
31148SOL    HW297233   4.326   0.948   6.774  1.1392 -0.1844 -1.0571
31149SOL     OW97234   9.311  10.029   4.551  0.5794 -0.3315  0.1136
31149SOL    HW197235   9.236  10.036   4.610  0.8663  0.9495  0.3694
31149SOL    HW297236   9.285   9.964   4.486 -0.9216  0.3877 -0.0436
31150SOL     OW97237   6.851   2.920   7.208  0.1432 -0.0362  0.4243
31150SOL    HW197238   6.856   3.009   7.175 -1.3476  0.1585  0.6339
31150SOL    HW297239   6.836   2.929   7.302  0.5978 -0.5197  0.5489
31151SOL     OW97240   4.301   9.473   1.648 -0.5725  0.0786  0.0232
31151SOL    HW197241   4.360   9.425   1.705 -1.6651 -1.3919 -0.0334
31151SOL    HW297242   4.350   9.551   1.623  0.2221  0.3974  2.3487
31152SOL     OW97243   4.857   2.549   6.941 -0.1004 -0.0387 -0.2102
31152SOL    HW197244   4.826   2.490   6.872  0.6706 -0.0956 -0.5163
31152SOL    HW297245   4.811   2.632   6.923  0.4934  0.1033 -1.1168
31153SOL     OW97246   3.092   3.720   6.461  0.1568 -0.4188  0.2909
31153SOL    HW197247   3.030   3.705   6.389  1.3702 -1.9449 -0.5027
31153SOL    HW297248   3.159   3.653   6.449  1.9208  1.0876  1.1832
31154SOL     OW97249   5.656   4.932   1.174  0.4700 -0.0620  0.5394
31154SOL    HW197250   5.582   4.874   1.155  1.5520 -1.2710 -0.1466
31154SOL    HW297251   5.654   4.944   1.269 -1.3854  1.0413  0.4099
31155SOL     OW97252   1.197   4.321   7.842 -0.6602  0.9652 -0.1994
31155SOL    HW197253   1.154   4.364   7.917 -2.3022 -3.2962  1.6582
31155SOL    HW297254   1.248   4.250   7.882  0.0926 -0.1967 -3.0315
31156SOL     OW97255   2.056   8.705   7.928  0.9598  0.1155 -0.0354
31156SOL    HW197256   2.143   8.718   7.965  1.0228 -1.1495  0.3230
31156SOL    HW297257   2.047   8.775   7.863  1.9054  0.7614  0.5044
31157SOL     OW97258   1.616   0.925   5.787  0.0069  0.3103 -0.1615
31157SOL    HW197259   1.578   0.853   5.836  1.4339  0.2285  0.8532
31157SOL    HW297260   1.631   0.994   5.852  1.6511  0.3077 -0.5133
31158SOL     OW97261   0.562   3.109   2.330 -0.0832 -0.2942  0.5237
31158SOL    HW197262   0.474   3.112   2.367  0.0322 -0.1429  0.7863
31158SOL    HW297263   0.550   3.072   2.242 -0.6227  1.3021 -0.1115
31159SOL     OW97264   7.930   2.862   1.179  0.2273  0.0431 -0.1455
31159SOL    HW197265   7.897   2.864   1.090  0.2430 -0.3929 -0.1656
31159SOL    HW297266   7.917   2.950   1.212 -1.6430 -0.2894  0.1000
31160SOL     OW97267   1.182   3.194   5.651  0.4251 -0.5275  0.5369
31160SOL    HW197268   1.238   3.147   5.712  2.5389  0.5275 -0.4582
31160SOL    HW297269   1.198   3.287   5.670 -0.6564 -0.1882 -0.1006
31161SOL     OW97270   3.077   5.626   4.276  0.1279  0.0377  0.8135
31161SOL    HW197271   3.062   5.582   4.359  0.6489 -1.2099  0.2635
31161SOL    HW297272   2.993   5.670   4.257 -0.2838 -0.4081  1.5427
31162SOL     OW97273   3.105   6.065   7.602  0.3447 -0.4710  0.2074
31162SOL    HW197274   3.118   6.000   7.533 -0.4317  1.2458 -1.6498
31162SOL    HW297275   3.052   6.019   7.668  0.6590 -2.0019 -0.5435
31163SOL     OW97276   2.580   8.082   4.048  0.0700 -0.4866 -0.0731
31163SOL    HW197277   2.510   8.017   4.056  0.6336 -1.1123 -0.1279
31163SOL    HW297278   2.660   8.030   4.034  0.4992  0.2242 -0.3282
31164SOL     OW97279   9.157   2.999   5.076 -0.2180 -0.2454 -0.3876
31164SOL    HW197280   9.213   2.923   5.090  1.8827  1.0671 -1.0760
31164SOL    HW297281   9.172   3.054   5.152 -0.0041  0.4345 -0.9083
31165SOL     OW97282   8.642   6.808   3.216  0.1022 -0.0679  0.1996
31165SOL    HW197283   8.708   6.797   3.147  0.8559  0.1345  0.8832
31165SOL    HW297284   8.564   6.766   3.180  1.2592 -2.5281  0.3495
31166SOL     OW97285   1.646   0.167   1.069 -0.6912  0.8198 -0.2267
31166SOL    HW197286   1.658   0.255   1.031 -2.7851  1.2853  0.0909
31166SOL    HW297287   1.586   0.181   1.142 -0.3556 -0.7715  0.3777
31167SOL     OW97288   9.349   1.002   6.338 -0.7501 -0.3127  0.3069
31167SOL    HW197289   9.294   1.057   6.392 -1.4962  1.3107 -1.9590
31167SOL    HW297290   9.299   0.921   6.326 -1.5236  0.1608  0.3175
31168SOL     OW97291   7.522   1.599   5.043  0.1798  0.0478 -0.1412
31168SOL    HW197292   7.552   1.509   5.057  0.7859  0.0634 -1.1951
31168SOL    HW297293   7.527   1.640   5.129  1.5079 -0.4626  0.0580
31169SOL     OW97294  10.211   8.794   7.541 -0.4287  0.6448  0.0963
31169SOL    HW197295  10.152   8.869   7.555 -1.8988 -0.7731  2.0818
31169SOL    HW297296  10.155   8.726   7.503  0.7790  0.3544 -1.2565
31170SOL     OW97297   7.472   7.385   7.098 -0.2617 -0.2699  0.2053
31170SOL    HW197298   7.519   7.305   7.073 -2.7149 -1.7064 -0.0895
31170SOL    HW297299   7.536   7.455   7.084  1.3668 -1.9536 -1.4117
31171SOL     OW97300   1.795   6.245   1.796 -0.4001 -0.7291 -0.0020
31171SOL    HW197301   1.752   6.243   1.711 -1.4147 -0.2791  0.4843
31171SOL    HW297302   1.861   6.314   1.788 -0.2828 -0.8964 -0.5127
31172SOL     OW97303   9.649   1.903   7.598 -0.6523 -0.4115  0.0039
31172SOL    HW197304   9.701   1.826   7.575 -1.3850 -0.7622 -0.4968
31172SOL    HW297305   9.561   1.885   7.565 -1.4574 -0.3954  1.9561
31173SOL     OW97306   6.792  10.337   1.767 -0.1875  0.4783  0.0643
31173SOL    HW197307   6.877  10.305   1.738  0.3453  2.0630 -0.2005
31173SOL    HW297308   6.754  10.263   1.814  1.5060 -0.1248  0.5628
31174SOL     OW97309   7.569   6.716   6.384  0.1880  0.5106  0.1248
31174SOL    HW197310   7.545   6.803   6.416 -0.1258  0.2917  0.4873
31174SOL    HW297311   7.565   6.660   6.461 -0.6353 -0.0390 -0.3050
31175SOL     OW97312   1.986   3.075  10.084  0.3161  0.0297  0.0982
31175SOL    HW197313   1.931   3.006  10.122  0.2607  0.0156 -0.0091
31175SOL    HW297314   2.024   3.035  10.006 -1.2207  0.7389 -1.0493
31176SOL     OW97315  10.297   1.146   6.945  0.2445  0.1420  0.6163
31176SOL    HW197316  10.374   1.203   6.951  1.5907 -1.4906 -0.2940
31176SOL    HW297317  10.321   1.067   6.994 -2.1727  0.8564  3.1811
31177SOL     OW97318   8.611   5.767   2.824  0.2016  0.1764  0.0868
31177SOL    HW197319   8.553   5.745   2.751 -1.5195  1.4125  0.9953
31177SOL    HW297320   8.697   5.734   2.798 -0.6494 -0.6523 -1.8579
31178SOL     OW97321   9.157   3.831   8.000  0.2392  0.6706 -0.3214
31178SOL    HW197322   9.236   3.780   8.021  0.2234  0.8608  0.2135
31178SOL    HW297323   9.123   3.859   8.085 -1.5334 -1.0603 -0.3902
31179SOL     OW97324   2.500   2.398   2.726 -0.5856  0.3350  0.6997
31179SOL    HW197325   2.573   2.357   2.773  0.2148  1.2074  0.2447
31179SOL    HW297326   2.524   2.388   2.634 -1.2855  0.2010  0.5326
31180SOL     OW97327   1.308   8.808   5.048 -0.1663 -0.6447  0.0884
31180SOL    HW197328   1.257   8.863   5.108 -0.1695  1.0822 -1.4039
31180SOL    HW297329   1.398   8.814   5.082  0.2507  2.1812 -1.2395
31181SOL     OW97330   7.494   0.325   4.487 -0.0996  0.6221 -0.1590
31181SOL    HW197331   7.564   0.300   4.427 -0.1458 -0.6118  0.2712
31181SOL    HW297332   7.523   0.293   4.573 -0.2708  1.9021  0.4109
31182SOL     OW97333   2.652   5.415   0.996 -0.1902 -0.2197  0.0019
31182SOL    HW197334   2.700   5.332   1.000  1.5506  0.7399 -0.0475
31182SOL    HW297335   2.707   5.472   0.942 -2.1254  0.5056 -1.2932
31183SOL     OW97336   1.432   6.691   9.476  0.2630 -0.0292 -0.2002
31183SOL    HW197337   1.481   6.734   9.546 -0.9984  2.4382 -0.7232
31183SOL    HW297338   1.468   6.728   9.396  0.5367 -1.5664 -0.8310
31184SOL     OW97339   7.147   6.001   6.248  0.5245  0.0739 -0.4571
31184SOL    HW197340   7.103   6.080   6.217  0.4149  0.0726 -0.3046
31184SOL    HW297341   7.085   5.931   6.232  1.1946 -0.2085 -1.9773
31185SOL     OW97342   9.324   7.285   7.806  0.2602 -0.2016 -0.0547
31185SOL    HW197343   9.307   7.194   7.784  3.8890 -0.4673 -2.5328
31185SOL    HW297344   9.403   7.283   7.859  0.2961  1.5184  0.0392
31186SOL     OW97345   5.649   8.435   8.044 -0.0905  0.0060  0.0590
31186SOL    HW197346   5.553   8.439   8.047 -0.2042  0.3578 -2.0918
31186SOL    HW297347   5.668   8.388   7.963  1.5410  1.4950 -0.4961
31187SOL     OW97348   4.621   4.266   8.764 -0.2780  0.1838  0.3159
31187SOL    HW197349   4.635   4.358   8.741  1.2894  0.2075  1.2635
31187SOL    HW297350   4.651   4.259   8.854 -2.2754 -0.8447  0.9452
31188SOL     OW97351   8.427   9.015   9.434 -0.1900 -0.4259  0.3249
31188SOL    HW197352   8.474   9.048   9.357  1.6483 -0.3803  1.4066
31188SOL    HW297353   8.413   8.922   9.417 -3.3725  0.2870 -1.7471
31189SOL     OW97354   5.128   3.624   7.903 -0.6875 -0.3060 -0.5798
31189SOL    HW197355   5.217   3.641   7.935 -1.0272  1.7604 -0.6161
31189SOL    HW297356   5.098   3.550   7.955  0.6617 -0.3420  0.1945
31190SOL     OW97357   3.227   7.617   0.402  0.1746 -0.3394 -0.0681
31190SOL    HW197358   3.151   7.559   0.410  0.1028 -0.2651 -0.2015
31190SOL    HW297359   3.294   7.562   0.360 -0.0754 -0.1668 -0.7122
31191SOL     OW97360   4.212   7.893   2.314 -0.3726 -0.8869 -0.0535
31191SOL    HW197361   4.147   7.935   2.370 -0.5352 -1.6856  0.3747
31191SOL    HW297362   4.212   7.801   2.341 -0.1659 -1.2114 -1.0925
31192SOL     OW97363   2.450   1.007   6.880 -0.4556  0.2847  0.8546
31192SOL    HW197364   2.492   1.072   6.936 -1.7880  1.8339  0.1430
31192SOL    HW297365   2.493   1.017   6.795  0.4835 -0.9745  1.1459
31193SOL     OW97366   7.272   1.335   5.290 -0.3152 -0.4396 -0.2999
31193SOL    HW197367   7.277   1.431   5.292  1.0652 -0.5051  0.6962
31193SOL    HW297368   7.361   1.307   5.271 -0.5241 -1.5503  0.2688
31194SOL     OW97369   2.202   6.632   1.700 -0.4004 -0.3174  0.1293
31194SOL    HW197370   2.159   6.547   1.708  0.6484 -0.7863  0.9399
31194SOL    HW297371   2.275   6.617   1.640 -0.2549  0.0399  0.2126
31195SOL     OW97372   4.169  10.013   9.054  0.9925  0.2218  0.0463
31195SOL    HW197373   4.187  10.079   8.986  0.6115  0.0335 -0.2389
31195SOL    HW297374   4.166  10.063   9.135 -0.5234  0.7712 -0.3060
31196SOL     OW97375   4.355   3.916   8.871  0.4758 -0.1405  0.3355
31196SOL    HW197376   4.397   3.954   8.948  1.6292 -0.4347 -0.1299
31196SOL    HW297377   4.351   3.822   8.889 -0.7720 -0.0359  0.7286
31197SOL     OW97378   9.539   3.201   6.803  0.2026 -0.8239  0.5938
31197SOL    HW197379   9.618   3.237   6.843  0.6583 -1.3988  0.2227
31197SOL    HW297380   9.571   3.135   6.742 -0.6289 -3.2404  2.6035
31198SOL     OW97381   1.442   2.122   0.668  0.2017  0.7923  0.1047
31198SOL    HW197382   1.361   2.095   0.625  0.0272 -0.7074  1.3016
31198SOL    HW297383   1.416   2.144   0.757  1.2594 -0.8822  0.8692
31199SOL     OW97384   1.555   1.472   4.530  0.4739 -0.4438 -0.1318
31199SOL    HW197385   1.503   1.503   4.456  0.5287 -0.0447 -0.0070
31199SOL    HW297386   1.529   1.381   4.541 -0.1435 -0.2733 -0.1214
31200SOL     OW97387   2.485   2.936   1.819  0.2715 -0.2915 -0.0236
31200SOL    HW197388   2.513   2.848   1.844 -0.1436 -0.6702 -0.8392
31200SOL    HW297389   2.478   2.932   1.723 -0.5090  0.3965 -0.0052
31201SOL     OW97390   7.093   5.560   5.374 -0.2242 -0.2466 -0.2711
31201SOL    HW197391   6.998   5.553   5.364 -0.0648 -0.0214 -2.3115
31201SOL    HW297392   7.129   5.506   5.304  1.2509 -2.5486  2.0717
31202SOL     OW97393   2.838  10.125   1.130  0.2355 -0.0523  0.0836
31202SOL    HW197394   2.848  10.044   1.080 -0.6961 -1.4174  1.9742
31202SOL    HW297395   2.872  10.193   1.073  1.0379 -1.7694 -1.5849
31203SOL     OW97396   4.467   6.614   9.522  0.3701  0.0054 -0.2995
31203SOL    HW197397   4.536   6.595   9.585  0.8917  0.7846 -0.6163
31203SOL    HW297398   4.510   6.664   9.453 -0.4994  0.4588 -0.5378
31204SOL     OW97399   8.429   1.719   0.405 -0.0085  0.0356  0.0646
31204SOL    HW197400   8.426   1.737   0.312  2.7978 -0.1668 -0.1613
31204SOL    HW297401   8.371   1.644   0.417  0.0531 -0.3235 -1.6407
31205SOL     OW97402   7.653   4.382   5.207  0.0446 -0.8158 -0.6422
31205SOL    HW197403   7.733   4.371   5.156  0.4805 -1.4363  0.1711
31205SOL    HW297404   7.655   4.312   5.272 -1.0407 -0.6932 -0.4593
31206SOL     OW97405   1.574   1.170   1.550  0.0544 -0.1405 -0.3004
31206SOL    HW197406   1.504   1.231   1.574  2.1916  2.0048  0.9116
31206SOL    HW297407   1.550   1.088   1.594 -0.9535  0.9828  1.3819
31207SOL     OW97408  10.206   1.329   1.514  0.7964  1.0185 -0.3436
31207SOL    HW197409  10.282   1.382   1.538  0.5949  0.8942  0.6094
31207SOL    HW297410  10.183   1.282   1.594  0.7143 -0.2009 -1.0515
31208SOL     OW97411  10.107   5.852   5.137  0.7132 -0.0249 -0.4725
31208SOL    HW197412  10.084   5.909   5.063 -0.7100  0.7957  0.5400
31208SOL    HW297413  10.202   5.847   5.135  0.9023  2.4585 -0.5762
31209SOL     OW97414   1.903   2.955   1.453  0.1535 -0.5065 -0.5137
31209SOL    HW197415   1.841   2.932   1.383 -1.8102  1.0597  0.5815
31209SOL    HW297416   1.896   3.050   1.459  1.4839 -0.4695  0.7536
31210SOL     OW97417   8.037   4.267   2.142  0.4291  0.3541  0.1002
31210SOL    HW197418   7.944   4.245   2.136  0.3438  1.0063 -1.8548
31210SOL    HW297419   8.079   4.210   2.078  1.0061  1.6983 -0.7706
31211SOL     OW97420   6.198   2.836   7.326 -0.1612 -0.0188  0.1686
31211SOL    HW197421   6.175   2.746   7.304 -0.1581 -0.0629  0.3408
31211SOL    HW297422   6.207   2.835   7.422  0.9357 -0.0978  0.0842
31212SOL     OW97423   2.923   3.405   5.516 -0.4159 -0.0521 -0.3054
31212SOL    HW197424   2.844   3.422   5.568 -0.8771 -0.3557 -0.8893
31212SOL    HW297425   2.904   3.444   5.431  0.4127  0.6186 -0.1891
31213SOL     OW97426   5.648  10.288   7.809 -0.1847  0.6581 -0.0403
31213SOL    HW197427   5.571  10.291   7.865  0.9166  0.1824  1.5784
31213SOL    HW297428   5.693  10.207   7.834  1.0050  1.0910 -0.6954
31214SOL     OW97429   9.190   0.724   0.646  0.3730 -0.4278  0.6142
31214SOL    HW197430   9.260   0.748   0.586 -0.7557 -3.1543 -2.0541
31214SOL    HW297431   9.212   0.635   0.674 -0.8473 -0.4521  1.6129
31215SOL     OW97432   4.839   3.287   7.563 -0.5915 -0.3167 -0.1774
31215SOL    HW197433   4.762   3.237   7.593 -0.2261 -0.7307  0.0813
31215SOL    HW297434   4.809   3.378   7.561 -1.2847 -0.5402 -0.7019
31216SOL     OW97435   1.010   2.096   3.691 -0.1913  0.3603 -0.0079
31216SOL    HW197436   0.970   2.062   3.771  0.0206  0.2180  0.0383
31216SOL    HW297437   1.063   2.023   3.658  0.1224  0.5838 -0.0055
31217SOL     OW97438   6.925   5.417   7.717 -0.0622  0.3968 -0.1054
31217SOL    HW197439   6.900   5.344   7.774  0.0697  0.2564 -0.2270
31217SOL    HW297440   6.864   5.487   7.740 -0.5253  0.0806 -0.3497
31218SOL     OW97441   6.044   5.022   8.283  0.2581  0.1179 -0.3286
31218SOL    HW197442   6.039   5.027   8.187  1.4238  3.1829 -0.3431
31218SOL    HW297443   5.956   4.994   8.309 -0.3237 -0.0687 -2.2736
31219SOL     OW97444   4.278   2.603   2.816 -0.3807 -0.0304 -0.0979
31219SOL    HW197445   4.193   2.647   2.808 -0.4761 -0.4596 -1.9000
31219SOL    HW297446   4.342   2.668   2.787 -0.2094 -0.0799  0.1665
31220SOL     OW97447   5.506   4.007   8.230  0.2142  0.4788 -0.4122
31220SOL    HW197448   5.586   4.016   8.282  0.9485 -0.0501 -1.4064
31220SOL    HW297449   5.468   4.095   8.228 -0.0937  0.4249  1.3840
31221SOL     OW97450   4.452   1.838   9.095  0.0691  0.3459  0.3244
31221SOL    HW197451   4.446   1.746   9.067  0.0282  0.7200 -0.9629
31221SOL    HW297452   4.402   1.841   9.177  0.3203 -0.8382  0.5382
31222SOL     OW97453   4.915   3.126   5.294  0.2345 -0.2746 -0.4890
31222SOL    HW197454   4.851   3.079   5.241  0.2461 -0.9429  0.0694
31222SOL    HW297455   4.947   3.061   5.356  1.1136  0.1726 -0.4536
31223SOL     OW97456   1.340   2.393   9.317  0.2443  0.0518 -0.0630
31223SOL    HW197457   1.403   2.433   9.257  0.6932 -1.3779 -0.5936
31223SOL    HW297458   1.383   2.395   9.402 -0.1446  1.5496  0.1181
31224SOL     OW97459   6.278   0.631   0.756  0.1943  0.7763  0.2264
31224SOL    HW197460   6.234   0.716   0.752 -0.6022  0.3646 -0.0993
31224SOL    HW297461   6.370   0.650   0.738  0.0879  1.6087  0.5166
31225SOL     OW97462   9.613   6.279   9.357  0.0384  0.2164 -0.0880
31225SOL    HW197463   9.589   6.187   9.362 -0.8429  0.3529 -1.2516
31225SOL    HW297464   9.698   6.285   9.400 -0.3387 -0.9605  0.8558
31226SOL     OW97465   2.165   1.567   8.828  0.5042 -0.0980 -0.1504
31226SOL    HW197466   2.101   1.499   8.806 -1.3210  2.4695 -3.6958
31226SOL    HW297467   2.144   1.590   8.919 -1.2336 -1.8013 -0.0492
31227SOL     OW97468   4.277   8.372   1.394 -0.2346  0.7640  0.0739
31227SOL    HW197469   4.207   8.383   1.330 -0.0414  0.6368 -0.1635
31227SOL    HW297470   4.233   8.352   1.476 -0.4210 -1.1860 -0.4577
31228SOL     OW97471   0.268   1.506   3.385 -0.0226  0.1868  0.4403
31228SOL    HW197472   0.262   1.491   3.290 -0.9410 -3.8946  0.9493
31228SOL    HW297473   0.344   1.454   3.412  0.0699  1.0878  2.0223
31229SOL     OW97474   2.115   1.554   5.578  0.2199 -0.3395  0.1198
31229SOL    HW197475   2.119   1.477   5.521 -0.1540  0.5881 -1.2119
31229SOL    HW297476   2.062   1.525   5.652 -0.2056 -1.2714 -0.5132
31230SOL     OW97477   8.810   5.206   5.877  0.2714 -0.3472  0.8521
31230SOL    HW197478   8.832   5.145   5.807  2.5941 -1.2396  2.2611
31230SOL    HW297479   8.792   5.150   5.952 -1.8845  0.6040  1.1138
31231SOL     OW97480   9.621   4.517   5.204 -0.1529  0.1980  0.3979
31231SOL    HW197481   9.570   4.436   5.207 -1.2789  0.8151 -1.0489
31231SOL    HW297482   9.597   4.563   5.285  0.2370 -0.7224  1.0606
31232SOL     OW97483   8.106   5.318   4.262 -0.1611 -0.1645  0.8091
31232SOL    HW197484   8.021   5.344   4.299  0.2336 -1.1897  2.5756
31232SOL    HW297485   8.090   5.233   4.221  0.0346 -0.5093  1.4173
31233SOL     OW97486   9.119   4.518   2.214  0.0516 -0.0688 -0.0008
31233SOL    HW197487   9.059   4.521   2.140  0.8759  0.0349 -0.6910
31233SOL    HW297488   9.074   4.466   2.280 -0.5076 -0.5833 -0.7712
31234SOL     OW97489   2.693   8.070   1.592  0.3908 -0.1360  0.3270
31234SOL    HW197490   2.651   7.984   1.601 -0.0700  0.0860  0.3039
31234SOL    HW297491   2.786   8.050   1.580  0.2963 -0.6294  0.4045
31235SOL     OW97492   4.107   4.481   5.578  0.2533  0.2599 -0.4576
31235SOL    HW197493   4.091   4.440   5.493  3.0117 -1.3678 -0.3452
31235SOL    HW297494   4.073   4.418   5.642 -1.6849  1.4130 -0.2978
31236SOL     OW97495   0.687   2.647   0.178  0.0945  0.8950 -0.1594
31236SOL    HW197496   0.679   2.641   0.273  0.4299  2.9432  0.0409
31236SOL    HW297497   0.740   2.726   0.163 -3.5614  3.2886 -2.1023
31237SOL     OW97498   8.840   8.334   2.093 -0.2606  0.0774  0.7257
31237SOL    HW197499   8.745   8.318   2.098 -0.2911 -0.3542 -0.7140
31237SOL    HW297500   8.870   8.328   2.184 -1.5695 -0.0275  1.1812
31238SOL     OW97501   1.335   9.845   0.187  0.1724 -0.4534  0.4115
31238SOL    HW197502   1.327   9.805   0.273  1.0938  0.4162  0.9197
31238SOL    HW297503   1.366   9.774   0.130 -2.0959 -1.4890  0.3661
31239SOL     OW97504   9.658   7.793   8.608  0.4305 -0.1510  0.0344
31239SOL    HW197505   9.647   7.720   8.669  1.0126  0.7205  1.2113
31239SOL    HW297506   9.740   7.773   8.562  1.3780  0.4758  1.4071
31240SOL     OW97507   3.717   2.383   6.469  0.0142 -0.3732 -0.0414
31240SOL    HW197508   3.631   2.340   6.470  0.0761 -0.4950 -0.0209
31240SOL    HW297509   3.722   2.428   6.553 -0.1994 -0.0312 -0.2060
31241SOL     OW97510   5.713   9.202   0.842 -0.4447  0.2058 -0.2251
31241SOL    HW197511   5.779   9.163   0.786 -1.6929 -2.1280 -0.1794
31241SOL    HW297512   5.720   9.296   0.825  2.6715  0.0425 -0.3823
31242SOL     OW97513   8.745   0.481   2.150 -0.3645  0.0105  0.1228
31242SOL    HW197514   8.683   0.408   2.152  0.2763 -0.5668  2.6148
31242SOL    HW297515   8.772   0.487   2.058 -1.3448 -2.1023 -0.3710
31243SOL     OW97516   3.577   2.808   7.392  0.5031  0.1418 -0.0591
31243SOL    HW197517   3.639   2.761   7.447  1.3209  1.1429 -0.0918
31243SOL    HW297518   3.510   2.743   7.369  2.8329 -1.7359 -2.1098
31244SOL     OW97519   1.747   5.975   7.051 -0.2869 -0.1335  0.1819
31244SOL    HW197520   1.780   6.063   7.071 -1.4000  0.1030  1.0625
31244SOL    HW297521   1.743   5.973   6.955 -0.5409  0.9079  0.1564
31245SOL     OW97522   3.667   2.583   3.977  0.4600 -0.4658  0.1652
31245SOL    HW197523   3.655   2.491   3.953 -2.0121 -0.0954 -0.3109
31245SOL    HW297524   3.660   2.631   3.895  2.2795  0.1622  0.3290
31246SOL     OW97525   4.097   9.703   1.168  0.0693  0.4406  0.2949
31246SOL    HW197526   4.103   9.781   1.223  1.0767  1.6118 -1.3798
31246SOL    HW297527   4.036   9.727   1.098  0.7632 -0.0775 -0.5131
31247SOL     OW97528   2.382   9.312   6.167  0.8693  0.0466 -0.2555
31247SOL    HW197529   2.316   9.376   6.139  0.1095 -0.7402 -0.3243
31247SOL    HW297530   2.362   9.297   6.260 -0.0453 -1.3154 -0.6367
31248SOL     OW97531   7.728   6.883   7.402  0.0102  0.3909 -0.2421
31248SOL    HW197532   7.821   6.862   7.397  0.0311  0.7217 -1.4473
31248SOL    HW297533   7.688   6.802   7.433  0.5539 -0.1833 -1.0006
31249SOL     OW97534   2.663   7.228   1.886  0.0328  0.1611 -0.2974
31249SOL    HW197535   2.614   7.151   1.858 -0.3633  0.3306 -0.0760
31249SOL    HW297536   2.601   7.279   1.938  1.1116 -0.7920  2.0744
31250SOL     OW97537   4.971   9.068   0.636 -0.6226 -0.0320 -0.3954
31250SOL    HW197538   4.893   9.033   0.678  0.4810 -2.2663 -0.0302
31250SOL    HW297539   5.023   9.105   0.707 -0.3757 -0.5545 -0.2972
31251SOL     OW97540   5.027   4.995   3.155 -0.0334 -0.4098  0.0729
31251SOL    HW197541   5.036   5.065   3.220  0.7463 -1.3380  1.0072
31251SOL    HW297542   5.117   4.979   3.125 -0.3356 -0.2834 -0.9431
31252SOL     OW97543   5.863   6.109   0.359 -0.3019 -0.3619  0.2599
31252SOL    HW197544   5.823   6.191   0.390 -0.1876 -0.3124  0.2762
31252SOL    HW297545   5.789   6.052   0.341 -0.6463  0.9279 -3.1313
31253SOL     OW97546   9.052   7.549   2.809 -0.1953 -0.1672  0.8387
31253SOL    HW197547   8.980   7.613   2.813 -0.8072 -0.8335  0.7245
31253SOL    HW297548   9.079   7.550   2.717 -1.0221 -0.9426  0.5741
31254SOL     OW97549   8.676   1.270   2.706 -0.0640 -0.5838  0.4956
31254SOL    HW197550   8.722   1.353   2.692 -0.0720 -0.8144 -1.0854
31254SOL    HW297551   8.673   1.260   2.801 -0.8088  1.6536  0.7871
31255SOL     OW97552   6.270   9.690   1.300  0.4918  0.0422  0.0425
31255SOL    HW197553   6.276   9.658   1.390  0.8644  0.5737  0.2119
31255SOL    HW297554   6.326   9.631   1.250 -0.0703 -0.5308  0.0751
31256SOL     OW97555   6.949   2.270   1.651 -0.1680 -0.3159 -0.4325
31256SOL    HW197556   6.953   2.230   1.565  1.4815  0.8237 -0.9187
31256SOL    HW297557   6.922   2.360   1.635  0.4636 -0.0017  0.1997
31257SOL     OW97558   6.716   5.661   5.957  0.4761 -0.1589 -0.5428
31257SOL    HW197559   6.755   5.683   5.872 -0.0308 -0.7374 -0.9235
31257SOL    HW297560   6.664   5.738   5.980  0.3656 -0.1283 -0.8989
31258SOL     OW97561   6.560   7.013   2.741  0.0425 -0.5221  0.1650
31258SOL    HW197562   6.524   7.037   2.827  0.4597  0.3570  0.1017
31258SOL    HW297563   6.523   7.078   2.681  0.3164 -0.7062 -0.2028
31259SOL     OW97564   4.088   2.915   8.865 -0.0815  0.0814  0.0261
31259SOL    HW197565   4.182   2.923   8.850  0.5124  0.0299  3.0724
31259SOL    HW297566   4.081   2.880   8.954 -3.0014  0.7652  0.1560
31260SOL     OW97567   4.507   3.755   7.996 -1.0160 -0.1563 -0.4704
31260SOL    HW197568   4.456   3.815   7.942 -1.2647  0.1133  0.0599
31260SOL    HW297569   4.595   3.792   7.995 -1.3843  0.7931  0.6781
31261SOL     OW97570   0.627   1.349   4.958 -0.7563  0.0279  0.2623
31261SOL    HW197571   0.599   1.439   4.976 -0.3612  0.0183  0.9845
31261SOL    HW297572   0.699   1.359   4.896  0.2339  0.3327  1.4039
31262SOL     OW97573   7.832   5.204   3.345  0.3551 -0.0448 -0.4690
31262SOL    HW197574   7.878   5.277   3.303  0.2847  0.3324  0.0934
31262SOL    HW297575   7.759   5.246   3.392  0.0565 -0.5262 -0.4961
31263SOL     OW97576   6.830  10.105   0.162  0.1408  0.3091 -0.1888
31263SOL    HW197577   6.825  10.119   0.068  1.2098 -1.6071 -0.5837
31263SOL    HW297578   6.764  10.038   0.179  0.6272 -0.0617  0.2575
31264SOL     OW97579   5.939   1.243   1.080  0.4812  0.0384  0.0730
31264SOL    HW197580   5.939   1.302   1.005 -0.6625  1.1200  0.8729
31264SOL    HW297581   5.984   1.291   1.149  2.1167 -1.2098 -0.0715
31265SOL     OW97582   8.420   6.146   2.907  0.0774 -0.0665 -0.3635
31265SOL    HW197583   8.475   6.179   2.836 -0.8377  0.5705 -0.7941
31265SOL    HW297584   8.331   6.151   2.873 -0.4730  1.0958  1.1251
31266SOL     OW97585   5.604   3.711   4.905 -0.3418  0.6131  0.1774
31266SOL    HW197586   5.599   3.803   4.878  0.9111 -0.0209 -2.5626
31266SOL    HW297587   5.513   3.686   4.923 -0.7810  2.1901  0.2546
31267SOL     OW97588   5.957   5.441   4.977 -0.4599  0.2395 -0.3392
31267SOL    HW197589   5.892   5.372   4.970 -0.6856  0.4031  0.0799
31267SOL    HW297590   6.021   5.407   5.039 -0.5429  0.3828 -0.1741
31268SOL     OW97591   7.307   9.536   9.237 -0.1993 -0.6025 -0.1015
31268SOL    HW197592   7.345   9.515   9.152  0.6619  0.6867 -0.0775
31268SOL    HW297593   7.271   9.624   9.226 -0.0032 -0.3870  0.8824
31269SOL     OW97594   0.578   0.206   9.699  0.3849 -0.4397  0.2144
31269SOL    HW197595   0.619   0.256   9.769  1.1261 -1.6185  0.6544
31269SOL    HW297596   0.620   0.238   9.619  0.7152 -0.2363  0.4658
31270SOL     OW97597   0.283   2.273   1.235 -0.5177 -0.1371  0.5116
31270SOL    HW197598   0.214   2.287   1.171 -1.0045  0.2530  1.1041
31270SOL    HW297599   0.339   2.350   1.227 -0.3709 -0.2646  0.3034
31271SOL     OW97600   7.656   3.337   9.152 -0.1851 -0.6211 -0.0851
31271SOL    HW197601   7.696   3.374   9.073  0.4934 -0.0602  0.5073
31271SOL    HW297602   7.694   3.250   9.160  0.4625 -0.3246  0.1324
31272SOL     OW97603   2.006   9.003   9.307 -0.0306 -1.1899  0.3225
31272SOL    HW197604   1.965   9.087   9.285 -0.1643 -1.4165 -0.3217
31272SOL    HW297605   1.933   8.941   9.311  0.0133 -1.2019  1.2317
31273SOL     OW97606   3.838   6.858   9.327  0.4738  0.0166  0.3657
31273SOL    HW197607   3.853   6.775   9.371  1.3306  0.3453  0.7024
31273SOL    HW297608   3.810   6.833   9.238 -2.2929 -0.6722  1.3170
31274SOL     OW97609   2.538   5.984   6.148 -0.0343  0.2203 -0.4044
31274SOL    HW197610   2.516   6.054   6.209 -0.0073  0.9151 -1.1821
31274SOL    HW297611   2.493   6.007   6.067  1.3781  0.2683 -1.2093
31275SOL     OW97612   0.350  10.222   1.591 -0.6423 -0.5511  0.0735
31275SOL    HW197613   0.268  10.183   1.561 -1.8912 -1.8024  4.4134
31275SOL    HW297614   0.324  10.305   1.631  0.5529  0.0116 -0.2498
31276SOL     OW97615   7.441   7.601   3.619  0.5745  0.0333 -0.1246
31276SOL    HW197616   7.471   7.615   3.529  0.1263  0.3397 -0.2306
31276SOL    HW297617   7.489   7.666   3.670  0.4646  0.1878 -0.2172
31277SOL     OW97618   4.094   6.240   0.732  0.7237 -0.5426 -0.6353
31277SOL    HW197619   4.079   6.334   0.721  0.2816 -0.6145 -0.6547
31277SOL    HW297620   4.171   6.235   0.790 -0.2488 -0.1528  0.7462
31278SOL     OW97621   3.813   9.863   6.377  0.1337  0.2063  0.3561
31278SOL    HW197622   3.871   9.928   6.338 -0.1243 -0.4472 -1.1852
31278SOL    HW297623   3.725   9.897   6.361 -0.0359 -0.8469 -1.1503
31279SOL     OW97624   3.903   2.728   8.096  0.0058  0.2314 -0.0260
31279SOL    HW197625   3.916   2.821   8.077  2.7698 -0.1063 -0.2012
31279SOL    HW297626   3.967   2.709   8.165 -2.2801 -1.0210  1.8878
31280SOL     OW97627   6.273   5.057   7.280 -0.1315  0.7646 -0.4822
31280SOL    HW197628   6.184   5.053   7.315 -0.2787  1.5159 -0.7631
31280SOL    HW297629   6.286   4.971   7.240 -0.3601  0.2912  0.4343
31281SOL     OW97630   3.284   9.295   1.304 -0.1143 -0.2995 -0.3254
31281SOL    HW197631   3.227   9.247   1.244  0.6689 -0.7981 -0.6839
31281SOL    HW297632   3.277   9.387   1.276  0.2520 -0.5283 -1.1942
31282SOL     OW97633   1.325   5.645   6.347 -0.2620  0.3903 -0.1202
31282SOL    HW197634   1.264   5.677   6.281  0.0769  4.1908  1.1550
31282SOL    HW297635   1.410   5.679   6.321  0.2903  0.0068  1.0752
31283SOL     OW97636   8.277   5.408   5.536  0.5226  0.0730 -0.0664
31283SOL    HW197637   8.362   5.398   5.579 -0.2693  0.1620  1.5963
31283SOL    HW297638   8.275   5.499   5.508  0.3739  0.5055  1.2891
31284SOL     OW97639   6.590   8.005   7.996  0.2731 -0.1478  0.0145
31284SOL    HW197640   6.519   7.987   8.057 -0.6628 -0.0720 -1.0278
31284SOL    HW297641   6.609   7.921   7.954  0.9123 -0.2009  0.4027
31285SOL     OW97642   9.300   0.770   4.096  0.4993  0.2032 -0.0041
31285SOL    HW197643   9.285   0.863   4.079  0.8516  0.4454  0.9529
31285SOL    HW297644   9.391   0.755   4.073 -0.1816 -0.4963 -2.5437
31286SOL     OW97645   2.797   2.395   7.816 -0.2267  0.0667 -0.4225
31286SOL    HW197646   2.758   2.394   7.904 -1.1487 -0.0800 -0.8202
31286SOL    HW297647   2.796   2.488   7.791 -0.3767  0.0561 -0.4562
31287SOL     OW97648   9.701   7.260   3.143  0.0019  0.0610 -0.3782
31287SOL    HW197649   9.788   7.267   3.181  0.3074  0.4868 -1.1227
31287SOL    HW297650   9.641   7.280   3.215  0.4185 -1.9980  0.6111
31288SOL     OW97651   8.929   8.362   1.819 -0.1087 -0.0066 -0.3159
31288SOL    HW197652   8.875   8.340   1.895  0.3173  1.1864  0.3452
31288SOL    HW297653   8.964   8.448   1.838 -0.1731  0.4198 -1.9817
31289SOL     OW97654   8.654   4.730   9.385 -0.5020  0.2158 -0.1142
31289SOL    HW197655   8.699   4.715   9.302  1.3916 -0.2262  0.9518
31289SOL    HW297656   8.576   4.674   9.381  0.5883 -1.3099 -0.8106
31290SOL     OW97657   0.392   7.173   0.678  0.2854  0.0835  0.5380
31290SOL    HW197658   0.320   7.206   0.624 -0.7720 -0.4784  1.5425
31290SOL    HW297659   0.432   7.251   0.715 -0.5009  0.3704  0.8040
31291SOL     OW97660   9.099   9.181   9.369 -0.0528 -0.2705  0.1583
31291SOL    HW197661   9.095   9.227   9.286  2.0764  0.1069  0.2258
31291SOL    HW297662   9.008   9.180   9.400 -0.6188  1.0699 -1.3455
31292SOL     OW97663   3.663   7.458   4.874 -0.2547 -0.4034  0.0484
31292SOL    HW197664   3.619   7.451   4.959  0.5747 -1.9934  0.3749
31292SOL    HW297665   3.707   7.543   4.877 -2.8283  1.0490 -0.0976
31293SOL     OW97666   7.115   8.616   4.632 -0.0388  0.0228  0.6201
31293SOL    HW197667   7.105   8.521   4.629 -1.9905  0.2018  0.1957
31293SOL    HW297668   7.206   8.630   4.660  0.2907 -1.9480  0.6623
31294SOL     OW97669   1.222   9.296   7.421  0.1309 -0.3723 -0.2173
31294SOL    HW197670   1.228   9.308   7.515  1.2619 -0.6229 -0.2470
31294SOL    HW297671   1.309   9.320   7.388 -0.3304 -0.0095 -1.2267
31295SOL     OW97672   0.522   3.302   4.815  0.2928  0.3511 -0.3371
31295SOL    HW197673   0.591   3.345   4.866 -1.2288  1.9140  0.4974
31295SOL    HW297674   0.559   3.216   4.794  1.7431  0.3679  1.7534
31296SOL     OW97675   1.177   1.783  10.209  0.1314 -0.1884 -0.0091
31296SOL    HW197676   1.151   1.874  10.224  1.1000  0.4497 -1.8410
31296SOL    HW297677   1.243   1.766  10.276 -1.9442 -0.4919  2.0764
31297SOL     OW97678   6.703   8.384   1.295  1.0686  0.5702  0.5243
31297SOL    HW197679   6.622   8.339   1.272  2.5239 -1.9435 -0.0533
31297SOL    HW297680   6.680   8.438   1.371 -1.4035  1.0009 -0.4115
31298SOL     OW97681   9.648   4.604   8.480  0.0156 -0.1289  0.8308
31298SOL    HW197682   9.694   4.578   8.400  0.1350  0.5959  0.6521
31298SOL    HW297683   9.561   4.628   8.450 -0.3580 -1.0877  1.1101
31299SOL     OW97684   3.404   9.891   4.871  0.0101  0.5107  0.6400
31299SOL    HW197685   3.340   9.872   4.802 -1.0908  1.8005  1.2519
31299SOL    HW297686   3.359   9.870   4.953  0.7190  0.5330  1.0493
31300SOL     OW97687   1.716   4.562   9.877  0.3265 -0.2715  0.5113
31300SOL    HW197688   1.791   4.519   9.919  1.7093  0.0360 -1.4841
31300SOL    HW297689   1.641   4.507   9.899  1.4591 -1.6999  0.9446
31301SOL     OW97690   8.379   3.238   8.994 -0.2055  0.3296 -0.1932
31301SOL    HW197691   8.365   3.265   9.085 -1.8882 -0.4577 -0.1942
31301SOL    HW297692   8.384   3.143   8.998  1.0357  0.3443 -0.7853
31302SOL     OW97693   6.026   8.040   0.859 -0.4507  0.7880  0.3713
31302SOL    HW197694   6.034   7.949   0.833 -0.4396  1.4705 -2.2511
31302SOL    HW297695   6.115   8.065   0.885 -0.2618  0.3189  0.1821
31303SOL     OW97696   9.360   6.365   1.868  0.0548  0.1648 -0.4004
31303SOL    HW197697   9.307   6.417   1.928 -2.1174 -1.2906 -0.9697
31303SOL    HW297698   9.447   6.364   1.908 -0.4970  1.9624  0.9823
31304SOL     OW97699   4.092   5.236   7.021 -0.8236  0.2484  0.1103
31304SOL    HW197700   4.086   5.148   7.058 -0.9036  0.3860  0.4246
31304SOL    HW297701   4.089   5.294   7.096  0.7757  0.4833  0.0291
31305SOL     OW97702   0.772   5.210   7.811 -0.5126  0.1839 -0.5647
31305SOL    HW197703   0.698   5.191   7.869 -0.0717 -0.1467 -0.1052
31305SOL    HW297704   0.751   5.164   7.730  0.0142 -1.4132  0.1657
31306SOL     OW97705   2.161   1.102   4.955  0.4958 -0.1855  0.0805
31306SOL    HW197706   2.076   1.063   4.975 -0.1666  0.0891 -2.0219
31306SOL    HW297707   2.179   1.160   5.029 -1.6537  0.5695  0.0595
31307SOL     OW97708   3.395   0.950   6.807 -0.1126 -0.3797  0.0861
31307SOL    HW197709   3.337   0.989   6.872 -0.2890  1.1205 -0.9387
31307SOL    HW297710   3.368   0.988   6.724  1.6634 -0.4496 -0.5699
31308SOL     OW97711   1.353  10.189   2.193  0.0381  0.6565  0.6506
31308SOL    HW197712   1.327  10.206   2.103 -0.9225  0.1309  0.8108
31308SOL    HW297713   1.305  10.254   2.245 -2.8678 -1.7140  1.1687
31309SOL     OW97714   6.371   8.385   1.506 -0.1282 -0.0324 -0.0548
31309SOL    HW197715   6.291   8.438   1.504  0.9060  1.7281  1.4945
31309SOL    HW297716   6.361   8.331   1.584 -0.4188 -0.8719 -0.6668
31310SOL     OW97717   7.883   0.830   1.200 -0.0427 -0.2238  0.0013
31310SOL    HW197718   7.976   0.811   1.198  0.2042  0.9739 -1.2446
31310SOL    HW297719   7.849   0.795   1.117 -0.4121  0.6149 -0.2181
31311SOL     OW97720   2.865   2.482   7.323  0.0647 -0.1929  0.3620
31311SOL    HW197721   2.859   2.513   7.413  1.7157 -1.3063  0.8885
31311SOL    HW297722   2.776   2.493   7.289 -0.4027  1.0348  1.8326
31312SOL     OW97723   8.830   7.800   6.468 -0.9091  0.1625 -0.1974
31312SOL    HW197724   8.912   7.797   6.418  0.2907  1.5824  1.5835
31312SOL    HW297725   8.764   7.827   6.403  0.6508  2.3332 -1.0092
31313SOL     OW97726   1.753   2.994   8.806  0.6835  0.1412  0.0796
31313SOL    HW197727   1.803   2.977   8.886 -0.1084 -1.3308  0.2942
31313SOL    HW297728   1.818   3.022   8.742  1.6068 -0.5231  0.7035
31314SOL     OW97729   2.932   1.408   9.817 -0.3867  0.0594 -0.0343
31314SOL    HW197730   2.951   1.435   9.907 -0.6290  0.1739 -0.0153
31314SOL    HW297731   2.960   1.317   9.813 -1.0616 -0.1789  0.3784
31315SOL     OW97732   8.459   8.641   4.607 -1.1549  0.4241  0.3166
31315SOL    HW197733   8.551   8.660   4.628 -0.1491 -1.9825 -1.3338
31315SOL    HW297734   8.409   8.690   4.671  1.2097  3.1526  0.2909
31316SOL     OW97735   3.425   2.956   5.450 -0.5168 -0.2595 -0.0631
31316SOL    HW197736   3.461   3.007   5.378 -2.2009 -0.7039 -1.2762
31316SOL    HW297737   3.332   2.977   5.451 -0.4588  0.1232  2.3404
31317SOL     OW97738  10.192   1.524   8.128 -0.1366 -0.2727 -0.0849
31317SOL    HW197739  10.239   1.597   8.168 -1.8261  0.8222  0.0020
31317SOL    HW297740  10.172   1.554   8.040  1.7182 -1.8533 -1.1491
31318SOL     OW97741   9.672  10.269   1.926 -0.3239 -0.0551  0.3208
31318SOL    HW197742   9.577  10.254   1.923 -0.3524  0.1721  0.0334
31318SOL    HW297743   9.682  10.362   1.906 -0.0188 -0.1436  0.0530
31319SOL     OW97744   5.787   4.744   9.298 -0.5518  0.3683 -0.7020
31319SOL    HW197745   5.872   4.725   9.256 -0.0691 -1.1636  0.8341
31319SOL    HW297746   5.787   4.839   9.310  1.0848  0.3766 -0.4885
31320SOL     OW97747   9.857   9.789   1.403  0.1060 -0.3154 -0.2329
31320SOL    HW197748   9.876   9.883   1.403  0.0879 -0.3077 -0.6253
31320SOL    HW297749   9.848   9.766   1.495  1.8789 -0.2864 -0.0215
31321SOL     OW97750   2.197   6.423   8.594  0.0276 -0.1269 -0.0177
31321SOL    HW197751   2.169   6.332   8.603  0.8075 -0.2193  1.8647
31321SOL    HW297752   2.287   6.418   8.563  0.1735 -0.0193  0.3777
31322SOL     OW97753   8.904   6.811   2.637  0.1370  0.4836 -0.2074
31322SOL    HW197754   8.864   6.748   2.697 -0.8726  1.9893  0.7884
31322SOL    HW297755   8.831   6.842   2.583  0.6061  0.8286 -0.6484
31323SOL     OW97756   7.453   3.858   1.488  0.1064 -0.2358  0.2919
31323SOL    HW197757   7.534   3.866   1.538  0.5784  0.9954 -0.6263
31323SOL    HW297758   7.445   3.941   1.441 -1.7787 -0.2586  0.4750
31324SOL     OW97759   5.578   0.464   4.671  0.6914  0.2158  0.3075
31324SOL    HW197760   5.502   0.509   4.707 -0.4393 -0.8412 -0.6945
31324SOL    HW297761   5.644   0.469   4.741 -0.1104  1.5543  1.0116
31325SOL     OW97762   6.242   2.518   6.555  0.4532 -0.1373 -0.1316
31325SOL    HW197763   6.180   2.572   6.604 -0.4682 -2.4225  1.3799
31325SOL    HW297764   6.307   2.580   6.522  0.0454  1.7720  2.3580
31326SOL     OW97765   1.230   6.191   6.140  0.5510  0.3351  0.1352
31326SOL    HW197766   1.213   6.126   6.208  0.8064  0.5083  0.3687
31326SOL    HW297767   1.143   6.217   6.109  0.4438  0.0324  0.1823
31327SOL     OW97768   7.787   9.666   1.406 -0.0961 -0.3365  0.1290
31327SOL    HW197769   7.862   9.635   1.356  0.4463 -1.4479  1.5564
31327SOL    HW297770   7.720   9.599   1.393 -0.3186 -0.0981  0.0450
31328SOL     OW97771   8.839   7.414   1.208  0.1429 -0.2768  0.4235
31328SOL    HW197772   8.910   7.464   1.249 -0.5232  0.6623  0.4692
31328SOL    HW297773   8.761   7.439   1.257 -0.2480 -1.2188  0.3061
31329SOL     OW97774   2.646   4.435   9.468  0.2352  0.5031 -0.5637
31329SOL    HW197775   2.635   4.408   9.377  1.3737  0.4442 -0.6899
31329SOL    HW297776   2.666   4.528   9.463  1.2313  0.3081 -0.4474
31330SOL     OW97777   5.028   4.259   9.389  0.2559  0.0561  0.0743
31330SOL    HW197778   5.004   4.307   9.309  1.8599  0.3582 -0.2500
31330SOL    HW297779   4.977   4.178   9.383 -0.7203  0.6884 -0.5365
31331SOL     OW97780   7.475   1.277   9.101 -0.0117 -0.0775 -0.1821
31331SOL    HW197781   7.412   1.249   9.035 -1.8856 -4.1392  2.8733
31331SOL    HW297782   7.440   1.359   9.134 -1.3560 -0.1188 -1.3739
31332SOL     OW97783   5.388   7.860   9.410 -0.0379  0.1911 -0.4407
31332SOL    HW197784   5.412   7.769   9.422 -1.6300 -0.0449  1.5028
31332SOL    HW297785   5.410   7.902   9.494 -0.8102  1.2146 -0.7281
31333SOL     OW97786   8.396  10.288   6.690 -0.5729 -0.4072 -0.3661
31333SOL    HW197787   8.382  10.291   6.785 -0.1270 -3.0390 -0.1508
31333SOL    HW297788   8.326  10.232   6.657  1.1813 -2.2713 -1.1034
31334SOL     OW97789   9.667   4.848   3.289  0.3279 -0.7012  0.1551
31334SOL    HW197790   9.615   4.790   3.344 -0.4268  0.1153  0.3184
31334SOL    HW297791   9.702   4.791   3.221 -0.4202 -1.3462  0.2968
31335SOL     OW97792   4.018   9.668   0.068  0.3994  0.2561  0.1544
31335SOL    HW197793   4.072   9.589   0.071  1.3606  0.8829 -0.3761
31335SOL    HW297794   3.944   9.648   0.125  0.9269 -0.8112  0.4890
31336SOL     OW97795   0.313  10.305   4.462 -0.0133 -0.2116 -0.1518
31336SOL    HW197796   0.272  10.372   4.407 -1.6517  0.4659  1.7569
31336SOL    HW297797   0.295  10.334   4.551  0.6452 -2.3773  0.7452
31337SOL     OW97798   3.684   0.185   2.080  0.2242 -0.0679  0.5852
31337SOL    HW197799   3.677   0.262   2.136 -0.2314 -0.0521  0.5093
31337SOL    HW297800   3.778   0.171   2.070  0.3432  1.1994 -0.3785
31338SOL     OW97801   1.439   7.823   7.623  0.6656 -0.3726  0.0337
31338SOL    HW197802   1.367   7.825   7.686  0.8421 -1.1511  0.2731
31338SOL    HW297803   1.506   7.878   7.662  0.3841 -0.0371  0.0459
31339SOL     OW97804   6.225   9.896   0.279 -0.2502  0.8149 -0.3502
31339SOL    HW197805   6.132   9.915   0.267 -0.3052  0.0130 -1.3692
31339SOL    HW297806   6.270   9.955   0.218 -0.3077 -0.8435 -2.0924
31340SOL     OW97807   2.752   5.336   6.112 -0.4227 -0.3832  0.1344
31340SOL    HW197808   2.786   5.376   6.032  0.9352  1.1195  1.3902
31340SOL    HW297809   2.730   5.246   6.086 -0.4199  0.1797 -1.9990
31341SOL     OW97810   7.415   8.423   4.924  0.2611 -0.0655 -0.1798
31341SOL    HW197811   7.456   8.338   4.934 -0.7178 -0.5732 -0.3013
31341SOL    HW297812   7.413   8.438   4.829 -2.7172 -1.5721 -0.4696
31342SOL     OW97813   7.721   3.566   5.712 -0.3806 -0.1000 -0.2870
31342SOL    HW197814   7.715   3.620   5.791 -0.0193 -1.1573  0.4722
31342SOL    HW297815   7.780   3.615   5.655  0.8383 -0.2202  0.8395
31343SOL     OW97816   5.727   2.614   5.241 -0.0996  0.7090 -0.4471
31343SOL    HW197817   5.806   2.586   5.196 -0.0686 -0.0894  0.0755
31343SOL    HW297818   5.758   2.648   5.325 -0.3580 -0.3348  0.0852
31344SOL     OW97819   9.065   9.515   7.648 -0.0507 -0.2026 -0.0523
31344SOL    HW197820   9.121   9.437   7.651 -1.7020 -1.4680 -0.7073
31344SOL    HW297821   8.994   9.492   7.588 -0.7575  1.7105 -0.0242
31345SOL     OW97822   3.488   8.522   5.031 -0.1736  0.1009  0.1228
31345SOL    HW197823   3.405   8.481   5.054 -1.1404  1.4746 -0.7458
31345SOL    HW297824   3.518   8.474   4.954  0.2641 -0.9089  0.9016
31346SOL     OW97825   1.436   9.013   3.009  0.3306 -0.0029  0.2655
31346SOL    HW197826   1.523   9.039   3.038 -0.3288  1.5236  1.0109
31346SOL    HW297827   1.392   8.985   3.089  0.4934 -1.9675 -0.2850
31347SOL     OW97828   5.962   4.165   3.346 -0.1016 -0.0060  0.4243
31347SOL    HW197829   5.901   4.102   3.385 -2.7049  0.7604 -2.1245
31347SOL    HW297830   6.031   4.110   3.308 -0.9178 -1.1327  0.5090
31348SOL     OW97831  10.072   8.243   2.439  0.4326  0.7159  0.0646
31348SOL    HW197832  10.163   8.271   2.431  0.7394 -0.3184 -0.2816
31348SOL    HW297833  10.071   8.154   2.403 -0.4541  0.2069  1.2537
31349SOL     OW97834   0.232   7.015   3.259 -0.0417 -0.2134  0.4259
31349SOL    HW197835   0.313   6.985   3.300  0.4394 -1.5156 -1.3183
31349SOL    HW297836   0.252   7.102   3.226  0.3367 -0.1467  0.8259
31350SOL     OW97837   2.485   2.465   5.409  0.5075 -0.2926  0.0972
31350SOL    HW197838   2.428   2.448   5.334  0.7402 -1.0233  0.0798
31350SOL    HW297839   2.558   2.404   5.398  2.5303  2.1538 -1.1772
31351SOL     OW97840   2.414   2.762   8.668 -0.0997 -0.2539 -0.0400
31351SOL    HW197841   2.428   2.678   8.624 -0.0079 -0.1258 -0.2554
31351SOL    HW297842   2.359   2.740   8.743 -0.4010 -0.4500 -0.3119
31352SOL     OW97843  10.244   4.220   9.617 -0.5270 -0.1408  0.3540
31352SOL    HW197844  10.305   4.146   9.620 -1.0642 -0.6501 -0.7211
31352SOL    HW297845  10.291   4.291   9.661  1.1911 -0.2812 -1.1425
31353SOL     OW97846   9.997   5.960   4.491  0.1741  0.6523  0.3714
31353SOL    HW197847   9.927   5.896   4.481 -0.1599  0.9240  0.9459
31353SOL    HW297848  10.015   5.989   4.401  1.0338 -0.9613 -0.0158
31354SOL     OW97849   5.083   9.582   0.490  0.4873  0.0139 -0.3140
31354SOL    HW197850   5.083   9.488   0.508  2.5036  0.1975  0.9726
31354SOL    HW297851   5.121   9.622   0.568 -1.0680  2.0075 -0.5024
31355SOL     OW97852   2.458   6.335   4.854 -0.2418 -0.7226  0.6157
31355SOL    HW197853   2.470   6.411   4.912 -1.8651 -1.5989  2.1963
31355SOL    HW297854   2.377   6.354   4.807  0.0626 -0.8840  0.0224
31356SOL     OW97855   9.555   3.441   0.077 -0.3601  0.0710 -0.3766
31356SOL    HW197856   9.530   3.494   0.152 -0.6222 -0.2761 -0.2208
31356SOL    HW297857   9.527   3.493   0.001  1.6172  1.3450 -0.3277
31357SOL     OW97858   0.774   6.186   2.192  0.9143 -0.2843  0.0263
31357SOL    HW197859   0.691   6.160   2.152  1.6755  0.4050 -2.1666
31357SOL    HW297860   0.758   6.274   2.226  1.0288  0.3764 -1.5261
31358SOL     OW97861   2.914   7.345   7.938  0.3535 -0.4639 -0.4291
31358SOL    HW197862   2.858   7.321   8.012  0.1956 -0.6120 -0.5955
31358SOL    HW297863   2.854   7.383   7.874  0.0828 -2.4670 -1.4600
31359SOL     OW97864   5.657   2.170   1.770  0.0993 -0.3347 -0.0339
31359SOL    HW197865   5.643   2.079   1.796  0.2408 -0.2601  0.3139
31359SOL    HW297866   5.648   2.220   1.851  0.2119 -0.0600 -0.1882
31360SOL     OW97867   1.087   2.683   6.199 -0.0734 -0.0141 -0.3913
31360SOL    HW197868   1.012   2.629   6.220  0.1912 -0.8214 -1.4304
31360SOL    HW297869   1.162   2.638   6.239  0.1234 -0.3354 -1.1060
31361SOL     OW97870   7.107   7.626   5.448 -0.4758 -0.2166  0.0893
31361SOL    HW197871   7.104   7.693   5.380  0.5456 -0.7232 -0.4772
31361SOL    HW297872   7.054   7.662   5.519 -0.8018  0.7254 -0.6039
31362SOL     OW97873   9.537   4.609   4.320 -0.0194  0.1127  0.2525
31362SOL    HW197874   9.493   4.631   4.402  1.7830 -0.4923  1.4344
31362SOL    HW297875   9.506   4.521   4.299  1.2523 -0.7111  1.5960
31363SOL     OW97876   4.720   7.116   1.225  0.3613 -0.0529 -0.7544
31363SOL    HW197877   4.733   7.208   1.201  0.7988  0.5289  1.4704
31363SOL    HW297878   4.638   7.116   1.274  0.1565 -0.9273 -1.0881
31364SOL     OW97879   9.276   0.925   0.836  0.1113  0.6710  0.1153
31364SOL    HW197880   9.218   1.000   0.830 -1.5730 -0.6108 -0.3468
31364SOL    HW297881   9.247   0.865   0.767 -0.1183 -1.3807  1.8589
31365SOL     OW97882   1.181   6.601   3.395 -0.1667 -0.6276  0.1758
31365SOL    HW197883   1.273   6.599   3.370 -0.6867 -3.0743 -1.9217
31365SOL    HW297884   1.166   6.517   3.438 -1.5396 -0.4742  0.0353
31366SOL     OW97885   7.174   2.476   2.953  0.5130  0.5282 -0.4460
31366SOL    HW197886   7.181   2.419   2.877 -0.6449  0.5378 -0.5799
31366SOL    HW297887   7.087   2.514   2.946  0.1464  0.0728  1.1949
31367SOL     OW97888   3.394   1.534   3.930 -0.1162  0.1887 -0.1561
31367SOL    HW197889   3.454   1.547   3.857 -0.7892  0.5569 -0.6464
31367SOL    HW297890   3.430   1.587   4.001 -0.1912  0.8925 -0.6394
31368SOL     OW97891   1.739   4.524   4.116 -0.3524 -0.1349  0.4461
31368SOL    HW197892   1.814   4.539   4.059  1.0970 -0.5816  2.1516
31368SOL    HW297893   1.669   4.579   4.079  1.2675  1.5263 -0.2774
31369SOL     OW97894  10.285   9.971   7.886  0.2775  0.1578 -0.2329
31369SOL    HW197895  10.284   9.901   7.952  0.2586  0.5164  0.1485
31369SOL    HW297896  10.262  10.050   7.934 -0.3131  0.3304 -0.7804
31370SOL     OW97897   8.138   7.707   5.616 -0.1237 -0.6181  0.7784
31370SOL    HW197898   8.218   7.756   5.635 -0.6787  1.3703 -1.5796
31370SOL    HW297899   8.167   7.632   5.565  0.2164  0.7060 -1.0613
31371SOL     OW97900   5.964   7.924   8.255  0.3414 -0.1046  0.1179
31371SOL    HW197901   5.896   7.882   8.307 -0.1629 -0.8261 -1.0738
31371SOL    HW297902   5.917   7.979   8.193  0.9720  1.5997  1.0957
31372SOL     OW97903   5.326   4.637   9.116  0.2219 -0.0394  0.3434
31372SOL    HW197904   5.407   4.671   9.077  0.4588 -0.2384  0.6648
31372SOL    HW297905   5.296   4.707   9.174 -0.7500  0.7409 -1.0492
31373SOL     OW97906   1.471   6.028   0.670 -0.5978 -0.6640  0.2424
31373SOL    HW197907   1.535   6.013   0.740 -1.8193 -0.7298  1.3950
31373SOL    HW297908   1.430   5.942   0.657  1.3916 -1.3107 -2.4551
31374SOL     OW97909   7.306   1.969   4.530 -0.1297  0.0437  0.0042
31374SOL    HW197910   7.385   2.014   4.559  0.5194 -0.7145 -0.5594
31374SOL    HW297911   7.337   1.904   4.467 -1.0223 -1.2132  0.8046
31375SOL     OW97912   1.483   9.197   3.740 -0.4505 -0.5021 -0.2699
31375SOL    HW197913   1.415   9.251   3.700  0.6155  1.6907  0.7190
31375SOL    HW297914   1.479   9.218   3.833  2.1116  0.4011 -0.2871
31376SOL     OW97915   7.854   0.395   9.520 -0.4674 -0.4813 -0.1281
31376SOL    HW197916   7.770   0.374   9.561  0.3167  0.3075  2.0266
31376SOL    HW297917   7.911   0.418   9.593  1.1637  0.6274 -1.6669
31377SOL     OW97918   6.380   0.845   9.407  1.0520  0.4452 -0.3501
31377SOL    HW197919   6.296   0.883   9.432  1.0319  0.0667  0.1796
31377SOL    HW297920   6.435   0.919   9.383  0.2008  0.6170 -1.8433
31378SOL     OW97921   5.495   4.791   6.756 -0.2394 -0.0319  0.5922
31378SOL    HW197922   5.493   4.886   6.765 -1.5658 -0.0680  0.9979
31378SOL    HW297923   5.588   4.768   6.755  0.1099  1.3327 -0.3255
31379SOL     OW97924   9.910   6.007   2.830 -0.3200  0.5479 -0.2560
31379SOL    HW197925   9.924   6.099   2.854 -2.5698  1.1791 -1.1640
31379SOL    HW297926   9.819   5.989   2.854 -0.0822 -1.3118 -0.5828
31380SOL     OW97927   7.914   6.990   2.121  0.0507  0.2002 -0.7810
31380SOL    HW197928   7.978   6.919   2.110  0.4890  0.5764 -0.6561
31380SOL    HW297929   7.829   6.946   2.113  0.2124 -0.9129  2.3282
31381SOL     OW97930   8.273   3.829   8.854  0.9856  0.4891 -0.4183
31381SOL    HW197931   8.345   3.842   8.916  1.8758 -1.0377 -1.0648
31381SOL    HW297932   8.307   3.861   8.771  1.1020 -0.6002 -0.8077
31382SOL     OW97933   0.326   6.249   2.745 -0.1644  0.2850 -0.1173
31382SOL    HW197934   0.253   6.200   2.782  1.2101 -0.7392  1.4051
31382SOL    HW297935   0.287   6.304   2.677 -2.3836  0.1000  0.9360
31383SOL     OW97936   5.846   9.388   9.212  0.5175 -0.1213 -0.3869
31383SOL    HW197937   5.895   9.411   9.291 -0.4627  1.8477 -0.2852
31383SOL    HW297938   5.766   9.347   9.244 -0.4979  1.8891 -0.2432
31384SOL     OW97939   5.496   5.202   2.347 -0.1046  0.2946  0.1943
31384SOL    HW197940   5.529   5.166   2.430  1.1349  0.7422 -0.0905
31384SOL    HW297941   5.450   5.282   2.373 -0.6330 -0.1202  0.5551
31385SOL     OW97942   8.753   1.501   9.203 -0.3879 -0.3637  0.6473
31385SOL    HW197943   8.684   1.542   9.255 -0.1023 -1.0472  1.5941
31385SOL    HW297944   8.738   1.533   9.114 -1.1479  0.4947  1.0666
31386SOL     OW97945   2.933   5.857   4.175 -0.2225  0.0754 -0.0012
31386SOL    HW197946   2.953   5.949   4.193  0.1887  0.0817 -0.4771
31386SOL    HW297947   2.901   5.856   4.085 -0.3458 -0.2309  0.0437
31387SOL     OW97948   8.305   2.505   4.730  0.0270  0.1091 -0.2512
31387SOL    HW197949   8.269   2.593   4.722 -1.0577 -0.3346 -0.3956
31387SOL    HW297950   8.386   2.507   4.678  1.1325  1.5834  1.3843
31388SOL     OW97951   0.205   4.957   8.907 -0.5986 -0.4689  0.2116
31388SOL    HW197952   0.200   4.868   8.944 -0.7739 -0.2915  0.6227
31388SOL    HW297953   0.120   4.996   8.926 -0.7174 -0.3908 -0.4477
31389SOL     OW97954   0.298   8.470   1.745 -0.3323 -0.1382 -0.9591
31389SOL    HW197955   0.225   8.498   1.800 -0.4085  2.2496 -2.1612
31389SOL    HW297956   0.336   8.395   1.792 -1.6827  0.4478  1.2073
31390SOL     OW97957   9.163   2.356   5.467 -0.0038  0.1638 -0.1543
31390SOL    HW197958   9.162   2.301   5.389  0.4748 -0.9179  0.5801
31390SOL    HW297959   9.092   2.322   5.522 -0.0686  0.6467  0.0698
31391SOL     OW97960   1.151   4.487   1.802  0.3892  0.1712 -0.0218
31391SOL    HW197961   1.101   4.409   1.827 -1.5319  1.0545 -0.8800
31391SOL    HW297962   1.220   4.493   1.868 -0.8581 -0.9210  1.4757
31392SOL     OW97963  10.062   1.912  10.219  0.2646 -0.1013 -0.1704
31392SOL    HW197964  10.037   2.000  10.193  0.4278 -0.5576 -2.0733
31392SOL    HW297965  10.147   1.922  10.262 -0.1107  0.7421  0.3917
31393SOL     OW97966   9.539   4.267   1.874  0.0661  0.0387 -0.3070
31393SOL    HW197967   9.563   4.213   1.949  2.7019  0.8130 -0.4907
31393SOL    HW297968   9.594   4.234   1.803 -0.9141  0.6504 -1.3934
31394SOL     OW97969   6.489   0.740   4.048  0.3194  0.2600  0.2713
31394SOL    HW197970   6.437   0.809   4.006  0.0687 -0.0333  0.0970
31394SOL    HW297971   6.527   0.691   3.975 -2.5825 -2.1795  0.2130
31395SOL     OW97972   7.572   9.301   5.383  0.3068 -0.1581 -0.3392
31395SOL    HW197973   7.589   9.259   5.299  2.1076 -2.4809  1.0418
31395SOL    HW297974   7.651   9.353   5.400  0.9973 -1.5505  0.8943
31396SOL     OW97975   4.648   9.289   2.441 -0.4791 -0.2584 -0.0394
31396SOL    HW197976   4.699   9.224   2.393 -1.6554 -1.5829  0.4569
31396SOL    HW297977   4.712   9.358   2.463  0.6831 -0.9991 -0.9906
31397SOL     OW97978   2.776  10.141   7.061  0.4722 -0.0291  0.3670
31397SOL    HW197979   2.860  10.096   7.055 -0.5492 -1.9244 -0.6132
31397SOL    HW297980   2.714  10.074   7.090 -0.6990  1.3590  1.2725
31398SOL     OW97981   7.236   1.994   9.530 -0.3786 -0.1094  0.1977
31398SOL    HW197982   7.170   1.977   9.596 -0.0825  1.9174  1.1111
31398SOL    HW297983   7.319   1.975   9.573 -0.1377  1.9438  0.7497
31399SOL     OW97984   5.247   1.221   8.900 -0.1601 -0.1130 -0.2041
31399SOL    HW197985   5.180   1.217   8.969 -0.8834  1.0013 -0.8057
31399SOL    HW297986   5.316   1.274   8.938 -1.1907  1.7378 -0.8061
31400SOL     OW97987   1.167   4.700   0.156  0.1544 -0.3123  0.2428
31400SOL    HW197988   1.106   4.632   0.128 -1.3846  0.7394  0.9026
31400SOL    HW297989   1.214   4.660   0.230 -0.7379 -0.6708  0.6311
31401SOL     OW97990   5.826   6.504   6.289 -0.4089 -0.6143  0.2106
31401SOL    HW197991   5.906   6.503   6.236 -0.8366 -0.1008 -0.4513
31401SOL    HW297992   5.771   6.436   6.250 -1.3629  0.8100 -1.0265
31402SOL     OW97993   2.848   1.432   5.143  0.2204 -0.2352 -0.3081
31402SOL    HW197994   2.862   1.338   5.128  0.2004 -0.1918 -0.5974
31402SOL    HW297995   2.933   1.472   5.122  0.6143 -0.3234  1.0342
31403SOL     OW97996   7.127   7.946   6.806 -0.4856  0.0977 -0.0278
31403SOL    HW197997   7.185   7.914   6.875  0.5475  0.2011 -0.8255
31403SOL    HW297998   7.140   8.041   6.807 -0.1274  0.0624 -0.6420
31404SOL     OW97999   2.258   7.468   8.361 -0.6847 -0.3209 -0.2301
31404SOL    HW198000   2.197   7.394   8.362 -0.8590 -0.2411  2.3834
31404SOL    HW298001   2.342   7.429   8.384  0.1299 -0.2518 -2.7539
31405SOL     OW98002  10.063   0.973   8.414  0.0780 -0.1470 -0.3628
31405SOL    HW198003   9.992   0.910   8.412 -0.2442  0.1574  0.6150
31405SOL    HW298004  10.113   0.957   8.334  0.4344 -2.1444  0.2069
31406SOL     OW98005   7.434   4.360   5.870  0.1628 -0.1928  0.1738
31406SOL    HW198006   7.382   4.416   5.813  0.3583 -2.0881 -2.0144
31406SOL    HW298007   7.411   4.387   5.958 -2.4657  0.8661 -0.7383
31407SOL     OW98008   7.363   4.684   5.997  0.2427  0.0302  0.4546
31407SOL    HW198009   7.353   4.680   5.902 -2.8368 -1.2661  0.7139
31407SOL    HW298010   7.316   4.607   6.029  0.4982  0.8716  3.0837
31408SOL     OW98011   3.300   4.946   5.905  0.4539 -0.3897 -0.4026
31408SOL    HW198012   3.358   5.022   5.909  0.1894 -0.2171  0.1489
31408SOL    HW298013   3.245   4.953   5.983 -0.1513 -0.6837 -0.7967
31409SOL     OW98014   0.311   2.986   7.147  0.0203  0.4706  0.1235
31409SOL    HW198015   0.367   3.028   7.212  1.4791  0.0411 -0.8013
31409SOL    HW298016   0.245   2.939   7.198  1.8622 -0.8839  1.3815
31410SOL     OW98017   1.777   2.102   2.235 -0.4628 -0.2725 -0.3189
31410SOL    HW198018   1.702   2.159   2.252  0.0577  0.1260  0.7494
31410SOL    HW298019   1.792   2.056   2.317  0.5706 -0.2042 -0.4542
31411SOL     OW98020   1.347   7.643   6.870 -0.2444 -0.0296 -0.1074
31411SOL    HW198021   1.269   7.588   6.873 -0.2290 -0.2649 -2.3395
31411SOL    HW298022   1.365   7.655   6.777  1.4257  1.4065  0.3354
31412SOL     OW98023   9.174   8.066   9.442  0.1731 -0.3781 -0.5644
31412SOL    HW198024   9.216   8.091   9.525  1.3457 -2.4142 -0.4961
31412SOL    HW298025   9.216   8.122   9.377 -1.6337  2.1555  0.2715
31413SOL     OW98026   5.096   0.022   5.648 -0.5687  1.2267 -0.0836
31413SOL    HW198027   5.080  -0.068   5.678 -2.1040  1.6591  0.4537
31413SOL    HW298028   5.137   0.065   5.723  1.2053  0.7224 -0.7071
31414SOL     OW98029  10.048   9.004   1.606  0.3373 -0.3642 -0.1142
31414SOL    HW198030  10.001   9.006   1.690 -0.1694 -1.1727 -0.3750
31414SOL    HW298031  10.104   9.082   1.609  0.3186 -0.3704  0.9685
31415SOL     OW98032   5.644   3.028   2.498  0.2350 -0.2550 -0.1686
31415SOL    HW198033   5.664   3.119   2.519  0.7892  0.0010 -1.7094
31415SOL    HW298034   5.552   3.018   2.524  0.7857  0.0641  2.0879
31416SOL     OW98035   1.322   4.679   7.559  0.3956  0.3759 -0.0390
31416SOL    HW198036   1.367   4.751   7.603 -1.3538  2.0499 -0.8635
31416SOL    HW298037   1.297   4.714   7.474 -0.6567 -1.1561 -0.4105
31417SOL     OW98038   0.195  10.030   6.838  0.3379  0.1911 -0.3790
31417SOL    HW198039   0.121  10.089   6.826  0.6946  0.6648 -0.2749
31417SOL    HW298040   0.176   9.984   6.920  0.3389  0.5807 -0.1598
31418SOL     OW98041   1.731   0.753   0.770 -0.2708  0.5985  0.3396
31418SOL    HW198042   1.740   0.658   0.757  1.2442  0.7926 -0.3104
31418SOL    HW298043   1.821   0.786   0.762 -0.9211  2.2301 -0.6854
31419SOL     OW98044   0.707   2.283   4.937 -0.3348 -0.6301  0.2663
31419SOL    HW198045   0.693   2.377   4.945 -0.0993 -0.5510 -0.2315
31419SOL    HW298046   0.746   2.257   5.021 -0.9096 -0.3834  0.6134
31420SOL     OW98047   8.820   2.481   8.974  0.1149 -0.4602 -0.4524
31420SOL    HW198048   8.773   2.537   8.913  1.6077 -0.8776 -2.0656
31420SOL    HW298049   8.770   2.399   8.975 -1.2344  0.3467  0.7612
31421SOL     OW98050   9.168   0.803   6.339 -0.4100  0.8247  0.9901
31421SOL    HW198051   9.161   0.708   6.341  1.0681  0.6534 -0.0364
31421SOL    HW298052   9.105   0.831   6.272  1.0175  0.2921 -0.6442
31422SOL     OW98053   0.517   3.476   3.811 -0.5670 -0.0173 -0.8246
31422SOL    HW198054   0.531   3.383   3.797 -0.0848  0.1153 -1.2384
31422SOL    HW298055   0.541   3.490   3.903  0.5525 -0.0795 -1.1015
31423SOL     OW98056   1.897   7.950   5.613  0.6481 -0.3333  0.0284
31423SOL    HW198057   1.899   7.869   5.562  0.2830  1.0053 -2.2486
31423SOL    HW298058   1.987   7.983   5.609  0.5859 -0.1499  0.1320
31424SOL     OW98059   5.986   2.884   2.187  0.2613 -0.2052  0.1384
31424SOL    HW198060   6.060   2.926   2.143  0.1895  1.0882  1.1725
31424SOL    HW298061   6.023   2.803   2.224  1.2194  0.4878  0.7588
31425SOL     OW98062   2.814   0.589   9.016 -0.7623  0.3563  0.5026
31425SOL    HW198063   2.813   0.549   8.929 -2.3878  1.6994 -0.1490
31425SOL    HW298064   2.739   0.549   9.061 -0.3332  0.1699  1.0642
31426SOL     OW98065   9.308   8.117   6.626  0.7001  0.4878  0.4998
31426SOL    HW198066   9.324   8.164   6.544  1.3316 -0.2127  0.2184
31426SOL    HW298067   9.245   8.173   6.673  1.3221  1.5435  0.1143
31427SOL     OW98068   2.627   9.632   2.734  0.0946  0.5303  0.8604
31427SOL    HW198069   2.693   9.571   2.700  1.4594  1.7498  1.2286
31427SOL    HW298070   2.614   9.604   2.825 -0.4656 -0.1638  0.5775
31428SOL     OW98071   7.625   5.111   2.330 -0.3767  0.2678  0.3028
31428SOL    HW198072   7.585   5.197   2.325  2.1593  1.4995 -0.8306
31428SOL    HW298073   7.719   5.128   2.321  0.2442 -2.6023  0.3735
31429SOL     OW98074   7.887   9.890   7.576 -0.2488 -0.0074  0.9494
31429SOL    HW198075   7.954   9.823   7.584 -0.2023  0.0231  0.8142
31429SOL    HW298076   7.805   9.844   7.593 -0.4946 -0.6656 -1.6731
31430SOL     OW98077   4.480   9.684   0.554 -0.0702 -0.3548  0.6761
31430SOL    HW198078   4.422   9.611   0.576  1.0174 -1.0400  1.4038
31430SOL    HW298079   4.538   9.692   0.630  0.3319  0.7680  0.2761
31431SOL     OW98080   3.563   2.290   9.686  0.0657 -0.5194 -0.0838
31431SOL    HW198081   3.598   2.204   9.662  0.4015 -0.9678  1.8581
31431SOL    HW298082   3.615   2.352   9.634 -0.3855 -1.4599 -1.7457
31432SOL     OW98083   8.351   4.853   7.226 -0.9316 -0.2458 -0.0393
31432SOL    HW198084   8.286   4.922   7.239  0.1335  1.5961 -3.3872
31432SOL    HW298085   8.300   4.779   7.194 -1.8471 -0.4025  1.6622
31433SOL     OW98086  10.016   3.962   7.656 -0.0385  0.1466  0.4106
31433SOL    HW198087   9.933   3.915   7.644  0.6247 -0.9987  0.1034
31433SOL    HW298088   9.990   4.051   7.678 -1.3798  0.4192 -1.8985
31434SOL     OW98089  10.284   5.116   3.555  0.3912  0.0214 -0.0029
31434SOL    HW198090  10.315   5.098   3.644  1.3781  0.7470 -0.1795
31434SOL    HW298091  10.240   5.035   3.528 -2.5481  0.7111  2.1836
31435SOL     OW98092   8.297   9.989   7.592  0.1418  0.2463  0.5024
31435SOL    HW198093   8.369   9.975   7.531  0.6881  0.4292  1.0979
31435SOL    HW298094   8.292   9.909   7.644  0.6357  0.6501  1.1935
31436SOL     OW98095   8.166   5.520   4.592 -0.5669  0.4110 -0.2693
31436SOL    HW198096   8.231   5.458   4.559  0.3140  0.9436  0.4434
31436SOL    HW298097   8.190   5.603   4.552  0.6989  1.1399  1.8369
31437SOL     OW98098   5.607   1.116   3.890  0.6451 -0.0955  0.0334
31437SOL    HW198099   5.685   1.105   3.945 -0.4892 -0.5443  1.6432
31437SOL    HW298100   5.536   1.077   3.942 -0.8459  1.2903 -0.8897
31438SOL     OW98101   7.246   1.847   6.191  0.1189  0.1415 -0.4926
31438SOL    HW198102   7.284   1.869   6.106  0.5307  1.4248 -0.0021
31438SOL    HW298103   7.152   1.845   6.176  0.2563 -3.3431 -1.7917
31439SOL     OW98104   2.126   5.338   0.563 -0.2475 -0.0539 -0.6630
31439SOL    HW198105   2.152   5.246   0.562  0.9002  0.1272  2.1905
31439SOL    HW298106   2.083   5.352   0.479  1.7640 -2.5184 -2.2330
31440SOL     OW98107   4.408   1.457   0.965  0.0347 -0.3010  0.0437
31440SOL    HW198108   4.347   1.387   0.942  0.6092 -0.6370 -0.4828
31440SOL    HW298109   4.493   1.426   0.935  0.5422 -0.0021  1.1058
31441SOL     OW98110  10.031   4.696   7.571 -0.0764 -0.0287  0.0844
31441SOL    HW198111  10.044   4.741   7.654  0.4870 -1.3364  0.7286
31441SOL    HW298112  10.080   4.748   7.507  1.7320 -0.4553  1.0648
31442SOL     OW98113   4.967   9.889   2.631  0.2663 -0.5396  0.2698
31442SOL    HW198114   4.943   9.933   2.712  1.0182  1.3091 -0.4626
31442SOL    HW298115   4.948   9.797   2.647  1.1040 -0.3365  2.7989
31443SOL     OW98116   6.421   1.191   8.352 -0.1446 -0.0616 -0.3189
31443SOL    HW198117   6.332   1.213   8.327  0.4800  0.9432 -1.8392
31443SOL    HW298118   6.476   1.246   8.296  1.4237  0.6293  1.7874
31444SOL     OW98119   8.180   2.020   1.575 -0.1818 -1.2899  0.4851
31444SOL    HW198120   8.131   2.027   1.656 -0.0170 -0.9771  0.5611
31444SOL    HW298121   8.216   1.932   1.576  0.9909 -0.8285  1.4394
31445SOL     OW98122   9.516   3.013   1.260  0.2490 -0.0853 -0.0593
31445SOL    HW198123   9.458   3.009   1.184 -0.9627 -1.0798  0.8686
31445SOL    HW298124   9.457   3.024   1.335  1.2203 -1.4733  0.9622
31446SOL     OW98125   9.223   6.293   3.830 -0.3691  0.0729 -0.0897
31446SOL    HW198126   9.298   6.346   3.802 -1.2350  1.3564 -0.0403
31446SOL    HW298127   9.148   6.331   3.783 -0.9640 -1.3425 -0.3334
31447SOL     OW98128   5.991   1.627   8.293 -0.1258  0.4729 -0.4718
31447SOL    HW198129   6.031   1.540   8.294  1.3573  1.1126  1.6911
31447SOL    HW298130   5.901   1.612   8.324  0.0555 -0.3188 -0.3015
31448SOL     OW98131   6.387   1.956   8.641  0.1152 -0.3078 -0.7406
31448SOL    HW198132   6.324   1.884   8.648 -0.7516  0.4920  0.1859
31448SOL    HW298133   6.332   2.035   8.645  1.1222  0.4026 -0.6206
31449SOL     OW98134   3.022   7.562   1.934 -0.2422 -0.0840  0.0386
31449SOL    HW198135   3.014   7.468   1.949  0.9131 -0.7925 -2.9950
31449SOL    HW298136   3.072   7.569   1.853  1.4407  3.2232  1.1851
31450SOL     OW98137   1.479   9.826   8.041  0.6926  0.1785  0.8601
31450SOL    HW198138   1.436   9.820   8.126 -0.3807  1.6838  0.4666
31450SOL    HW298139   1.534   9.904   8.047 -2.2134  2.5864 -0.9322
31451SOL     OW98140   0.886  10.038   4.521  1.2564 -0.7353 -0.0836
31451SOL    HW198141   0.887  10.131   4.543 -1.4788 -0.2026 -1.6932
31451SOL    HW298142   0.940   9.996   4.587  1.9027  1.9098  1.1569
31452SOL     OW98143   7.117   6.447   5.160  0.1613 -0.7230  0.1129
31452SOL    HW198144   7.063   6.494   5.223 -1.3703 -1.0707 -0.8858
31452SOL    HW298145   7.113   6.356   5.188 -0.3433 -0.8469 -0.3406
31453SOL     OW98146   7.371   3.461   0.407 -0.5402 -0.2951  0.1279
31453SOL    HW198147   7.423   3.471   0.327  0.0724  0.0185  0.5627
31453SOL    HW298148   7.361   3.367   0.418  0.4612 -0.3821  0.3736
31454SOL     OW98149   3.995   4.455   0.804  0.2023  0.4835 -0.0219
31454SOL    HW198150   3.951   4.530   0.844 -0.4559 -0.8117  1.7793
31454SOL    HW298151   4.026   4.488   0.719 -0.1755  2.7395  0.6570
31455SOL     OW98152   2.327   0.785   6.199  0.6952 -0.3891  0.4001
31455SOL    HW198153   2.399   0.723   6.212  0.6973 -0.9833 -1.9195
31455SOL    HW298154   2.249   0.731   6.189  0.5125  0.0086 -0.5092
31456SOL     OW98155   1.587   6.208   9.621 -0.6417  0.0576  0.4924
31456SOL    HW198156   1.537   6.289   9.607  0.5069  0.5916 -0.8671
31456SOL    HW298157   1.678   6.238   9.628 -0.4819 -0.8625  3.1324
31457SOL     OW98158   7.196   5.612   6.637 -0.0559 -0.0129  0.2142
31457SOL    HW198159   7.268   5.554   6.611 -0.7963 -0.8395 -0.0296
31457SOL    HW298160   7.117   5.563   6.615 -0.7073  1.2023 -0.2448
31458SOL     OW98161   5.060   0.110   1.129  0.9097  0.5528  0.1090
31458SOL    HW198162   5.101   0.124   1.044 -0.4395 -0.8162 -0.8140
31458SOL    HW298163   5.098   0.028   1.161 -0.7620 -0.5629 -0.6137
31459SOL     OW98164   5.240   3.587   1.206  0.0080  0.0016  0.0294
31459SOL    HW198165   5.264   3.658   1.146  0.0524 -0.9074 -1.0756
31459SOL    HW298166   5.146   3.576   1.193 -0.2213  0.6378  1.0842
31460SOL     OW98167   1.198   1.059   0.549  0.0435  0.5785  0.1242
31460SOL    HW198168   1.133   1.108   0.500 -1.5525 -0.4428  1.1168
31460SOL    HW298169   1.244   1.008   0.482 -0.4950  0.9571 -0.5527
31461SOL     OW98170   5.567   3.550   6.234 -0.6335  0.5884  0.2483
31461SOL    HW198171   5.657   3.549   6.201 -0.1193  0.7126  1.5743
31461SOL    HW298172   5.524   3.620   6.186 -0.0525  0.4546 -0.4836
31462SOL     OW98173   9.397   3.804   8.856 -0.4341 -0.0816 -0.2902
31462SOL    HW198174   9.440   3.885   8.831 -0.0136 -0.1051  0.3098
31462SOL    HW298175   9.370   3.818   8.947 -0.6919 -0.4733 -0.3024
31463SOL     OW98176   5.297   0.784   9.421 -0.2432 -0.1460 -0.3338
31463SOL    HW198177   5.211   0.790   9.379 -0.9039  0.2774  1.0125
31463SOL    HW298178   5.340   0.866   9.400  0.4489 -0.9436 -2.2320
31464SOL     OW98179   6.580   9.728   1.361 -0.3357 -0.4453  0.0914
31464SOL    HW198180   6.653   9.773   1.318 -1.2383  0.1974 -0.8162
31464SOL    HW298181   6.614   9.641   1.379  1.2222  0.3465  1.2609
31465SOL     OW98182   7.654   7.165   3.730  0.0122  0.4099 -0.3006
31465SOL    HW198183   7.564   7.180   3.704 -0.1329 -0.1574 -0.1356
31465SOL    HW298184   7.648   7.113   3.810  0.4375  1.9737  0.8141
31466SOL     OW98185   5.961   5.795   7.717 -0.1638  0.0953 -0.1091
31466SOL    HW198186   6.010   5.875   7.697  1.1771 -0.0632  2.1989
31466SOL    HW298187   5.904   5.782   7.641  2.4004  1.0242 -2.3567
31467SOL     OW98188   5.856   9.830   9.965  0.0522  0.0165  0.0551
31467SOL    HW198189   5.809   9.911   9.943  0.5926  0.0948 -0.8745
31467SOL    HW298190   5.892   9.845  10.052  0.0592  0.7340 -0.0660
31468SOL     OW98191   9.740   9.821   9.487  0.8139 -0.0101 -0.0930
31468SOL    HW198192   9.653   9.781   9.481  0.0926  1.5261 -0.2187
31468SOL    HW298193   9.739   9.868   9.570  1.6926 -0.3220  0.1059
31469SOL     OW98194   1.664   2.727   4.714  0.0265  0.0448  0.3360
31469SOL    HW198195   1.755   2.751   4.735  0.4618 -0.5229 -0.7816
31469SOL    HW298196   1.673   2.653   4.654 -1.2187 -0.8065  1.1642
31470SOL     OW98197   0.838   8.610   2.668  0.8020  0.3458 -0.1402
31470SOL    HW198198   0.804   8.698   2.682 -0.0376  0.1309 -0.7324
31470SOL    HW298199   0.931   8.616   2.688  0.7044  1.3113  0.0429
31471SOL     OW98200   0.186   9.045   7.971 -0.4843  0.6627 -0.1184
31471SOL    HW198201   0.253   8.977   7.976 -2.5215 -1.4101  0.7372
31471SOL    HW298202   0.163   9.050   7.879  1.5551  2.2549 -0.6280
31472SOL     OW98203   2.998   9.886   5.010 -0.1149 -0.3135  0.0956
31472SOL    HW198204   3.093   9.884   5.007 -0.1265 -0.7652 -0.0297
31472SOL    HW298205   2.971   9.798   4.984 -0.6046  0.2617 -1.4544
31473SOL     OW98206   5.661   7.628   3.886  0.0484 -0.0633  0.5668
31473SOL    HW198207   5.697   7.547   3.850 -0.3014 -0.6576  1.5209
31473SOL    HW298208   5.617   7.670   3.812  2.1285  0.3906 -0.4967
31474SOL     OW98209   1.703   9.266   6.621 -0.1609 -0.4319 -0.6451
31474SOL    HW198210   1.611   9.292   6.616  0.3070  2.1597  1.9328
31474SOL    HW298211   1.710   9.193   6.559 -3.4082  0.7138 -2.6178
31475SOL     OW98212   9.726   4.081   4.414  0.3208 -0.2829 -0.5350
31475SOL    HW198213   9.792   4.032   4.462 -1.6455 -1.3183  1.2727
31475SOL    HW298214   9.654   4.020   4.403 -2.0556  1.9537  1.3442
31476SOL     OW98215   5.414   9.305   0.697 -0.1900 -0.0501  0.6727
31476SOL    HW198216   5.449   9.384   0.737 -0.1160  0.1804  0.1560
31476SOL    HW298217   5.458   9.233   0.743 -1.6623  0.1289  2.5101
31477SOL     OW98218   7.596   7.383   8.304 -0.2345 -0.1062 -0.1564
31477SOL    HW198219   7.570   7.416   8.218 -1.3808 -1.2660 -0.2822
31477SOL    HW298220   7.614   7.290   8.290  0.4925 -0.1014  0.6811
31478SOL     OW98221   1.481   4.421   4.725  0.2872 -0.0354 -0.2839
31478SOL    HW198222   1.483   4.327   4.708 -0.3940 -0.7044  2.7998
31478SOL    HW298223   1.573   4.448   4.722  0.6891 -1.2075  0.6058
31479SOL     OW98224   6.429   8.207   1.300 -0.3082 -0.5653 -0.3500
31479SOL    HW198225   6.338   8.186   1.279 -0.9420 -3.0955  3.7711
31479SOL    HW298226   6.424   8.285   1.354  0.3280  0.6165 -1.9092
31480SOL     OW98227   6.571   9.429   0.670  0.2280  0.4040  0.2004
31480SOL    HW198228   6.492   9.479   0.649 -0.0133  0.6893  1.6663
31480SOL    HW298229   6.643   9.482   0.637 -0.0903  1.1741  0.7251
31481SOL     OW98230   9.753   3.986   2.766  0.5020 -0.0100 -0.3631
31481SOL    HW198231   9.704   3.915   2.723 -0.0637  0.1561 -0.0045
31481SOL    HW298232   9.803   3.943   2.835  0.7962 -0.1682 -0.6705
31482SOL     OW98233   1.502   2.027   8.992  0.0281 -0.8403  0.4558
31482SOL    HW198234   1.479   1.970   8.918 -1.5147  1.8344 -1.2961
31482SOL    HW298235   1.437   2.007   9.059 -1.3077 -0.3375 -0.6277
31483SOL     OW98236   5.576   0.406   3.978  0.2633  0.0682 -0.1906
31483SOL    HW198237   5.579   0.361   4.062  0.5090 -0.8310 -0.6669
31483SOL    HW298238   5.627   0.486   3.992 -0.5660  0.4452  0.7983
31484SOL     OW98239   5.457   9.791   0.200  0.3995  0.8544  0.3601
31484SOL    HW198240   5.450   9.883   0.227 -1.3418  0.4270  1.5691
31484SOL    HW298241   5.376   9.751   0.231  1.6798 -1.4033  1.0849
31485SOL     OW98242   1.962   1.202  10.073 -0.1114  0.1061  1.5282
31485SOL    HW198243   1.882   1.173  10.117  0.4270 -0.2780  2.2593
31485SOL    HW298244   1.996   1.123  10.032 -1.1583  0.6407 -0.5153
31486SOL     OW98245   5.290   5.143   1.784 -0.2112  0.2547  0.3836
31486SOL    HW198246   5.260   5.218   1.835  1.2451  0.5524  0.8421
31486SOL    HW298247   5.255   5.067   1.831 -3.2639  0.5868 -1.0723
31487SOL     OW98248   5.322   9.125   2.067 -0.3383  0.1217 -0.0623
31487SOL    HW198249   5.365   9.165   2.143 -0.1373 -0.3222  0.0596
31487SOL    HW298250   5.231   9.154   2.073 -0.1406  0.7599 -0.1101
31488SOL     OW98251   4.481   4.638   9.658 -0.2855  0.1277  0.0686
31488SOL    HW198252   4.447   4.563   9.609  0.1126 -1.2737  1.8271
31488SOL    HW298253   4.413   4.657   9.723  0.8347 -0.6466  1.5373
31489SOL     OW98254   7.201   1.681   4.114  0.3577 -0.1936  0.0586
31489SOL    HW198255   7.170   1.715   4.030 -2.0011  1.5762  1.5012
31489SOL    HW298256   7.235   1.758   4.160  1.1155 -1.0250  0.9259
31490SOL     OW98257   3.408   5.526   0.664  0.3877  0.4908  0.4577
31490SOL    HW198258   3.362   5.592   0.716  0.4249  0.5596  0.4034
31490SOL    HW298259   3.388   5.443   0.708  1.4883  0.6717  1.3716
31491SOL     OW98260   5.696   5.785   7.087 -0.6075  0.0132 -0.2945
31491SOL    HW198261   5.654   5.725   7.024  1.5608 -3.0641  0.9227
31491SOL    HW298262   5.771   5.820   7.040 -0.2803 -0.4919 -0.1580
31492SOL     OW98263   9.975   9.761   7.319  0.2037  0.2744  0.4368
31492SOL    HW198264   9.995   9.672   7.349 -0.8979 -0.2597 -0.3106
31492SOL    HW298265   9.965   9.812   7.399  0.4502 -0.3714  0.8863
31493SOL     OW98266   3.610   0.112   4.324  0.8175  0.3863  0.4394
31493SOL    HW198267   3.617   0.019   4.304 -0.0387  0.4125 -0.0587
31493SOL    HW298268   3.673   0.154   4.266  0.5692  0.1833  0.0123
31494SOL     OW98269   9.589   1.055   3.115  0.3996 -0.0241 -0.2620
31494SOL    HW198270   9.684   1.046   3.112  0.6577  1.4972  1.4804
31494SOL    HW298271   9.568   1.055   3.209 -1.0702  1.8459 -0.5349
31495SOL     OW98272   6.806   8.981   8.772  0.0800 -0.7986 -0.4658
31495SOL    HW198273   6.741   8.984   8.842  0.3891 -1.6297 -0.1295
31495SOL    HW298274   6.890   8.979   8.817  0.5297  2.5071 -0.8947
31496SOL     OW98275   1.712   1.719   9.329 -0.2636  0.8640 -0.0725
31496SOL    HW198276   1.661   1.673   9.395 -0.2304  0.2622 -0.4581
31496SOL    HW298277   1.803   1.700   9.352 -0.2445 -1.6579 -1.8332
31497SOL     OW98278   7.997   0.455   2.955 -0.3844 -0.0670 -0.4212
31497SOL    HW198279   8.078   0.495   2.924 -0.1876 -1.2821 -1.5976
31497SOL    HW298280   7.931   0.524   2.948  0.3148  0.6050 -0.5262
31498SOL     OW98281   0.010  10.011   4.592 -0.3215 -0.6477  0.5386
31498SOL    HW198282   0.073   9.941   4.610  0.1079 -1.1304 -2.3429
31498SOL    HW298283   0.032  10.041   4.503 -1.7821  1.7775  0.9020
31499SOL     OW98284   9.556   7.355   6.082  0.2743 -0.2518 -0.0179
31499SOL    HW198285   9.497   7.362   6.158  1.0398 -0.8758  0.6529
31499SOL    HW298286   9.548   7.440   6.038 -1.0932 -0.3093  0.0731
31500SOL     OW98287   4.984   0.446   2.071 -0.3336 -0.0706 -0.0434
31500SOL    HW198288   4.998   0.447   2.166  1.4313 -0.1301 -0.2682
31500SOL    HW298289   5.040   0.375   2.040 -1.0957 -0.2203 -1.1177
31501SOL     OW98290   9.618   4.295   1.404 -0.4908  0.2230 -0.0056
31501SOL    HW198291   9.706   4.297   1.367 -0.5556 -0.2867 -0.1966
31501SOL    HW298292   9.561   4.275   1.329 -0.8985  1.7038 -0.1148
31502SOL     OW98293   3.309   8.777   7.960  0.2613 -0.3387  0.1874
31502SOL    HW198294   3.215   8.761   7.973  0.1948  0.2404  0.4568
31502SOL    HW298295   3.331   8.844   8.025  0.9290 -0.6846  0.3206
31503SOL     OW98296   0.036   3.067   8.142  0.5145  0.2093  0.0420
31503SOL    HW198297   0.021   2.976   8.165  0.3722 -0.2558 -1.7262
31503SOL    HW298298   0.017   3.116   8.222 -0.4439 -1.2139  0.7179
31504SOL     OW98299   9.749   6.611   4.359 -0.3051 -0.5688 -0.1386
31504SOL    HW198300   9.808   6.536   4.366 -1.0950 -1.2506 -0.7028
31504SOL    HW298301   9.804   6.681   4.324  0.4877 -0.8100  0.5800
31505SOL     OW98302   9.193   8.281   0.477  0.8397 -0.3165  0.1268
31505SOL    HW198303   9.278   8.239   0.460  1.3672  1.2469 -1.4151
31505SOL    HW298304   9.145   8.273   0.394  0.6660  1.3810  0.0302
31506SOL     OW98305   2.428   0.604   2.307 -0.1571  0.0416  0.2840
31506SOL    HW198306   2.485   0.527   2.308 -0.7508 -0.4487 -0.8471
31506SOL    HW298307   2.412   0.621   2.214 -2.0510 -0.0070  0.5546
31507SOL     OW98308   0.688   0.946   9.298  0.1437 -0.0933  0.1879
31507SOL    HW198309   0.623   0.902   9.354  0.2227  0.1917  0.5037
31507SOL    HW298310   0.714   0.879   9.235  0.9207 -0.7829  1.2054
31508SOL     OW98311   2.947   7.369   5.687 -0.1234  0.0669  0.5966
31508SOL    HW198312   2.984   7.282   5.699  2.5838  0.8876 -1.0398
31508SOL    HW298313   2.902   7.364   5.603  2.0541  0.7799 -0.6831
31509SOL     OW98314   6.723   7.599   4.018  0.1857  0.1112  0.3738
31509SOL    HW198315   6.795   7.662   4.024  0.8944 -0.8280  2.5926
31509SOL    HW298316   6.644   7.652   4.029  0.5300  1.0158 -1.1248
31510SOL     OW98317   8.772   1.798   0.890  0.0446 -0.2058 -0.3283
31510SOL    HW198318   8.732   1.760   0.812 -3.4435  0.1780  1.0953
31510SOL    HW298319   8.785   1.890   0.868 -2.6818  0.3428  0.0133
31511SOL     OW98320   6.595   2.307   9.306 -0.2547 -0.3284  0.4237
31511SOL    HW198321   6.669   2.290   9.249 -0.2136 -1.5936  0.8333
31511SOL    HW298322   6.609   2.251   9.382 -0.7294  0.7203  1.3146
31512SOL     OW98323   5.330   5.678   8.181  0.2559  0.1840  0.5546
31512SOL    HW198324   5.396   5.742   8.209  1.2579 -0.8946  0.7582
31512SOL    HW298325   5.274   5.665   8.257  1.0037 -0.3281  1.0301
31513SOL     OW98326   8.349   0.441   7.904  0.2100  0.3695  0.1885
31513SOL    HW198327   8.325   0.436   7.997  2.7767  1.7705  1.0281
31513SOL    HW298328   8.403   0.520   7.898 -1.2926  1.2872 -2.8869
31514SOL     OW98329   5.591   2.278   7.941  0.2434 -0.0846 -0.4324
31514SOL    HW198330   5.585   2.303   8.033  0.1825 -0.5254 -0.3149
31514SOL    HW298331   5.542   2.346   7.895 -0.3742 -0.2712 -0.0655
31515SOL     OW98332   6.343   9.347  10.354 -0.1677  0.8087  0.5183
31515SOL    HW198333   6.385   9.430  10.329  0.7765  0.4926  1.0194
31515SOL    HW298334   6.380   9.283  10.294  0.3288  0.4693  1.1771
31516SOL     OW98335   8.884   3.087   5.021  0.3088 -0.1805  0.0254
31516SOL    HW198336   8.957   3.028   5.041  1.4056  1.0057 -0.2771
31516SOL    HW298337   8.905   3.168   5.069 -0.5480  0.3431 -0.4569
31517SOL     OW98338   6.763   4.410   7.739 -0.4044  0.1624 -0.0588
31517SOL    HW198339   6.814   4.429   7.661 -0.9487  1.3018 -0.1555
31517SOL    HW298340   6.694   4.351   7.710 -0.0467 -0.1699 -0.2368
31518SOL     OW98341   1.240   1.743   9.000  0.7479 -0.1791 -0.0798
31518SOL    HW198342   1.272   1.665   9.046 -0.0569  0.1156  1.0048
31518SOL    HW298343   1.175   1.781   9.059 -0.4569  0.1162 -1.5180
31519SOL     OW98344   8.050   3.695   5.303  0.0217 -0.0955 -0.2724
31519SOL    HW198345   8.136   3.698   5.263 -0.1971 -0.8277 -0.8228
31519SOL    HW298346   7.991   3.728   5.235 -0.0396  1.3806  0.4450
31520SOL     OW98347   1.256   8.739   4.673  0.6754  0.0379 -0.0951
31520SOL    HW198348   1.208   8.737   4.756 -0.0737  0.2765 -0.5207
31520SOL    HW298349   1.265   8.647   4.648  0.1340  0.0097 -0.1896
31521SOL     OW98350   9.735   5.060   1.650 -0.1825 -0.3433  0.2703
31521SOL    HW198351   9.769   5.020   1.730 -1.1329  0.1055  0.9272
31521SOL    HW298352   9.758   5.153   1.658  0.2689 -0.4006 -0.2904
31522SOL     OW98353   0.662   2.918   4.919 -0.5494 -0.3481  0.1682
31522SOL    HW198354   0.586   2.971   4.942 -0.0597 -0.5627  2.6620
31522SOL    HW298355   0.733   2.954   4.972  1.0561 -0.3429 -1.8665
31523SOL     OW98356   8.258   9.067   2.260  0.0364  0.1984 -0.2961
31523SOL    HW198357   8.176   9.086   2.307 -0.4333 -0.2642 -0.9194
31523SOL    HW298358   8.326   9.105   2.316 -0.0582 -3.7709  2.9545
31524SOL     OW98359   4.828   6.329   8.177 -0.1475 -0.2018  0.3279
31524SOL    HW198360   4.794   6.247   8.214  0.1436 -0.1214  0.7674
31524SOL    HW298361   4.779   6.398   8.221 -0.7619 -0.1499 -0.4162
31525SOL     OW98362   6.525   1.309   2.379  0.6758  0.2871 -0.8168
31525SOL    HW198363   6.594   1.243   2.370 -1.5279 -2.3878  0.2587
31525SOL    HW298364   6.464   1.289   2.308 -0.9176 -0.0855  0.5888
31526SOL     OW98365   6.995   3.174   1.798 -0.1828  0.4063  0.0967
31526SOL    HW198366   7.036   3.165   1.711  2.8186 -1.3924  1.5474
31526SOL    HW298367   7.013   3.265   1.823  0.0089  0.5893 -0.6660
31527SOL     OW98368   3.897   3.131   0.294 -0.1050 -0.7541 -0.2203
31527SOL    HW198369   3.897   3.172   0.381  0.4822  0.1545 -0.6422
31527SOL    HW298370   3.941   3.047   0.307  1.3375  0.0323  0.0662
31528SOL     OW98371   9.463   6.401   7.474 -0.4928 -0.3937 -0.0451
31528SOL    HW198372   9.533   6.428   7.533 -1.1312  0.6143  0.2605
31528SOL    HW298373   9.485   6.310   7.451  1.0102 -0.0311 -0.1120
31529SOL     OW98374   3.832   0.991   4.736 -0.2277 -0.1256  0.6955
31529SOL    HW198375   3.764   1.053   4.711  0.5708  0.7384  0.6148
31529SOL    HW298376   3.859   0.950   4.653  1.5713  1.8657  0.2025
31530SOL     OW98377   8.773   5.252  10.236  0.1677  0.0989 -0.2461
31530SOL    HW198378   8.696   5.284  10.190 -0.5784 -1.9347 -0.5131
31530SOL    HW298379   8.797   5.171  10.190  0.7950 -0.7629  1.5099
31531SOL     OW98380   0.646   5.139   5.253 -0.0024 -0.1172 -0.5512
31531SOL    HW198381   0.705   5.156   5.326 -0.9376  0.5250  0.0857
31531SOL    HW298382   0.562   5.173   5.283 -0.6780 -0.9475 -1.4613
31532SOL     OW98383   3.342   7.667   5.333  0.3180 -0.0167 -0.2623
31532SOL    HW198384   3.324   7.708   5.248 -2.6605  0.4758  0.4836
31532SOL    HW298385   3.352   7.574   5.314  0.5476  0.2001 -1.2277
31533SOL     OW98386   9.744   8.391   7.043 -0.1640  0.3635 -0.1478
31533SOL    HW198387   9.798   8.441   7.103  1.0966  1.0024 -1.7302
31533SOL    HW298388   9.779   8.411   6.956 -1.9106 -0.5002 -1.1222
31534SOL     OW98389   4.818   0.711   9.778 -0.2832  0.1753 -0.2616
31534SOL    HW198390   4.738   0.699   9.830 -0.8774  3.0219 -0.3967
31534SOL    HW298391   4.883   0.739   9.842  0.2099 -0.5572 -0.4229
31535SOL     OW98392   3.975   7.078   8.980  0.2086  0.1304 -0.0603
31535SOL    HW198393   3.883   7.058   8.997  0.6295 -0.7600  1.2788
31535SOL    HW298394   4.006   7.120   9.060  1.9555 -3.1795  1.1875
31536SOL     OW98395   9.070   9.396   0.515 -0.7570  0.5195  0.0816
31536SOL    HW198396   9.069   9.313   0.468  0.7054  0.0239  0.8546
31536SOL    HW298397   9.007   9.383   0.586 -0.0471 -0.1940  0.5983
31537SOL     OW98398   8.067   2.052   4.280 -0.0128 -0.0907 -0.3754
31537SOL    HW198399   7.976   2.074   4.300  0.4643  1.2217  0.4265
31537SOL    HW298400   8.085   2.097   4.198 -0.1294 -0.5010 -0.6306
31538SOL     OW98401   7.197   6.161   3.120  0.1250  0.0468 -0.9499
31538SOL    HW198402   7.234   6.115   3.044  0.6275 -0.4934 -0.3935
31538SOL    HW298403   7.104   6.168   3.101  0.4265  1.1171 -2.2296
31539SOL     OW98404   6.855   4.916   0.702 -0.4017  0.1029  0.2342
31539SOL    HW198405   6.802   4.845   0.666  1.5113 -1.3785  0.2102
31539SOL    HW298406   6.930   4.922   0.643 -0.9560  2.8570 -0.3390
31540SOL     OW98407   9.400   5.909   2.288 -0.3262  0.3648 -0.4390
31540SOL    HW198408   9.430   5.930   2.200  0.3449  1.1763 -0.0397
31540SOL    HW298409   9.437   5.978   2.343  2.1100 -1.9017  1.0104
31541SOL     OW98410   8.499   7.867   0.776  0.0471  0.7862 -0.3404
31541SOL    HW198411   8.442   7.794   0.753 -0.3049  1.7427 -2.8732
31541SOL    HW298412   8.441   7.931   0.818 -0.0982  0.5349 -0.1542
31542SOL     OW98413   1.406   2.202   5.225 -0.1746 -0.1583 -0.1919
31542SOL    HW198414   1.447   2.142   5.287 -0.4785 -1.4185 -1.1734
31542SOL    HW298415   1.479   2.237   5.174 -0.0809 -0.4720 -0.2761
31543SOL     OW98416  10.264   1.375   4.566  0.1246 -0.4622  0.0588
31543SOL    HW198417  10.174   1.382   4.532  0.6814 -0.3886 -1.4702
31543SOL    HW298418  10.256   1.395   4.659 -1.6085 -1.4987  0.1869
31544SOL     OW98419   6.039   8.933   7.031 -0.2824 -1.0738 -0.7498
31544SOL    HW198420   6.037   9.010   6.973  0.4596 -1.8592 -1.8478
31544SOL    HW298421   6.111   8.880   6.998  0.8107 -1.1159  1.4911
31545SOL     OW98422   8.889   5.728   2.342 -0.0893  0.2304 -0.6645
31545SOL    HW198423   8.806   5.755   2.381 -0.1595 -0.8008 -0.0517
31545SOL    HW298424   8.945   5.707   2.416  0.9871  1.6012 -1.0555
31546SOL     OW98425   0.452   7.873   2.737 -0.0588  0.0841  0.6442
31546SOL    HW198426   0.521   7.808   2.743 -0.0113 -0.0644 -1.0560
31546SOL    HW298427   0.394   7.854   2.811  1.1503 -0.4385  1.4795
31547SOL     OW98428   4.439   5.899   3.154  0.4504  0.5701  0.3163
31547SOL    HW198429   4.501   5.889   3.082  1.7767  0.5387  1.4375
31547SOL    HW298430   4.485   5.867   3.231 -1.4214 -0.7082  0.9953
31548SOL     OW98431   0.840   9.270   3.976  0.0048  0.1457 -0.4042
31548SOL    HW198432   0.765   9.328   3.977  0.6254  1.0274  1.7735
31548SOL    HW298433   0.814   9.196   4.032  0.0569 -0.5543 -1.2772
31549SOL     OW98434   4.920   5.870   3.113 -0.0359  0.0356  0.3424
31549SOL    HW198435   4.871   5.790   3.091  0.3890 -0.0578 -0.2603
31549SOL    HW298436   4.889   5.935   3.050  0.0243  0.2006  0.4832
31550SOL     OW98437   1.447   3.594   7.737  0.0578 -0.0348  0.3431
31550SOL    HW198438   1.541   3.578   7.733  0.3716  1.6417  0.3476
31550SOL    HW298439   1.425   3.582   7.830  0.3874  0.2235  0.4547
31551SOL     OW98440   2.863   4.683   3.924  0.4247 -0.7265  0.2926
31551SOL    HW198441   2.922   4.656   3.853  1.1215  1.2081  0.0595
31551SOL    HW298442   2.917   4.675   4.003  0.1450 -1.4325  0.4134
31552SOL     OW98443   2.842   4.100   7.939  0.3125 -0.5855 -0.4917
31552SOL    HW198444   2.770   4.098   7.876 -0.1249  1.2199 -0.0884
31552SOL    HW298445   2.921   4.104   7.885  0.0243 -0.7527 -0.9299
31553SOL     OW98446   2.158   2.536   2.329 -0.3818 -0.2003  0.1025
31553SOL    HW198447   2.081   2.486   2.302 -0.2977 -0.4324  0.2856
31553SOL    HW298448   2.139   2.561   2.419 -1.6974  2.5562 -0.8265
31554SOL     OW98449   6.053   7.227   3.281  0.2385 -0.2020  0.8155
31554SOL    HW198450   6.004   7.244   3.362  0.7298 -0.3815  1.1525
31554SOL    HW298451   6.092   7.141   3.295 -1.8986 -1.5143 -0.7094
31555SOL     OW98452   8.372   6.619   2.201  0.0963 -0.4804  0.0511
31555SOL    HW198453   8.355   6.654   2.114 -2.6406 -0.3977  0.5323
31555SOL    HW298454   8.352   6.690   2.261  1.2050 -0.7799  0.8234
31556SOL     OW98455   1.785   0.741   8.367 -0.2218  0.3696 -0.3136
31556SOL    HW198456   1.768   0.654   8.404 -2.1372  1.4590  1.6235
31556SOL    HW298457   1.852   0.778   8.424  3.2591 -0.9536 -3.1817
31557SOL     OW98458   0.603   5.494   2.156  0.3630  0.2650 -0.1864
31557SOL    HW198459   0.679   5.444   2.128  0.5941  0.2244  0.5014
31557SOL    HW298460   0.540   5.428   2.185  1.1237  0.3911  1.8691
31558SOL     OW98461   0.810   7.890   1.278 -0.3960 -0.2276 -0.3956
31558SOL    HW198462   0.723   7.862   1.306 -0.9959  1.6320 -0.2738
31558SOL    HW298463   0.799   7.982   1.254  0.5495 -0.9948 -4.5772
31559SOL     OW98464   5.185   1.970   4.455 -0.2931  0.5155  0.0743
31559SOL    HW198465   5.112   1.909   4.445  0.9611 -0.7359 -2.6746
31559SOL    HW298466   5.223   1.948   4.540 -2.5976  0.6868  1.2160
31560SOL     OW98467   4.919   1.009  10.033 -0.0131  0.1560  0.6535
31560SOL    HW198468   4.906   1.043  10.122 -1.2590 -1.0953  0.9906
31560SOL    HW298469   4.949   0.919  10.046  1.7233  0.5800 -0.2174
31561SOL     OW98470   5.036   8.201   3.936  0.4249 -0.6619  0.4687
31561SOL    HW198471   4.966   8.163   3.883 -1.0505  0.0241  1.8324
31561SOL    HW298472   4.995   8.216   4.021  2.0561  0.4094  1.0975
31562SOL     OW98473   9.896   8.436   2.398 -0.4554 -0.4811 -0.1561
31562SOL    HW198474   9.883   8.469   2.487 -1.3243 -0.6588 -0.2103
31562SOL    HW298475   9.938   8.351   2.410 -1.0762 -0.7559  0.1164
31563SOL     OW98476   5.407   2.738   8.390 -0.0016  0.2277  0.5223
31563SOL    HW198477   5.401   2.738   8.295 -0.0668 -1.3357  0.4997
31563SOL    HW298478   5.451   2.820   8.411 -1.2007  1.2405 -0.7520
31564SOL     OW98479   8.743   0.204   6.025  0.0334 -0.2988 -0.4445
31564SOL    HW198480   8.820   0.160   6.059 -0.2977 -0.2032  0.4528
31564SOL    HW298481   8.724   0.159   5.942 -0.4239 -2.0125  0.5382
31565SOL     OW98482   7.198   2.643   7.007 -0.4735  0.1528  0.2012
31565SOL    HW198483   7.278   2.692   6.988  0.1840 -0.1598  1.9730
31565SOL    HW298484   7.191   2.580   6.935  1.0866 -0.0473  0.1885
31566SOL     OW98485   0.141   8.294   2.600  0.3031 -0.3249 -0.3392
31566SOL    HW198486   0.125   8.299   2.695  1.3873  0.1520 -0.1612
31566SOL    HW298487   0.211   8.230   2.591  1.2251  0.6948 -0.6643
31567SOL     OW98488   0.651   7.581   1.923 -0.5790  0.4538 -0.1859
31567SOL    HW198489   0.632   7.641   1.995 -0.3024  1.3190 -0.8078
31567SOL    HW298490   0.592   7.609   1.853 -0.7414 -0.2809 -0.3427
31568SOL     OW98491   1.181   3.191   9.976  1.1357  0.1699 -0.1924
31568SOL    HW198492   1.233   3.184   9.896  0.6540 -0.4690 -0.4619
31568SOL    HW298493   1.217   3.124  10.034  1.2607  0.4003 -0.0036
31569SOL     OW98494  10.078   5.964   4.221  0.2123  0.1275 -0.8494
31569SOL    HW198495  10.160   5.916   4.229 -0.5006 -0.9568  0.2421
31569SOL    HW298496  10.047   5.943   4.133  1.0019  0.4185 -1.2109
31570SOL     OW98497   5.180   7.964   0.334  0.0769  0.4324  0.6649
31570SOL    HW198498   5.187   7.971   0.429  0.8374 -0.8975  0.7381
31570SOL    HW298499   5.100   8.012   0.312 -1.3499 -1.0837  2.2465
31571SOL     OW98500   7.612   4.266   7.568 -0.4943 -0.9173  0.2964
31571SOL    HW198501   7.560   4.338   7.531 -0.1830 -0.7569  0.1698
31571SOL    HW298502   7.567   4.243   7.650  0.0692  0.2224  0.9547
31572SOL     OW98503   0.881   7.289   1.330 -0.1355  0.1078  0.0996
31572SOL    HW198504   0.955   7.261   1.383  0.2901 -2.8161 -1.8328
31572SOL    HW298505   0.829   7.343   1.389  1.7559 -0.5765  2.5712
31573SOL     OW98506   4.627   2.931   5.104 -0.6160 -0.0913  0.6571
31573SOL    HW198507   4.673   3.014   5.091 -0.1807  0.3052  3.8858
31573SOL    HW298508   4.688   2.864   5.072  0.8508  0.6328  1.8218
31574SOL     OW98509   6.028   4.421   2.812 -0.2304 -0.2143 -0.1730
31574SOL    HW198510   5.979   4.407   2.731 -1.0560  0.6330  0.1544
31574SOL    HW298511   6.111   4.377   2.798 -0.1674  0.3327 -1.6686
31575SOL     OW98512   4.952   9.236   8.891 -0.1318 -0.0729  0.2331
31575SOL    HW198513   5.024   9.182   8.925 -0.8082 -1.0588  0.1479
31575SOL    HW298514   4.899   9.256   8.969  0.4062  0.9297  0.3473
31576SOL     OW98515  10.226   8.147   7.658  0.0527  0.3722 -0.2195
31576SOL    HW198516  10.298   8.177   7.603 -0.1083  0.1327 -0.5713
31576SOL    HW298517  10.239   8.052   7.665  0.3264  0.4572  0.5394
31577SOL     OW98518   3.134   1.167   5.660  0.0089 -0.2459  0.6989
31577SOL    HW198519   3.048   1.135   5.686 -0.8157  1.7480  0.6106
31577SOL    HW298520   3.168   1.100   5.600 -1.9995 -0.5154 -0.2120
31578SOL     OW98521  10.147   3.213   7.897 -0.6316 -0.0416 -0.1776
31578SOL    HW198522  10.079   3.186   7.958  1.9683 -0.7630  2.6451
31578SOL    HW298523  10.116   3.183   7.812 -3.3823 -1.0961  1.0746
31579SOL     OW98524   2.972   4.024   6.402  0.7440  0.0598 -0.5557
31579SOL    HW198525   2.878   4.031   6.417  0.7553  0.0556 -0.4844
31579SOL    HW298526   2.996   3.938   6.438  1.1364  0.8901  1.2882
31580SOL     OW98527   4.486   0.343   4.252 -0.1688 -0.0837  0.1012
31580SOL    HW198528   4.565   0.347   4.198  0.1132  1.6059  0.5775
31580SOL    HW298529   4.418   0.384   4.199 -0.4275 -0.4018  0.1829
31581SOL     OW98530   2.286   3.126   8.577 -0.0064  0.1810 -1.3984
31581SOL    HW198531   2.313   3.056   8.517 -0.2950  0.6943 -2.1309
31581SOL    HW298532   2.365   3.145   8.628 -0.0130 -0.9165 -0.9432
31582SOL     OW98533   6.141   2.495   6.200  0.7680  0.3532  0.7671
31582SOL    HW198534   6.230   2.463   6.213  1.2615 -0.4618 -3.1567
31582SOL    HW298535   6.085   2.429   6.240  1.8017  1.0998  3.6822
31583SOL     OW98536   5.620   6.832   2.228  0.4877  0.5846  0.4131
31583SOL    HW198537   5.641   6.886   2.152 -0.6029  0.4972  0.0297
31583SOL    HW298538   5.663   6.875   2.302 -0.7610  2.2768  0.2068
31584SOL     OW98539   9.899  10.351   6.989 -0.2694  0.0404 -0.2120
31584SOL    HW198540   9.854  10.300   7.057  0.0920  1.5293  1.2088
31584SOL    HW298541   9.992  10.345   7.013 -0.1253  0.4911 -0.6400
31585SOL     OW98542   7.196   0.132   2.702 -0.3916  0.0108  0.0578
31585SOL    HW198543   7.145   0.089   2.633 -0.7795 -0.0420  0.3732
31585SOL    HW298544   7.218   0.218   2.667  0.3818 -0.4379 -0.5784
31586SOL     OW98545   1.646   9.413   3.530  0.5375  0.2491  0.1883
31586SOL    HW198546   1.655   9.391   3.623 -0.1224  0.3133  0.2697
31586SOL    HW298547   1.654   9.508   3.527 -1.9329  0.5377  0.5166
31587SOL     OW98548   0.213  10.089   4.784  0.0018 -0.0823  0.0525
31587SOL    HW198549   0.295  10.051   4.752  0.8025  0.6475  1.1546
31587SOL    HW298550   0.177  10.022   4.842  0.1395 -0.1665  0.0407
31588SOL     OW98551   5.136   5.433   2.358  0.0856  0.3865  0.5976
31588SOL    HW198552   5.122   5.343   2.330  0.4810  0.2503  0.8289
31588SOL    HW298553   5.225   5.434   2.394  1.9430  1.8038 -3.3227
31589SOL     OW98554   0.240  10.308   3.601  0.3454 -0.2080 -0.0012
31589SOL    HW198555   0.216  10.397   3.625  3.3579  0.2633  1.7612
31589SOL    HW298556   0.325  10.316   3.557  2.3714 -2.2529  3.0938
31590SOL     OW98557   0.170   5.247   0.634  0.4830 -0.7158 -0.0275
31590SOL    HW198558   0.231   5.317   0.614 -1.1162  0.6441 -0.4270
31590SOL    HW298559   0.223   5.168   0.639  2.3521  0.5148  0.4414
31591SOL     OW98560   5.501   3.943   7.798  0.1633  0.2567 -0.4038
31591SOL    HW198561   5.428   3.913   7.744  0.3149 -1.0095  0.0436
31591SOL    HW298562   5.484   3.905   7.885  0.3985  1.4815  0.1934
31592SOL     OW98563   0.762   9.098   4.172 -0.6100 -0.9670  0.3447
31592SOL    HW198564   0.759   9.015   4.125 -2.6711 -0.8175  0.1044
31592SOL    HW298565   0.671   9.114   4.198  0.0812  0.1913  2.2091
31593SOL     OW98566   9.343   6.110   9.892  0.2284  0.1269 -0.2806
31593SOL    HW198567   9.401   6.110   9.968 -0.8896  1.6021  0.6387
31593SOL    HW298568   9.348   6.022   9.857  0.4690 -0.7119  1.7536
31594SOL     OW98569   5.473   9.928   5.120 -0.5300 -0.7142  0.4999
31594SOL    HW198570   5.449   9.970   5.038 -0.3764  0.9753  1.2656
31594SOL    HW298571   5.390   9.920   5.168 -0.3312  0.4214  1.0769
31595SOL     OW98572   2.338   9.756   3.524 -0.0102  0.1009  0.5138
31595SOL    HW198573   2.301   9.699   3.591  0.4385 -2.1851 -1.1005
31595SOL    HW298574   2.404   9.703   3.480  0.7363  2.0133 -0.8115
31596SOL     OW98575   9.059   6.161   8.820  0.2313  0.1130 -0.0325
31596SOL    HW198576   9.104   6.110   8.753 -0.1986 -1.5887  0.9200
31596SOL    HW298577   9.018   6.233   8.772  1.8948  0.3017 -1.2438
31597SOL     OW98578   3.734   8.574   9.936  0.2024 -0.1359  0.0766
31597SOL    HW198579   3.748   8.668   9.925  0.4993 -0.2561 -0.6180
31597SOL    HW298580   3.796   8.549  10.004  0.6201  0.0462 -0.2293
31598SOL     OW98581   9.740   3.953  10.274 -0.8814 -0.0538  0.3450
31598SOL    HW198582   9.725   3.880  10.333 -0.1217  0.6444  1.4583
31598SOL    HW298583   9.711   3.922  10.189 -2.3353 -0.9811  1.1401
31599SOL     OW98584   0.891   6.647   3.735  0.4078 -0.0568  0.0442
31599SOL    HW198585   0.824   6.681   3.675  0.0770  1.1766  1.0759
31599SOL    HW298586   0.974   6.668   3.692  0.1694 -0.3590 -0.5881
31600SOL     OW98587   4.893   9.053   1.213  0.2843  0.1394  0.5170
31600SOL    HW198588   4.949   9.026   1.286  1.8436 -1.5079 -1.1597
31600SOL    HW298589   4.936   9.131   1.178  1.1428 -0.6733 -0.2911
31601SOL     OW98590  10.209   1.338   6.703 -0.1471  0.1581  0.3525
31601SOL    HW198591  10.250   1.316   6.786  0.2020  2.2490  0.7928
31601SOL    HW298592  10.245   1.423   6.680 -0.2353 -0.3597 -1.9653
31602SOL     OW98593   6.336   7.145   0.522 -0.1543  0.0707  0.1989
31602SOL    HW198594   6.246   7.168   0.543  0.0000  1.1249 -0.2091
31602SOL    HW298595   6.389   7.206   0.573  0.3265 -0.3089  0.1678
31603SOL     OW98596   4.264   0.927   8.016 -0.8665  0.1214  0.4006
31603SOL    HW198597   4.294   1.015   8.040  0.6012  0.0037 -0.8641
31603SOL    HW298598   4.314   0.905   7.938 -2.5793 -1.0984 -0.4138
31604SOL     OW98599   0.923   8.882   9.134 -0.4456  0.8556  0.2587
31604SOL    HW198600   0.889   8.968   9.107 -0.5364  0.7525  0.0406
31604SOL    HW298601   0.901   8.876   9.227 -0.3687  1.1016  0.2936
31605SOL     OW98602   2.931   5.627   7.393 -0.0893  0.5871  0.2095
31605SOL    HW198603   2.908   5.623   7.486  0.3247 -4.4413  0.3735
31605SOL    HW298604   3.026   5.642   7.393  0.7756 -3.5137  1.1140
31606SOL     OW98605   8.332   8.074   6.340  0.1316  0.0689  0.1209
31606SOL    HW198606   8.384   8.042   6.267  1.0844 -2.6459  1.8558
31606SOL    HW298607   8.396   8.090   6.410 -0.7057  2.9395  0.3516
31607SOL     OW98608   8.134   6.289  10.272 -0.2660 -0.0737  0.3749
31607SOL    HW198609   8.228   6.304  10.269 -0.2179  0.2047  2.0208
31607SOL    HW298610   8.096   6.375  10.289 -0.7465 -0.3121  0.5397
31608SOL     OW98611   6.063   6.751   3.816  0.2995  0.4453  0.4243
31608SOL    HW198612   6.113   6.812   3.761 -1.2481  1.6911  0.3417
31608SOL    HW298613   6.095   6.768   3.905 -0.3188  1.6359  0.4455
31609SOL     OW98614   9.149   8.382   1.658  0.1331 -0.0431  0.1057
31609SOL    HW198615   9.188   8.335   1.584 -1.6598 -0.4736 -0.6307
31609SOL    HW298616   9.105   8.314   1.709  0.5474  0.3872  1.0613
31610SOL     OW98617   1.242  10.322   1.930  0.6835  1.0695 -0.0068
31610SOL    HW198618   1.159  10.298   1.889  0.2350  0.7240  1.0594
31610SOL    HW298619   1.306  10.319   1.859 -0.1054  0.7413 -0.7194
31611SOL     OW98620   6.862   7.661   8.598 -0.0431 -0.1225  0.8044
31611SOL    HW198621   6.831   7.606   8.670 -1.3362 -3.2606 -1.8892
31611SOL    HW298622   6.783   7.680   8.547  0.7854  2.2437  0.2420
31612SOL     OW98623   9.690   2.107   3.819 -0.0484 -0.3749 -0.0049
31612SOL    HW198624   9.746   2.134   3.891 -1.5648 -0.0540  1.0879
31612SOL    HW298625   9.628   2.046   3.858  0.6641 -2.2312 -1.5715
31613SOL     OW98626   1.391   3.151   0.980 -0.8565 -0.4570  0.2203
31613SOL    HW198627   1.382   3.240   0.947  2.0537  0.7030  2.1455
31613SOL    HW298628   1.461   3.113   0.928 -2.0824 -1.6935 -0.5921
31614SOL     OW98629   7.414   7.364   4.378 -0.1209 -0.0599 -0.0102
31614SOL    HW198630   7.498   7.376   4.334  0.1505  0.2872  0.5921
31614SOL    HW298631   7.350   7.360   4.307  0.2179  1.2366 -0.4073
31615SOL     OW98632   4.045   3.379   4.515 -0.5988  0.3639  0.2945
31615SOL    HW198633   3.957   3.414   4.510 -1.3016 -1.4337 -1.2030
31615SOL    HW298634   4.071   3.364   4.424 -0.3078 -2.6627  0.7594
31616SOL     OW98635   3.676   9.401   3.652  0.4293  0.2668 -0.1726
31616SOL    HW198636   3.704   9.465   3.586 -0.7650  0.9596 -0.0308
31616SOL    HW298637   3.745   9.404   3.718  0.5869  1.1408 -0.3556
31617SOL     OW98638   6.968   7.889   0.803  0.2741  0.1557 -0.0021
31617SOL    HW198639   6.888   7.892   0.856  0.1395  1.3251 -0.2488
31617SOL    HW298640   7.004   7.802   0.819 -1.0698 -0.4107  0.0822
31618SOL     OW98641   3.735   7.400   1.048 -0.2098 -0.1301  0.1912
31618SOL    HW198642   3.664   7.448   1.004 -0.5025 -1.0465 -0.3603
31618SOL    HW298643   3.809   7.405   0.988  0.1543  0.6670  0.6851
31619SOL     OW98644   8.242   5.470   1.746 -0.1195 -0.3832  0.4754
31619SOL    HW198645   8.273   5.485   1.836 -0.6180  0.2277  0.5556
31619SOL    HW298646   8.285   5.539   1.695 -2.1639  1.1831  0.7781
31620SOL     OW98647   5.402   3.051   8.564 -0.0699  0.6328  0.6772
31620SOL    HW198648   5.311   3.023   8.562  0.2904 -0.6041  0.8051
31620SOL    HW298649   5.421   3.065   8.657  0.0471  0.2823  0.7061
31621SOL     OW98650   1.078   0.870   2.496  0.5400  0.1345  0.4657
31621SOL    HW198651   0.996   0.908   2.464  0.8014 -0.3515 -0.8526
31621SOL    HW298652   1.054   0.782   2.525 -0.1518  1.3078  3.9289
31622SOL     OW98653   9.520   0.846   2.194 -0.3870  0.3658 -0.4044
31622SOL    HW198654   9.431   0.848   2.230  0.3602  0.5601  1.5656
31622SOL    HW298655   9.516   0.783   2.122 -1.9388 -0.1909  0.1381
31623SOL     OW98656   0.152  10.341   7.969  0.3436 -0.3745 -0.1896
31623SOL    HW198657   0.207  10.380   8.036 -0.5490  1.3191 -0.3860
31623SOL    HW298658   0.092  10.285   8.017 -1.4252  2.1265  0.7358
31624SOL     OW98659   6.425   1.703   9.259  0.0067  0.4588  0.0282
31624SOL    HW198660   6.381   1.756   9.325 -1.7959  0.6766 -1.2720
31624SOL    HW298661   6.364   1.631   9.242  1.7071 -1.1944  0.6223
31625SOL     OW98662   4.819   3.094   6.146  0.2688  0.4551  0.1190
31625SOL    HW198663   4.777   3.043   6.076  2.7467 -1.5777 -0.0499
31625SOL    HW298664   4.870   3.161   6.100  2.5601 -1.3884 -0.2556
31626SOL     OW98665   3.385   6.721   8.908  0.7574 -0.1971 -0.4565
31626SOL    HW198666   3.348   6.646   8.955 -0.7699  0.0513 -1.1896
31626SOL    HW298667   3.453   6.683   8.852 -0.2675 -1.1249 -1.1284
31627SOL     OW98668   6.303   6.058   7.434  0.0458  0.3259  0.1444
31627SOL    HW198669   6.383   6.020   7.397 -0.7782 -0.1112 -1.2656
31627SOL    HW298670   6.329   6.144   7.466  1.1362  0.0715 -0.0243
31628SOL     OW98671   1.657   4.585   0.281 -0.1929 -0.6456  0.3468
31628SOL    HW198672   1.569   4.622   0.289  0.2693  0.8460 -1.0132
31628SOL    HW298673   1.655   4.538   0.198  1.0740  1.8163 -1.1571
31629SOL     OW98674   2.289   3.824   2.933 -0.6411  0.0064  0.4168
31629SOL    HW198675   2.273   3.732   2.916 -0.9929  0.2211 -0.4613
31629SOL    HW298676   2.370   3.844   2.887  0.9526 -0.4676  2.7892
31630SOL     OW98677   2.065   3.899   2.776 -0.0611 -0.2251  0.1107
31630SOL    HW198678   2.107   3.900   2.690 -2.0629 -3.0273 -1.0281
31630SOL    HW298679   2.137   3.913   2.838  1.6915  0.2085 -1.9113
31631SOL     OW98680   9.493   0.235   8.373 -0.5211  0.4656 -0.0913
31631SOL    HW198681   9.465   0.243   8.464 -1.5871 -0.3139 -0.3193
31631SOL    HW298682   9.548   0.156   8.372 -0.8617  0.2252 -0.1872
31632SOL     OW98683   1.316   9.676   2.522 -0.3151 -0.2102 -0.1009
31632SOL    HW198684   1.409   9.686   2.501 -0.6221  1.1734 -0.9290
31632SOL    HW298685   1.302   9.582   2.524  1.4156 -0.4916  1.5589
31633SOL     OW98686   2.301   3.247   3.546  0.1728  0.2713 -0.5801
31633SOL    HW198687   2.332   3.178   3.605 -0.8257  0.9414  0.7895
31633SOL    HW298688   2.319   3.328   3.593 -1.1589  0.8056 -0.9409
31634SOL     OW98689   9.928   0.650   7.991  0.6297 -0.3992 -0.0578
31634SOL    HW198690   9.978   0.613   8.063 -0.7329 -0.3980  0.9253
31634SOL    HW298691   9.837   0.641   8.018  0.1077  0.0302 -1.5799
31635SOL     OW98692   7.192  10.069   2.482  0.5664 -0.0930 -0.0441
31635SOL    HW198693   7.135  10.023   2.420  1.2535 -1.8042  0.5479
31635SOL    HW298694   7.143  10.148   2.504 -0.7841 -0.6527 -0.8920
31636SOL     OW98695   6.721   9.786   5.179  0.0164  0.3318  0.2186
31636SOL    HW198696   6.648   9.741   5.137 -0.4310  1.6409 -0.4547
31636SOL    HW298697   6.794   9.776   5.118 -0.2376  0.9966 -0.1966
31637SOL     OW98698   8.970   6.841   4.745  0.4323  0.3307 -0.5229
31637SOL    HW198699   8.968   6.900   4.820 -3.9468  0.0318 -0.1487
31637SOL    HW298700   9.021   6.887   4.679  0.5085  2.7221  1.0726
31638SOL     OW98701   1.909   3.652   1.853 -0.4799 -0.1658 -0.0932
31638SOL    HW198702   1.930   3.596   1.777 -1.0210  0.7677 -0.9497
31638SOL    HW298703   1.891   3.590   1.924  0.5286 -1.0549 -0.5779
31639SOL     OW98704   2.579   0.753   3.656 -0.2013 -0.1754 -0.0762
31639SOL    HW198705   2.538   0.839   3.649  0.7091  0.1689 -1.6707
31639SOL    HW298706   2.583   0.736   3.750 -0.0992  1.6856  0.2964
31640SOL     OW98707   9.767  10.109   8.546 -0.0714  0.5778 -0.2774
31640SOL    HW198708   9.818  10.048   8.600 -2.0688 -1.2469 -0.3329
31640SOL    HW298709   9.738  10.176   8.608 -2.4452 -1.5623  1.1216
31641SOL     OW98710   5.945   1.935   1.907 -0.1517  0.6027  0.0600
31641SOL    HW198711   5.852   1.928   1.889  0.2184  1.1048 -2.3529
31641SOL    HW298712   5.980   1.987   1.835  2.5409 -2.4171 -1.0486
31642SOL     OW98713   7.491   6.370   9.717 -0.0770  0.0442 -0.0896
31642SOL    HW198714   7.461   6.456   9.748  1.0929 -0.0013  1.2980
31642SOL    HW298715   7.412   6.319   9.707 -0.6887  0.8693  0.4003
31643SOL     OW98716   7.814   6.807   9.677 -0.0827 -0.1964  0.1079
31643SOL    HW198717   7.720   6.813   9.662 -0.1085 -1.5586 -0.4552
31643SOL    HW298718   7.835   6.715   9.660  0.9879 -0.4297  2.3568
31644SOL     OW98719   8.595   8.723   8.024  0.2865  0.1831 -0.7305
31644SOL    HW198720   8.648   8.668   8.082 -2.2352 -0.1392  1.4579
31644SOL    HW298721   8.605   8.683   7.937  1.2845 -1.6332  0.1679
31645SOL     OW98722   8.303   5.017  10.033 -0.1966 -0.1095 -0.8851
31645SOL    HW198723   8.295   4.931  10.073  0.1471 -0.0213 -0.6184
31645SOL    HW298724   8.374   5.059  10.081 -1.5841  1.0297  0.2364
31646SOL     OW98725   0.252   5.491   8.884  0.8385  0.4381 -0.0746
31646SOL    HW198726   0.178   5.433   8.867  0.8274  0.0753  1.0774
31646SOL    HW298727   0.316   5.435   8.929  1.5123  0.9270 -0.3994
31647SOL     OW98728   2.427   8.446   9.293  1.2180  0.2707  0.2530
31647SOL    HW198729   2.490   8.384   9.256 -0.6925 -0.7659 -1.4054
31647SOL    HW298730   2.374   8.393   9.353  0.1737  0.5038 -0.4528
31648SOL     OW98731   4.669   3.646   7.190 -0.2368  0.1750 -0.3055
31648SOL    HW198732   4.731   3.574   7.191  0.1656  0.5132 -0.4252
31648SOL    HW298733   4.601   3.622   7.253  1.3278  0.9510  1.7786
31649SOL     OW98734   8.615   5.763   7.272 -0.1946  0.0813 -0.0468
31649SOL    HW198735   8.604   5.832   7.206  0.9824 -0.5058 -0.8962
31649SOL    HW298736   8.701   5.780   7.310  1.9006 -3.0009 -2.9042
31650SOL     OW98737   6.670   2.706   2.873  0.6226 -0.0903 -0.1894
31650SOL    HW198738   6.657   2.791   2.832 -0.6982 -0.4113 -0.4975
31650SOL    HW298739   6.658   2.722   2.966  0.2635  0.0511 -0.2571
31651SOL     OW98740   5.385   1.777   7.368  0.1522  0.6502  0.6338
31651SOL    HW198741   5.472   1.757   7.333 -0.1863  3.3362 -2.2767
31651SOL    HW298742   5.401   1.846   7.432  0.2367  0.5209  0.7523
31652SOL     OW98743   0.196   9.702   3.437  0.7496 -0.1537  0.0910
31652SOL    HW198744   0.205   9.755   3.517  0.6529 -0.5012  0.3383
31652SOL    HW298745   0.235   9.755   3.368 -0.1550  0.6247  0.1638
31653SOL     OW98746   1.407   2.673   2.264 -0.6341 -0.0538  0.4038
31653SOL    HW198747   1.375   2.679   2.174  0.7609 -0.2374 -0.1403
31653SOL    HW298748   1.346   2.615   2.308 -2.7974  1.9996  0.2822
31654SOL     OW98749   5.704   1.388   9.135  0.4605 -0.3006  0.0960
31654SOL    HW198750   5.771   1.346   9.190  0.5140 -1.3875 -0.7566
31654SOL    HW298751   5.694   1.475   9.172  1.3269 -0.6058  1.1179
31655SOL     OW98752   2.047   6.410   8.052  0.0757 -0.0183 -0.0587
31655SOL    HW198753   2.019   6.319   8.042  0.4829 -0.0737 -0.7881
31655SOL    HW298754   2.103   6.409   8.130  0.3718 -0.4640 -0.2720
31656SOL     OW98755   0.488   6.362   4.904 -0.3280 -0.2408  0.1429
31656SOL    HW198756   0.499   6.454   4.884 -0.0008 -0.2456  0.2905
31656SOL    HW298757   0.444   6.361   4.989 -2.0600 -0.2191 -0.7140
31657SOL     OW98758   0.143   8.838   4.136  0.0469  0.2150  0.4697
31657SOL    HW198759   0.197   8.774   4.090 -0.6647 -0.0158 -0.0707
31657SOL    HW298760   0.104   8.789   4.208  0.8439  0.4774  1.0954
31658SOL     OW98761   7.682   4.268   2.524 -0.3612 -0.6739 -0.5022
31658SOL    HW198762   7.593   4.278   2.558  0.0657 -0.9040  0.7334
31658SOL    HW298763   7.734   4.331   2.574  0.1775 -0.5131 -1.2375
31659SOL     OW98764   2.916   2.792   3.271  0.1718 -0.1405 -0.6049
31659SOL    HW198765   2.929   2.747   3.187 -0.8438 -0.9219 -0.3644
31659SOL    HW298766   2.821   2.792   3.283  0.3288 -0.4260  0.7475
31660SOL     OW98767   4.050   1.734   4.232 -0.4038 -0.1796  0.0635
31660SOL    HW198768   4.060   1.774   4.145  0.7061 -0.5378  0.0202
31660SOL    HW298769   4.133   1.750   4.276 -0.5935 -0.8736  0.6932
31661SOL     OW98770   4.990   4.815   8.957  0.1584  0.4184 -0.3534
31661SOL    HW198771   5.009   4.794   9.049 -1.6462  0.8872  0.1691
31661SOL    HW298772   4.990   4.730   8.913  0.2564  0.0946  0.2517
31662SOL     OW98773   2.037   0.011   4.306 -0.1250  0.5229 -0.1653
31662SOL    HW198774   2.101  -0.049   4.267  0.9921  2.0990 -0.8654
31662SOL    HW298775   2.077   0.039   4.388 -0.4808  0.5713 -0.0067
31663SOL     OW98776   9.471   0.094   1.253  0.2157 -0.2702  0.3389
31663SOL    HW198777   9.529   0.140   1.314 -1.0621 -0.0702  1.4590
31663SOL    HW298778   9.479   0.143   1.171  0.6292  0.5479  0.8520
31664SOL     OW98779   3.817   4.585   5.343 -0.5754  0.1156  1.0918
31664SOL    HW198780   3.789   4.494   5.351 -1.7241  0.4272  0.8300
31664SOL    HW298781   3.791   4.626   5.426  0.3550  0.1169  1.3988
31665SOL     OW98782   9.936   4.923   3.239  0.1387  0.1905  0.4994
31665SOL    HW198783   9.847   4.898   3.262 -0.5082  2.9021  1.2260
31665SOL    HW298784   9.958   4.994   3.299  2.0828  0.8915 -0.9227
31666SOL     OW98785   0.274   3.958   2.918  0.5215 -0.0796 -0.1759
31666SOL    HW198786   0.267   3.863   2.929  0.9637 -0.1227 -0.2394
31666SOL    HW298787   0.227   3.976   2.837 -1.0811 -0.0089  0.7107
31667SOL     OW98788   8.031   9.041   1.944  0.5143 -0.4046  0.6854
31667SOL    HW198789   7.974   9.043   2.022  1.1938  1.1445  1.1782
31667SOL    HW298790   8.120   9.048   1.979  0.8005  0.9415 -0.2320
31668SOL     OW98791   4.925   5.959   7.719 -0.9484  0.4565  0.0952
31668SOL    HW198792   4.963   5.999   7.797 -0.7565 -0.4722  0.4916
31668SOL    HW298793   5.000   5.923   7.671 -1.2902 -1.3011  0.8326
31669SOL     OW98794   8.352   1.731   5.204 -0.2672 -0.4290 -0.0381
31669SOL    HW198795   8.408   1.759   5.277 -0.7903  0.3072  0.0971
31669SOL    HW298796   8.405   1.746   5.126 -0.6080  1.2510  0.0077
31670SOL     OW98797   4.655   9.100   1.300  0.3467 -0.5250  0.7696
31670SOL    HW198798   4.650   9.049   1.380 -0.7734 -2.3862 -0.4104
31670SOL    HW298799   4.740   9.077   1.262 -0.3626 -2.0400 -0.0164
31671SOL     OW98800  10.259   0.895   8.931  0.2124  0.3882  0.2582
31671SOL    HW198801  10.247   0.884   8.836 -0.0010  0.9045  0.2242
31671SOL    HW298802  10.339   0.946   8.939 -0.4097  1.3896  0.3051
31672SOL     OW98803   1.046   7.733   4.087 -0.1420  0.5999 -0.5967
31672SOL    HW198804   0.993   7.679   4.029  0.7092  0.1416 -0.9674
31672SOL    HW298805   1.054   7.817   4.041  1.6727 -0.1854 -1.8736
31673SOL     OW98806   5.959   3.170   1.023 -0.3730  0.0252  0.0566
31673SOL    HW198807   5.910   3.198   0.946 -1.1299 -1.1079  0.1033
31673SOL    HW298808   5.942   3.076   1.030 -1.7239  0.3656  2.5838
31674SOL     OW98809   2.056   5.013   5.381 -0.0431  0.2980  0.0397
31674SOL    HW198810   2.099   5.091   5.345 -0.4538  0.1991 -0.6725
31674SOL    HW298811   2.120   4.978   5.444 -0.2220  1.7275  1.0769
31675SOL     OW98812   8.175   0.516   0.004  0.1322  0.2533 -0.6649
31675SOL    HW198813   8.102   0.577   0.018  1.8503  2.1794  0.6162
31675SOL    HW298814   8.208   0.538  -0.083  0.0457  0.3974 -0.6630
31676SOL     OW98815   1.659   6.853   6.584  0.1795  0.1228 -0.1056
31676SOL    HW198816   1.565   6.857   6.569  0.0463 -0.1149  0.6177
31676SOL    HW298817   1.698   6.869   6.498 -0.5432 -1.1168 -0.6877
31677SOL     OW98818   9.569   7.452   2.420 -0.3277  0.5197 -0.3674
31677SOL    HW198819   9.615   7.465   2.503 -0.5109 -1.3954  0.0728
31677SOL    HW298820   9.537   7.539   2.396  1.7572  1.5305  0.3444
31678SOL     OW98821   1.823   1.750   6.218  0.0041 -0.3084  0.4702
31678SOL    HW198822   1.831   1.693   6.294  0.1201 -0.3812  0.4044
31678SOL    HW298823   1.802   1.836   6.254  0.1529 -0.3219  0.5915
31679SOL     OW98824   4.198   9.482   0.975 -0.0844  0.3872  0.4104
31679SOL    HW198825   4.234   9.398   1.004  1.6211  1.3133  1.1416
31679SOL    HW298826   4.268   9.545   0.992 -0.7668  1.7443 -1.4762
31680SOL     OW98827   0.717   1.738   3.429 -0.2281  0.6716 -0.5592
31680SOL    HW198828   0.639   1.753   3.375  1.3595  3.2248 -2.3049
31680SOL    HW298829   0.790   1.738   3.368  1.4841  1.6541  1.3572
31681SOL     OW98830   4.003   1.489   4.304  0.1681  0.3348 -0.4982
31681SOL    HW198831   4.010   1.570   4.254  0.9803  0.0571 -0.8594
31681SOL    HW298832   4.014   1.515   4.395 -0.6090  0.7528 -0.5168
31682SOL     OW98833   1.805   9.749   5.017 -0.7591  0.0076 -0.2220
31682SOL    HW198834   1.754   9.826   5.040  1.0298  0.9086  0.9163
31682SOL    HW298835   1.777   9.728   4.927 -1.3433  1.8983 -0.5217
31683SOL     OW98836   9.835   9.547   5.110  0.6276  0.3502  0.3809
31683SOL    HW198837   9.765   9.575   5.168 -1.1083 -0.8747 -0.9918
31683SOL    HW298838   9.821   9.598   5.030  0.2380 -1.0528 -0.4856
31684SOL     OW98839   3.376   0.492   6.582  0.4508 -0.4246 -0.0798
31684SOL    HW198840   3.409   0.581   6.591  0.0280 -0.3753  1.1265
31684SOL    HW298841   3.426   0.441   6.645 -1.1664 -0.5058  1.1896
31685SOL     OW98842   0.168   0.166   2.305  0.5978  0.0792  0.0627
31685SOL    HW198843   0.204   0.091   2.351 -0.5327 -0.4566  0.1022
31685SOL    HW298844   0.230   0.182   2.233  1.4017 -0.2145  0.6794
31686SOL     OW98845   2.102   2.451   6.256 -0.2103  0.5579 -0.1448
31686SOL    HW198846   2.057   2.482   6.178  1.6363  0.5925 -1.2519
31686SOL    HW298847   2.151   2.526   6.288  1.3865 -0.1855 -0.7164
31687SOL     OW98848   3.989   6.160   8.324  0.1206  0.0369 -0.0739
31687SOL    HW198849   3.968   6.248   8.356  0.6835 -0.3228  1.3279
31687SOL    HW298850   4.083   6.151   8.338 -0.1373 -1.2520  1.0013
31688SOL     OW98851   6.070   0.442   1.830 -0.0037  0.4295  0.1729
31688SOL    HW198852   6.138   0.501   1.799 -0.4441  0.6190 -0.4641
31688SOL    HW298853   6.021   0.419   1.751  1.0736 -2.0010  0.1135
31689SOL     OW98854   1.728   4.329   6.354  0.4469 -0.1685 -0.1728
31689SOL    HW198855   1.719   4.421   6.330  2.5652 -0.0371 -0.6167
31689SOL    HW298856   1.649   4.287   6.319  1.2498  0.8191 -3.4477
31690SOL     OW98857   1.789   8.840   6.609  0.8360 -0.3418  0.2920
31690SOL    HW198858   1.694   8.838   6.593  0.8908 -1.4949  0.0011
31690SOL    HW298859   1.811   8.933   6.608 -0.4500  0.0096  1.3470
31691SOL     OW98860   1.775   0.875   7.983  0.1275  0.0761 -0.0406
31691SOL    HW198861   1.705   0.917   8.033 -0.5033 -0.7077 -0.2489
31691SOL    HW298862   1.732   0.840   7.905  0.1016 -3.0344  1.2264
31692SOL     OW98863   7.806   2.172   4.065 -0.0720 -0.3270 -0.4315
31692SOL    HW198864   7.892   2.215   4.073 -0.0592 -0.6400  2.0222
31692SOL    HW298865   7.825   2.079   4.072 -0.6277 -0.3692  0.8063
31693SOL     OW98866   9.779   1.790   9.642  0.4077  0.6501  0.2641
31693SOL    HW198867   9.838   1.865   9.642 -0.1825  1.1241 -0.2500
31693SOL    HW298868   9.692   1.827   9.658 -0.4883  0.6183 -3.4778
31694SOL     OW98869   1.268   4.449   0.674  0.6178  0.0159 -0.1887
31694SOL    HW198870   1.353   4.409   0.692  1.4523  1.6009 -0.4752
31694SOL    HW298871   1.260   4.519   0.739 -2.4968 -2.7414  2.8286
31695SOL     OW98872   4.770   1.916   0.893 -0.0133  0.5839  0.4392
31695SOL    HW198873   4.835   1.933   0.825 -0.9411  0.1756 -0.5699
31695SOL    HW298874   4.822   1.893   0.970  1.0432  0.0870 -0.3924
31696SOL     OW98875   9.504   8.275   2.255  0.0296  0.3139 -0.6830
31696SOL    HW198876   9.533   8.200   2.307  0.4480 -0.3687 -1.8635
31696SOL    HW298877   9.418   8.250   2.222  0.6488 -0.1422 -2.0013
31697SOL     OW98878   7.148   9.202   9.103 -0.0914 -0.2202 -0.2116
31697SOL    HW198879   7.150   9.289   9.064 -2.6405 -0.5839 -1.3145
31697SOL    HW298880   7.105   9.215   9.188  1.5089 -0.1166  0.6234
31698SOL     OW98881   4.865   9.661   0.917  0.3282  0.3683  0.6625
31698SOL    HW198882   4.799   9.702   0.973 -0.3660 -0.4211  0.4381
31698SOL    HW298883   4.948   9.694   0.950  0.0209 -0.9669  2.9187
31699SOL     OW98884   0.849   8.998   3.067 -0.1048 -0.2038  0.2211
31699SOL    HW198885   0.783   9.012   2.999  0.6048 -2.2422 -0.9784
31699SOL    HW298886   0.799   8.972   3.144 -0.7565 -1.8501 -0.7090
31700SOL     OW98887   5.706   8.632   9.588 -0.4020 -0.6619 -0.3981
31700SOL    HW198888   5.761   8.567   9.631 -1.0652 -0.9171  0.0869
31700SOL    HW298889   5.676   8.588   9.508 -0.5198 -0.8029 -0.2764
31701SOL     OW98890   4.932  10.079   5.962  0.3307 -0.2812  0.2863
31701SOL    HW198891   4.865  10.147   5.974  0.5614 -0.0633  0.3547
31701SOL    HW298892   4.968  10.095   5.875  1.7162  0.8964  1.0305
31702SOL     OW98893   4.861   8.598   1.078 -0.1096  1.1032 -0.0922
31702SOL    HW198894   4.888   8.582   0.987 -0.0612  0.5820  0.0130
31702SOL    HW298895   4.807   8.677   1.073 -2.5893 -0.5265 -1.0491
31703SOL     OW98896   9.376   8.305   3.886 -0.0719 -0.3838 -0.4698
31703SOL    HW198897   9.287   8.314   3.920 -0.8735 -0.6871 -2.3481
31703SOL    HW298898   9.419   8.387   3.908 -0.7891 -0.2498  0.5088
31704SOL     OW98899   3.508   7.577   5.914  0.4898  0.4910 -0.0866
31704SOL    HW198900   3.426   7.588   5.865  0.3294 -0.3147 -0.0137
31704SOL    HW298901   3.507   7.486   5.942  1.5678  0.3808 -0.3500
31705SOL     OW98902   8.459   7.333   6.163 -0.1388  0.0246 -0.6493
31705SOL    HW198903   8.512   7.272   6.113 -0.2093 -0.3690 -0.2459
31705SOL    HW298904   8.428   7.396   6.098  2.6162  1.6103 -0.5839
31706SOL     OW98905   6.706   5.804   8.628 -0.4811  0.1977 -0.0903
31706SOL    HW198906   6.712   5.809   8.723  2.3852 -0.8780 -0.1285
31706SOL    HW298907   6.757   5.727   8.605 -0.8709  0.6025 -2.5388
31707SOL     OW98908   8.575   5.575   3.032  0.0752  0.0754 -0.3512
31707SOL    HW198909   8.587   5.608   2.943 -1.0423  1.2727 -0.0881
31707SOL    HW298910   8.622   5.636   3.088  0.1958 -0.2791 -0.0592
31708SOL     OW98911   2.527   3.423   5.130  0.3271 -0.1458 -0.4298
31708SOL    HW198912   2.477   3.494   5.089  1.1292  0.4541 -0.3881
31708SOL    HW298913   2.501   3.425   5.222 -0.7084 -0.8340 -0.6864
31709SOL     OW98914   6.562   9.559   2.568 -0.2779  0.5493  0.2606
31709SOL    HW198915   6.552   9.651   2.595 -1.5958  0.3016  0.6900
31709SOL    HW298916   6.499   9.512   2.622 -0.0705 -0.5242 -0.4207
31710SOL     OW98917   5.255   0.082   8.773  0.0302  0.1077  0.3738
31710SOL    HW198918   5.271   0.176   8.767  0.2382  0.0740  0.3846
31710SOL    HW298919   5.323   0.050   8.833 -0.1503 -0.0215  0.5132
31711SOL     OW98920   8.017   1.074   7.849 -0.3326  0.0200  0.3634
31711SOL    HW198921   8.058   1.038   7.770 -1.3083 -0.3673  0.0125
31711SOL    HW298922   8.077   1.143   7.878 -0.0780  0.3475 -0.8727
31712SOL     OW98923   2.508  10.355   2.619 -0.0955 -0.2164  0.7300
31712SOL    HW198924   2.583  10.300   2.643  0.6524  1.0405  1.3892
31712SOL    HW298925   2.528  10.385   2.530 -0.2761 -0.6110  0.5520
31713SOL     OW98926   4.734   9.616   2.206  0.3722  0.6624  0.2864
31713SOL    HW198927   4.820   9.647   2.179  0.5549  0.8867  1.0978
31713SOL    HW298928   4.716   9.542   2.148  1.9056 -0.5395  1.2488
31714SOL     OW98929   7.718   8.490   5.278  0.3439  0.3135 -0.1859
31714SOL    HW198930   7.668   8.570   5.266 -0.9435 -0.1755  1.5310
31714SOL    HW298931   7.700   8.438   5.199  1.0876  1.6119 -1.2452
31715SOL     OW98932   9.449   9.839   4.749  0.0432  0.0623  0.6843
31715SOL    HW198933   9.359   9.859   4.776 -0.2165  1.2582 -0.9765
31715SOL    HW298934   9.454   9.867   4.658  1.6898 -1.3398  0.2924
31716SOL     OW98935   5.123   2.241   9.490 -0.0341 -0.0045  0.1772
31716SOL    HW198936   5.181   2.254   9.565  2.3455  0.7857 -1.6958
31716SOL    HW298937   5.046   2.294   9.510  1.6105  2.2187  1.0176
31717SOL     OW98938   0.578   5.466   1.005 -0.6626  0.6759  0.2403
31717SOL    HW198939   0.517   5.540   1.014 -0.8119  0.5266  0.4707
31717SOL    HW298940   0.527   5.390   1.033  0.1986  0.7904  2.3052
31718SOL     OW98941   6.993   5.441   6.582  0.4344  0.0715  0.0957
31718SOL    HW198942   6.929   5.375   6.608  0.2557  0.1386 -0.1738
31718SOL    HW298943   6.949   5.525   6.597  0.3764  0.1122 -0.3047
31719SOL     OW98944   6.880   2.720   3.440 -0.0329 -0.4503  0.3289
31719SOL    HW198945   6.811   2.684   3.496 -0.2672  0.1101  0.4048
31719SOL    HW298946   6.961   2.699   3.487 -0.2080 -0.3020  0.7013
31720SOL     OW98947   8.471  10.036   1.308  1.1562 -0.7298 -0.5028
31720SOL    HW198948   8.547  10.019   1.363 -1.5047 -0.3652  3.7510
31720SOL    HW298949   8.404   9.976   1.341 -1.2018  0.8085 -2.1846
31721SOL     OW98950   5.776   1.587   6.031  0.2308  0.1043  0.4640
31721SOL    HW198951   5.738   1.547   6.109  1.3178  1.4977  1.7491
31721SOL    HW298952   5.852   1.533   6.011  0.2715  0.0756  0.6960
31722SOL     OW98953   5.164   6.044   9.123  0.3181  0.4400  0.1038
31722SOL    HW198954   5.084   6.004   9.156 -0.6664  1.4682 -0.9246
31722SOL    HW298955   5.153   6.138   9.141  0.8233  0.7188 -0.9444
31723SOL     OW98956   5.076   2.010   9.319  0.2734 -0.4484 -0.4125
31723SOL    HW198957   5.084   2.074   9.389 -0.3955 -0.7747 -0.0373
31723SOL    HW298958   4.996   1.961   9.338  0.9020 -1.5779 -0.5409
31724SOL     OW98959   4.960   7.880   1.966 -0.2497 -0.4014 -0.1930
31724SOL    HW198960   4.904   7.836   1.901  0.3557 -1.4941 -0.0026
31724SOL    HW298961   5.027   7.924   1.913 -2.3167  2.6128 -0.5691
31725SOL     OW98962   0.671   3.764   2.149  0.0124  0.2584 -0.7060
31725SOL    HW198963   0.752   3.745   2.196  0.5495 -1.5442 -2.2344
31725SOL    HW298964   0.601   3.745   2.212  0.7056  1.8136  0.6187
31726SOL     OW98965   2.789   1.992  10.214  0.0596  0.8453 -0.2340
31726SOL    HW198966   2.774   1.992  10.308  0.2783  0.1304 -0.1899
31726SOL    HW298967   2.728   2.057  10.179 -0.4283  0.7002  0.3379
31727SOL     OW98968   7.193   6.826   5.743  0.3418  0.5474 -0.3271
31727SOL    HW198969   7.275   6.776   5.745  0.3837  0.6213 -0.1342
31727SOL    HW298970   7.134   6.773   5.689 -0.3249 -0.8416  1.6502
31728SOL     OW98971   1.298   8.213   8.146  0.0314  0.2227  0.2428
31728SOL    HW198972   1.214   8.253   8.168  0.3603  1.7984 -1.2090
31728SOL    HW298973   1.350   8.221   8.226 -0.1833  2.0488  0.2366
31729SOL     OW98974   9.378   1.191   7.172  0.7415 -0.2623 -0.2691
31729SOL    HW198975   9.362   1.282   7.196  3.7572 -0.1931  2.1816
31729SOL    HW298976   9.445   1.196   7.103  2.4307 -0.5297  1.2743
31730SOL     OW98977   7.446   3.678   8.156 -0.5145  0.2756 -0.4833
31730SOL    HW198978   7.422   3.642   8.071  1.8369 -0.4695 -0.8926
31730SOL    HW298979   7.472   3.768   8.138  2.6193 -0.6412 -1.1386
31731SOL     OW98980   1.117   4.521   0.450 -1.0524 -0.4765  0.2888
31731SOL    HW198981   1.069   4.595   0.487 -1.2641 -0.5680  0.2036
31731SOL    HW298982   1.166   4.484   0.523 -1.8720 -0.9757  0.6039
31732SOL     OW98983  10.186   6.977   6.489 -0.3155  0.7975  0.4174
31732SOL    HW198984  10.187   6.882   6.493  1.1488  0.8016  1.0458
31732SOL    HW298985  10.279   7.002   6.497 -0.1381  2.1555 -3.4609
31733SOL     OW98986  10.087   4.466   1.660 -0.2584  0.5020 -0.5004
31733SOL    HW198987   9.999   4.482   1.695 -0.6773 -2.1188 -0.2085
31733SOL    HW298988  10.145   4.472   1.736 -0.1898  1.8520 -0.6307
31734SOL     OW98989   3.645   6.577   5.851  0.5280  0.2001  0.2569
31734SOL    HW198990   3.573   6.621   5.804  1.1515  0.3866 -0.5599
31734SOL    HW298991   3.676   6.643   5.914 -0.8453 -0.3343  1.5375
31735SOL     OW98992   9.668   6.028   4.334  0.1607 -0.0063  0.5530
31735SOL    HW198993   9.672   6.043   4.428 -0.7982 -0.0534  0.6146
31735SOL    HW298994   9.748   6.067   4.299 -0.1671  1.3508  1.2234
31736SOL     OW98995   8.757   8.446   8.058 -0.0148  0.3505  0.0744
31736SOL    HW198996   8.694   8.405   7.999 -0.4851  0.6145  0.3845
31736SOL    HW298997   8.706   8.467   8.136  1.0099 -1.9824  1.4988
31737SOL     OW98998   0.271   7.410   2.887 -0.0924 -0.2342  0.1907
31737SOL    HW198999   0.179   7.386   2.893  0.4649 -2.7722  0.0902
31737SOL    HW299000   0.286   7.423   2.793 -0.4591  0.8259  0.2678
31738SOL     OW99001   7.565   9.585   5.205 -0.4899 -0.1190  0.5276
31738SOL    HW199002   7.538   9.545   5.123 -0.7120 -1.5326  1.2568
31738SOL    HW299003   7.619   9.659   5.179 -0.4943 -0.5877 -0.8909
31739SOL     OW99004   1.928   1.032   8.938  0.6279  0.5952  0.4421
31739SOL    HW199005   1.991   0.970   8.902 -0.4695 -0.6285  0.5563
31739SOL    HW299006   1.952   1.116   8.899  0.3920 -0.3943 -2.0136
31740SOL     OW99007   1.938   0.315   0.104  0.3818 -0.5742  0.0366
31740SOL    HW199008   1.978   0.336   0.020  1.2589  0.8688  0.7705
31740SOL    HW299009   1.891   0.234   0.089  0.6532 -0.4264 -1.8031
31741SOL     OW99010   0.379   7.758   1.177 -0.2708 -0.1201  0.3781
31741SOL    HW199011   0.453   7.746   1.118 -0.6036 -1.2727  0.1593
31741SOL    HW299012   0.334   7.835   1.143 -0.2679 -0.5616 -0.6940
31742SOL     OW99013   0.357   1.865   7.993  0.9854 -0.2480 -0.0303
31742SOL    HW199014   0.276   1.815   8.004  0.6632  0.1046 -0.6950
31742SOL    HW299015   0.328   1.957   7.989  1.5349 -0.0234  0.8787
31743SOL     OW99016   9.985   7.495   5.668 -0.1322 -0.3103  0.1760
31743SOL    HW199017  10.035   7.418   5.695  0.7409  0.3774  0.5742
31743SOL    HW299018   9.983   7.551   5.746 -0.2187  0.3500 -0.2889
31744SOL     OW99019   1.292   6.977   5.346 -0.5205 -0.0342 -0.0161
31744SOL    HW199020   1.231   7.019   5.407 -0.9325 -1.0174  0.2724
31744SOL    HW299021   1.254   6.992   5.259 -1.2634 -0.7652  0.1721
31745SOL     OW99022   3.607   6.486   3.830  0.6042 -0.4415 -0.0735
31745SOL    HW199023   3.564   6.401   3.819  1.7758 -1.1705  0.6860
31745SOL    HW299024   3.645   6.482   3.918  2.9402 -0.2298 -0.9902
31746SOL     OW99025   1.094   5.677   2.211 -0.0822  0.0166 -0.1418
31746SOL    HW199026   1.097   5.662   2.117  0.1691  2.9519 -0.6875
31746SOL    HW299027   1.186   5.691   2.235 -0.3778  1.9553 -0.0163
31747SOL     OW99028   4.530   5.400   5.399  0.2729 -0.0352  0.0881
31747SOL    HW199029   4.507   5.483   5.440  0.0317 -0.7943  1.5619
31747SOL    HW299030   4.626   5.403   5.392  0.2807  0.2786  0.3229
31748SOL     OW99031   6.762   6.090   8.952  0.0042 -0.0496 -0.4500
31748SOL    HW199032   6.708   6.113   8.877 -0.8531 -0.0662  0.1340
31748SOL    HW299033   6.795   6.003   8.932 -1.9207 -0.9697  0.0492
31749SOL     OW99034   9.051   5.773   0.293  0.3566  0.1293 -0.4381
31749SOL    HW199035   8.984   5.706   0.306  0.6176 -0.4081 -1.7409
31749SOL    HW299036   9.018   5.825   0.220 -0.5996  2.4469  1.4851
31750SOL     OW99037   4.139   4.778   3.213 -0.1661  0.0919 -0.1848
31750SOL    HW199038   4.100   4.824   3.288 -0.8346  1.2572 -1.2106
31750SOL    HW299039   4.094   4.813   3.137  1.2264 -0.2981 -1.2408
31751SOL     OW99040   9.140  10.071   7.082  0.1958  0.1646  0.0206
31751SOL    HW199041   9.167  10.089   6.992 -0.1498 -0.5195 -0.2319
31751SOL    HW299042   9.079  10.141   7.103  1.0431  0.9015  0.0875
31752SOL     OW99043   7.641   3.874   0.189 -0.0601 -0.4298  0.2952
31752SOL    HW199044   7.633   3.965   0.217 -1.5397 -0.4548  0.0306
31752SOL    HW299045   7.735   3.859   0.185  0.2176  1.0764  0.3697
31753SOL     OW99046   9.025   0.790   6.947 -0.0506  0.0563 -0.3400
31753SOL    HW199047   8.977   0.796   6.865  0.8496  1.5971 -0.7847
31753SOL    HW299048   9.023   0.878   6.983 -0.5066 -0.6066  1.3672
31754SOL     OW99049   1.284   7.699   5.440 -0.6194  0.2995 -0.0439
31754SOL    HW199050   1.355   7.728   5.382 -0.0860  2.1927  1.4383
31754SOL    HW299051   1.321   7.707   5.528 -1.4080 -2.4394  0.6244
31755SOL     OW99052   9.172  10.131   8.815  0.1743  0.8318 -0.2553
31755SOL    HW199053   9.097  10.119   8.874 -0.7711 -3.1603 -1.9347
31755SOL    HW299054   9.132  10.143   8.729  1.5132  1.3149 -0.8313
31756SOL     OW99055   9.988   1.514   2.949  0.6230 -0.0862 -0.1106
31756SOL    HW199056   9.965   1.598   2.910  2.4770  0.2284 -0.6251
31756SOL    HW299057   9.906   1.480   2.985 -0.3751  1.3897 -0.9325
31757SOL     OW99058   9.036   5.991   9.597 -0.4545 -0.1857  0.6230
31757SOL    HW199059   8.999   6.069   9.555 -1.9631 -0.8645  0.6200
31757SOL    HW299060   8.962   5.932   9.607  0.3637 -1.0505  1.9593
31758SOL     OW99061   2.621   5.196   4.213 -0.3003 -0.3294 -0.1527
31758SOL    HW199062   2.699   5.142   4.228 -1.5561 -1.9169  0.9307
31758SOL    HW299063   2.638   5.276   4.263  0.3773 -0.9245  0.5982
31759SOL     OW99064   0.242   2.172   9.444  0.1376 -0.0255  0.3280
31759SOL    HW199065   0.173   2.168   9.510  0.3386 -1.2629  0.4910
31759SOL    HW299066   0.296   2.247   9.470  0.1860 -0.4593  1.5568
31760SOL     OW99067   1.593   8.391   3.987 -0.2031 -0.1622  0.2709
31760SOL    HW199068   1.650   8.354   4.055  0.1513 -0.8356 -0.3878
31760SOL    HW299069   1.595   8.486   4.004  1.0172 -0.1789  0.3344
31761SOL     OW99070   5.639   3.448   1.476 -0.0965  0.3032  0.1280
31761SOL    HW199071   5.602   3.520   1.424  1.1768 -1.1619 -3.0351
31761SOL    HW299072   5.669   3.490   1.557 -2.1234  2.7483 -0.2623
31762SOL     OW99073   2.420   5.019   8.684  0.5599 -0.0362  0.4536
31762SOL    HW199074   2.477   5.095   8.678 -0.7816  0.9868  0.1395
31762SOL    HW299075   2.463   4.961   8.747  1.3478  1.2181  1.0991
31763SOL     OW99076   3.469   1.533   5.564 -0.8195 -0.1517 -0.3384
31763SOL    HW199077   3.526   1.605   5.539  1.4528 -1.6471  0.2354
31763SOL    HW299078   3.488   1.464   5.500 -2.1602 -0.6518 -0.2436
31764SOL     OW99079   0.911   1.266   2.948 -0.0702  0.4893  0.0747
31764SOL    HW199080   0.947   1.187   2.907 -0.9937  0.5164 -0.8162
31764SOL    HW299081   0.984   1.302   2.999  0.4170 -0.8345  0.3491
31765SOL     OW99082   8.440   1.666   6.052 -0.1692  0.3727 -0.2040
31765SOL    HW199083   8.470   1.735   6.112 -1.1957  0.4157  0.2849
31765SOL    HW299084   8.506   1.663   5.984  0.6505  0.8360  0.5463
31766SOL     OW99085   1.944   4.141   4.259 -0.2405  0.3142 -0.3647
31766SOL    HW199086   1.892   4.132   4.339 -0.6701 -0.0427 -0.6843
31766SOL    HW299087   1.927   4.062   4.209  1.4599 -0.3447  0.0023
31767SOL     OW99088   9.744   6.136   7.246  0.4048  0.4072  0.8133
31767SOL    HW199089   9.798   6.070   7.203 -0.7945  0.4152 -0.8461
31767SOL    HW299090   9.655   6.117   7.215 -0.1944  1.7967  1.6037
31768SOL     OW99091   7.611   7.031   3.967  0.3639  0.1972  0.2318
31768SOL    HW199092   7.610   6.948   4.015 -1.6571  0.2906  0.4549
31768SOL    HW299093   7.601   7.098   4.035 -0.9148  0.4216 -0.1458
31769SOL     OW99094   9.112   7.447   2.493  0.2659  0.1123  0.4801
31769SOL    HW199095   9.135   7.418   2.405  2.2724 -2.6236  1.7249
31769SOL    HW299096   9.144   7.537   2.498 -2.1346  1.2646 -2.2296
31770SOL     OW99097   9.032   9.026   2.031  0.0564 -0.0684 -0.2457
31770SOL    HW199098   9.026   9.008   2.124 -0.9521  2.2650  0.2267
31770SOL    HW299099   9.112   9.077   2.021 -0.7591  1.2511 -0.3103
31771SOL     OW99100   6.129   0.042   9.962  0.0512  0.0585  0.0272
31771SOL    HW199101   6.195  -0.002  10.016 -0.9886 -2.3997 -0.5527
31771SOL    HW299102   6.169   0.048   9.876  0.4558  0.9118  0.2696
31772SOL     OW99103   4.635   2.136  10.006 -1.3002 -0.4650 -0.2407
31772SOL    HW199104   4.675   2.120  10.091 -0.7541 -0.6845 -0.5316
31772SOL    HW299105   4.705   2.121   9.943 -1.7863 -0.6549 -0.7533
31773SOL     OW99106   4.873   5.521   4.297  0.0407  0.3257 -0.6212
31773SOL    HW199107   4.788   5.510   4.340  0.2271  1.2266  0.0249
31773SOL    HW299108   4.917   5.588   4.350  1.0292  0.0865 -1.1302
31774SOL     OW99109   6.275  10.199   1.465  0.0856 -0.1027  0.0924
31774SOL    HW199110   6.310  10.282   1.435  0.9265 -0.9196 -1.3213
31774SOL    HW299111   6.350  10.154   1.504  0.7876 -1.8467 -2.9137
31775SOL     OW99112   6.313   2.168   3.568 -0.0801  0.0109  0.5043
31775SOL    HW199113   6.249   2.159   3.639 -1.8122 -0.8586 -1.0587
31775SOL    HW299114   6.338   2.078   3.547  0.7627  0.2839  0.3095
31776SOL     OW99115   0.899   6.372   0.729 -0.7577 -0.9702  0.0347
31776SOL    HW199116   0.989   6.394   0.706 -0.9830  0.4300  0.4136
31776SOL    HW299117   0.895   6.381   0.824 -1.4834 -0.2439 -0.0550
31777SOL     OW99118   8.486   7.645  10.201  0.4410 -0.1698 -0.3592
31777SOL    HW199119   8.553   7.655  10.134  1.4272  0.0609  0.6258
31777SOL    HW299120   8.488   7.728  10.249 -1.9727  0.6466 -1.5417
31778SOL     OW99121   7.437   0.981   0.263 -0.2492  0.2590  0.3512
31778SOL    HW199122   7.490   0.907   0.291 -0.7531 -1.0912 -1.9623
31778SOL    HW299123   7.397   1.015   0.343  1.0424 -1.1263  1.6244
31779SOL     OW99124   0.067   5.757   3.497  0.1839 -0.1418  0.0199
31779SOL    HW199125   0.149   5.713   3.520  1.0241 -0.3367 -2.9865
31779SOL    HW299126  -0.001   5.691   3.514  0.8651 -0.7303  0.5217
31780SOL     OW99127   6.011   3.531   9.824 -0.0889  0.4636  0.4293
31780SOL    HW199128   6.019   3.583   9.744  0.6493  2.7855  1.8958
31780SOL    HW299129   5.949   3.580   9.878 -0.1811 -0.7631  1.4785
31781SOL     OW99130   3.505   4.575   5.057  0.1040  0.4712 -0.1556
31781SOL    HW199131   3.535   4.585   5.147  1.1754  2.0261 -0.6444
31781SOL    HW299132   3.424   4.625   5.052 -0.8247 -0.9173  0.3015
31782SOL     OW99133   3.779   0.656   3.978 -0.0883 -0.0283  0.1018
31782SOL    HW199134   3.750   0.666   4.069  0.4484  0.0768  0.2642
31782SOL    HW299135   3.755   0.739   3.937  0.2092  0.1614  0.3022
31783SOL     OW99136   1.174   4.092   3.798  0.2537 -0.2141  0.0757
31783SOL    HW199137   1.085   4.128   3.793  0.3805 -0.0281 -1.0315
31783SOL    HW299138   1.165   4.002   3.764  0.3909 -0.3756  0.4681
31784SOL     OW99139   0.549   1.221   1.408 -0.2211  0.5002  0.2700
31784SOL    HW199140   0.491   1.291   1.376 -0.8196 -0.3419 -0.5414
31784SOL    HW299141   0.529   1.215   1.501 -0.3622  1.2284  0.2933
31785SOL     OW99142   2.356   0.666   1.414 -0.3861  0.2552  0.9896
31785SOL    HW199143   2.410   0.605   1.463 -1.5991 -0.4277  1.5295
31785SOL    HW299144   2.417   0.732   1.381  0.4202  1.3445  4.2431
31786SOL     OW99145   6.177   1.456   3.885  0.0362 -0.0284  0.5108
31786SOL    HW199146   6.224   1.523   3.934  0.8528 -1.0270  1.1104
31786SOL    HW299147   6.180   1.378   3.940 -0.9088 -0.5685 -0.1689
31787SOL     OW99148   8.517   4.398   2.192 -0.1611  0.4014 -0.1035
31787SOL    HW199149   8.532   4.329   2.127 -1.3575 -1.0708  1.0923
31787SOL    HW299150   8.586   4.385   2.257 -1.6007 -1.1474  1.2263
31788SOL     OW99151   6.209   4.741   7.730  0.1537  0.2906 -0.6081
31788SOL    HW199152   6.174   4.678   7.792 -0.4791 -1.1439 -2.3511
31788SOL    HW299153   6.134   4.765   7.675  0.9795  0.4020 -1.7314
31789SOL     OW99154   7.307   3.988   4.921 -0.2641 -0.6219  0.3543
31789SOL    HW199155   7.317   4.043   4.999 -0.5987 -0.5238  0.3282
31789SOL    HW299156   7.222   4.013   4.884  0.4375  0.2452 -0.7566
31790SOL     OW99157   9.456   5.023   7.996  0.0076 -0.3081  0.5113
31790SOL    HW199158   9.370   4.982   7.985  0.7902 -1.9777  0.3374
31790SOL    HW299159   9.485   5.041   7.907  1.0313 -2.3860  0.3837
31791SOL     OW99160   0.575   6.007   2.011  0.0894  0.3053  0.1597
31791SOL    HW199161   0.492   6.021   1.965  0.5270 -0.7931 -1.0068
31791SOL    HW299162   0.637   6.066   1.968  0.1863  0.2923  0.2805
31792SOL     OW99163   7.710   3.969   2.321 -0.2679  0.1852  0.1597
31792SOL    HW199164   7.670   3.999   2.403 -0.3175 -0.7061  0.4720
31792SOL    HW299165   7.662   3.889   2.299 -1.8840  1.6207 -2.0131
31793SOL     OW99166   0.773   2.273   5.982  0.6061 -0.7240 -0.4177
31793SOL    HW199167   0.828   2.226   6.044  1.0884 -1.5838 -1.4688
31793SOL    HW299168   0.833   2.328   5.933  0.1472  0.4215  0.2612
31794SOL     OW99169   1.268   3.626   9.492  0.7607  0.0526 -0.4593
31794SOL    HW199170   1.322   3.665   9.423  2.0475 -0.2831  0.3157
31794SOL    HW299171   1.326   3.564   9.535 -1.1835 -2.7284 -1.5697
31795SOL     OW99172   4.971   0.610   8.903  0.5270 -0.4572 -0.3878
31795SOL    HW199173   5.018   0.693   8.906 -1.6227  0.8166  0.9856
31795SOL    HW299174   5.016   0.554   8.966 -0.1458  0.9954  1.4739
31796SOL     OW99175   3.863   9.417   3.842 -0.0294  0.0188 -0.6221
31796SOL    HW199176   3.850   9.441   3.934 -0.8398  3.3260 -1.4800
31796SOL    HW299177   3.958   9.417   3.830  0.1475 -1.6932  0.4406
31797SOL     OW99178   9.750   5.250  10.028  0.3609  0.6226 -0.0534
31797SOL    HW199179   9.658   5.240  10.005  0.7046 -0.5211 -0.9804
31797SOL    HW299180   9.758   5.342  10.055 -0.6946  1.2167 -1.6363
31798SOL     OW99181   2.533   4.284   5.548 -0.2551 -0.3664  0.3382
31798SOL    HW199182   2.580   4.332   5.479 -1.9991  1.9275  0.6062
31798SOL    HW299183   2.521   4.196   5.513  1.5120 -0.1482 -0.9780
31799SOL     OW99184   0.458   1.357   6.207 -0.1950 -0.3640  0.1982
31799SOL    HW199185   0.507   1.324   6.132  1.9978  1.4012  0.7334
31799SOL    HW299186   0.432   1.446   6.182  1.2673  0.5642  1.7037
31800SOL     OW99187   7.675   2.429   3.097 -0.0568  0.2085 -0.0540
31800SOL    HW199188   7.580   2.434   3.094 -0.0711  0.0217  0.0548
31800SOL    HW299189   7.704   2.518   3.113 -0.2030  0.3102 -0.3467
31801SOL     OW99190   9.747   3.918   5.797  0.2138  0.1368  0.0716
31801SOL    HW199191   9.731   3.912   5.892  2.0721 -1.0250  0.3617
31801SOL    HW299192   9.742   3.828   5.766  0.7559  0.3758 -0.7385
31802SOL     OW99193   2.562   0.681   5.697  0.3434 -0.1401 -0.3824
31802SOL    HW199194   2.505   0.710   5.626  1.2203 -0.9721 -1.4683
31802SOL    HW299195   2.525   0.722   5.776  0.2398  2.1005 -1.4952
31803SOL     OW99196   8.165   6.965   1.121  0.4614 -0.1624  0.0636
31803SOL    HW199197   8.138   7.032   1.057  0.4372 -0.8370 -0.6400
31803SOL    HW299198   8.255   6.989   1.144  0.3649  0.2625  0.0217
31804SOL     OW99199   1.398  10.202   7.688  0.0242  0.2993 -0.4943
31804SOL    HW199200   1.471  10.240   7.639  0.0734  0.4397 -0.3130
31804SOL    HW299201   1.431  10.117   7.718 -0.0609  0.1432 -0.8376
31805SOL     OW99202   1.415   6.400   5.940 -0.5223 -0.3582 -0.4688
31805SOL    HW199203   1.420   6.374   6.032 -0.5935 -2.9268 -1.1061
31805SOL    HW299204   1.425   6.495   5.941 -0.3502 -0.3329  2.1618
31806SOL     OW99205   3.439   0.410   1.480 -0.0656  0.5103 -0.3537
31806SOL    HW199206   3.419   0.438   1.391  0.8489  0.6098 -0.5455
31806SOL    HW299207   3.449   0.315   1.473 -1.1082  0.3737 -0.1217
31807SOL     OW99208   8.371   7.856   0.307 -0.1073  0.5038 -0.3150
31807SOL    HW199209   8.436   7.868   0.376  2.1817  3.3223 -2.6861
31807SOL    HW299210   8.407   7.788   0.251  0.1987  1.1595 -0.9349
31808SOL     OW99211   4.374   3.516   2.259 -0.3270  0.0580  0.3139
31808SOL    HW199212   4.310   3.539   2.327 -0.4405 -0.2431  0.3111
31808SOL    HW299213   4.447   3.478   2.307  0.0179  0.7502  0.3508
31809SOL     OW99214   1.248   1.737   0.738 -0.3994  0.1512 -0.0311
31809SOL    HW199215   1.193   1.811   0.763 -1.2788 -1.1559  2.1475
31809SOL    HW299216   1.212   1.708   0.654 -2.1469  0.1968  0.6752
31810SOL     OW99217   6.308   5.907   0.997  0.6930 -0.0117  0.4129
31810SOL    HW199218   6.354   5.884   0.917  2.5151  2.5108  0.6260
31810SOL    HW299219   6.215   5.908   0.972  1.2077  0.6177 -1.6484
31811SOL     OW99220   9.490   8.625   1.165  0.1178 -0.2557 -0.2834
31811SOL    HW199221   9.409   8.677   1.169 -0.2235 -0.8506  0.6501
31811SOL    HW299222   9.469   8.543   1.209  0.7604 -1.0698 -1.4333
31812SOL     OW99223   8.246   9.808   2.396  0.4743  0.0409  0.3142
31812SOL    HW199224   8.212   9.878   2.452 -1.3839 -0.5884  0.0116
31812SOL    HW299225   8.169   9.767   2.358  1.4903 -2.3811  0.6941
31813SOL     OW99226   3.701   3.976   3.031  0.3738 -0.2601  0.6487
31813SOL    HW199227   3.661   4.054   2.991  3.7175  1.3681  0.1257
31813SOL    HW299228   3.652   3.903   2.993 -1.7234  1.4741 -0.2707
31814SOL     OW99229   4.680   5.626   3.469 -0.5899 -0.4287  0.2847
31814SOL    HW199230   4.600   5.577   3.489 -0.8755  0.3163  1.0393
31814SOL    HW299231   4.728   5.570   3.409 -0.3582 -2.1945  2.0086
31815SOL     OW99232  10.341   6.538   1.368  0.5971  0.1930  0.4048
31815SOL    HW199233  10.290   6.461   1.392 -0.8434  0.0662 -2.6223
31815SOL    HW299234  10.389   6.511   1.290 -0.8047  2.5962 -1.4166
31816SOL     OW99235   9.009   0.124   5.832  0.0476  0.3816 -0.3103
31816SOL    HW199236   9.037   0.039   5.866 -0.1653  0.1924 -0.6093
31816SOL    HW299237   9.065   0.140   5.757  1.1129  1.2028  0.6308
31817SOL     OW99238   8.242   2.032   4.854  0.6440  0.0173 -0.4278
31817SOL    HW199239   8.161   2.052   4.901  0.7277 -2.7925  1.1143
31817SOL    HW299240   8.295   2.111   4.862 -0.8140  0.9021  1.0312
31818SOL     OW99241   8.722   3.912   7.112 -0.5293  0.1175  0.5116
31818SOL    HW199242   8.750   4.003   7.120  1.2086 -0.3204  0.0624
31818SOL    HW299243   8.690   3.888   7.199  0.4006  0.7380  1.0416
31819SOL     OW99244   1.369   5.712   3.812 -0.4156  0.0973  0.7579
31819SOL    HW199245   1.405   5.639   3.763 -0.2283 -0.7583  2.1124
31819SOL    HW299246   1.278   5.686   3.830 -0.6077  0.5888  0.5223
31820SOL     OW99247   8.649   6.022   2.757  0.0893  0.1698  0.1757
31820SOL    HW199248   8.606   6.063   2.682  0.7914  0.2402 -0.1897
31820SOL    HW299249   8.619   5.931   2.754 -1.5371  0.6268  1.0370
31821SOL     OW99250   1.136   7.735   4.346 -0.0309 -0.7372  0.1036
31821SOL    HW199251   1.110   7.736   4.254 -0.6103 -0.5875  0.2653
31821SOL    HW299252   1.147   7.828   4.369 -2.6813 -0.5630  0.9454
31822SOL     OW99253   6.837   8.033   1.356  0.4632 -0.3077 -0.3341
31822SOL    HW199254   6.868   8.119   1.327  1.9858 -0.6635  0.1402
31822SOL    HW299255   6.757   8.018   1.306 -1.4420  2.5852  1.4868
31823SOL     OW99256   6.115   7.393   7.888  0.5064 -0.2587  0.2556
31823SOL    HW199257   6.085   7.314   7.842  1.4563 -0.5399  0.0896
31823SOL    HW299258   6.165   7.360   7.962  0.0211  0.2004  0.7946
31824SOL     OW99259   1.725   3.557   8.283 -0.2031 -0.4244 -0.2789
31824SOL    HW199260   1.715   3.631   8.224 -2.4376 -1.0205 -0.7700
31824SOL    HW299261   1.682   3.584   8.363  4.4829  1.1374  2.0582
31825SOL     OW99262   0.256   3.219   9.390 -0.3351  0.0669  0.6264
31825SOL    HW199263   0.208   3.140   9.368  2.4212 -1.2633 -1.2456
31825SOL    HW299264   0.341   3.187   9.422  0.7636  2.2450  0.0843
31826SOL     OW99265   6.057   6.943   9.076  0.3002  0.2530  0.1259
31826SOL    HW199266   6.150   6.925   9.067  0.3521 -0.0510  1.1708
31826SOL    HW299267   6.014   6.858   9.066  0.3290 -0.0284  2.0529
31827SOL     OW99268   1.022   5.448   2.738  0.0854 -0.0021  0.6406
31827SOL    HW199269   0.994   5.362   2.769 -1.1916  0.1173 -0.1103
31827SOL    HW299270   0.940   5.494   2.718  0.7755  1.0634  0.1714
31828SOL     OW99271   6.965   2.138   1.974 -0.0268  0.0502  0.0266
31828SOL    HW199272   7.029   2.209   1.977 -0.9518  0.9249 -0.2977
31828SOL    HW299273   6.957   2.118   1.881 -2.5491  2.1825 -0.3375
31829SOL     OW99274   8.477   6.774   7.528 -0.3311  0.6790  0.0994
31829SOL    HW199275   8.560   6.728   7.513  0.4492  1.6714  1.2304
31829SOL    HW299276   8.471   6.836   7.456  0.3930  1.2540  0.5241
31830SOL     OW99277   5.890   5.964   5.297  0.4592  0.1930 -0.2033
31830SOL    HW199278   5.909   6.032   5.232  2.1612  0.4117  0.4534
31830SOL    HW299279   5.844   6.010   5.367  2.3525  0.9304  0.6308
31831SOL     OW99280   3.161   5.559   5.331 -0.4815  0.6339  0.4840
31831SOL    HW199281   3.150   5.508   5.412  2.3743 -0.1550  0.4902
31831SOL    HW299282   3.248   5.598   5.340 -0.0244  0.4191 -2.2606
31832SOL     OW99283   2.563   2.645   4.485  0.1171  0.1814 -0.2566
31832SOL    HW199284   2.543   2.573   4.545 -1.3962 -0.5473 -1.5756
31832SOL    HW299285   2.652   2.627   4.455  0.7098  0.2805  1.3224
31833SOL     OW99286   3.507   1.659   2.478 -0.2689 -0.5527 -0.7288
31833SOL    HW199287   3.469   1.668   2.565  0.2025 -0.2296 -0.5579
31833SOL    HW299288   3.548   1.573   2.479 -0.3895 -0.6107 -0.6835
31834SOL     OW99289   6.765   2.603   4.607  0.3907  0.4664 -0.5549
31834SOL    HW199290   6.729   2.515   4.602  1.3245  0.0498 -0.2960
31834SOL    HW299291   6.740   2.635   4.693  1.2915 -0.1338 -0.0460
31835SOL     OW99292   7.567   9.964   6.903 -0.0842  0.0747  0.1501
31835SOL    HW199293   7.484   9.996   6.868 -0.6779  0.1400  1.5841
31835SOL    HW299294   7.631  10.031   6.879 -0.5205  0.2484 -0.5498
31836SOL     OW99295   0.556   3.413   2.444 -0.3083  0.4129  0.5612
31836SOL    HW199296   0.590   3.375   2.526 -0.1725  0.4546  0.5243
31836SOL    HW299297   0.574   3.347   2.378  2.1322  1.5107  0.0390
31837SOL     OW99298   5.056  10.221   0.433  0.3960  0.0195 -0.1488
31837SOL    HW199299   5.052  10.159   0.360  1.2368 -0.1689 -0.0400
31837SOL    HW299300   5.012  10.176   0.505  1.5936 -0.7501  0.1297
31838SOL     OW99301   8.231   1.134   8.378 -0.0829 -0.3340 -0.4166
31838SOL    HW199302   8.226   1.223   8.343 -3.3354  0.7375  2.2511
31838SOL    HW299303   8.316   1.130   8.421 -0.5896  2.3002  1.0654
31839SOL     OW99304   8.265   8.009   8.711  0.2863  0.2696 -0.1035
31839SOL    HW199305   8.202   8.058   8.764  0.9076  1.1321 -0.1438
31839SOL    HW299306   8.350   8.031   8.749  0.6452 -0.0488 -0.7106
31840SOL     OW99307   4.346   6.104   9.842 -0.4244  0.6242 -0.3406
31840SOL    HW199308   4.333   6.022   9.793 -1.4973  0.9760 -0.6621
31840SOL    HW299309   4.268   6.111   9.897  0.6506  0.3638  1.2608
31841SOL     OW99310   8.614   2.592  10.079 -0.2010 -0.2247  0.0652
31841SOL    HW199311   8.641   2.525  10.142  0.3043  0.6496  0.8051
31841SOL    HW299312   8.609   2.673  10.131  2.2931  0.9735 -1.3748
31842SOL     OW99313   8.102   8.085   2.443 -0.2007 -0.3911  0.0106
31842SOL    HW199314   8.135   8.175   2.445  0.5183 -0.4842 -2.8722
31842SOL    HW299315   8.008   8.093   2.460 -0.5917  1.2664 -2.4193
31843SOL     OW99316   3.491   5.441   7.837  0.3008  0.3251 -0.0462
31843SOL    HW199317   3.417   5.397   7.878  0.8994 -1.1268 -0.4434
31843SOL    HW299318   3.477   5.429   7.743 -0.0977  1.9922 -0.2254
31844SOL     OW99319   9.297   9.207   9.727 -0.6195  0.0557  0.1305
31844SOL    HW199320   9.249   9.259   9.662  1.8856  0.8627 -1.2006
31844SOL    HW299321   9.332   9.133   9.678  0.9840  0.4622  0.6028
31845SOL     OW99322   7.718   1.248   1.482  0.3590 -0.4703 -0.4355
31845SOL    HW199323   7.743   1.199   1.404 -1.5478  0.4256 -1.6926
31845SOL    HW299324   7.794   1.304   1.501  0.7401 -0.4656 -1.8501
31846SOL     OW99325   4.471   2.782   7.716 -0.1991 -0.6532 -0.0865
31846SOL    HW199326   4.426   2.729   7.781 -0.5309 -0.5550 -0.2378
31846SOL    HW299327   4.499   2.860   7.764  0.8344 -1.2364  0.2879
31847SOL     OW99328   5.505   2.782   1.679 -0.0487  0.2397  0.0796
31847SOL    HW199329   5.426   2.788   1.733 -0.8589 -0.1769 -1.0376
31847SOL    HW299330   5.555   2.710   1.719 -0.9158 -0.4603 -0.0586
31848SOL     OW99331   9.909   0.045   9.788 -0.1239  0.0598 -0.1761
31848SOL    HW199332   9.963   0.084   9.719 -1.2711 -0.5830 -1.5053
31848SOL    HW299333   9.951  -0.038   9.808 -1.3105 -1.1370 -2.2619
31849SOL     OW99334  10.073   7.865   3.084 -0.4031  0.3328 -0.2114
31849SOL    HW199335  10.144   7.816   3.125 -0.6622 -0.5510 -0.7943
31849SOL    HW299336   9.999   7.805   3.084 -0.4012  0.2610 -2.0055
31850SOL     OW99337   0.377   5.935   1.143 -0.8233  0.3570  0.4680
31850SOL    HW199338   0.454   5.988   1.121  0.5458 -1.6845 -0.0311
31850SOL    HW299339   0.394   5.904   1.232  0.9586 -3.0980 -0.8539
31851SOL     OW99340   0.471   2.214   4.211 -0.4526 -0.4758 -0.0975
31851SOL    HW199341   0.437   2.208   4.300  0.6268 -1.5744  0.2725
31851SOL    HW299342   0.395   2.200   4.155 -0.7621 -2.1914  0.6885
31852SOL     OW99343   0.289   3.846   4.482  0.0249 -0.0437 -0.6231
31852SOL    HW199344   0.365   3.902   4.463  0.5598 -0.1881  0.9023
31852SOL    HW299345   0.304   3.767   4.430  1.6277 -0.6025  0.5832
31853SOL     OW99346   3.011   5.447   1.890  0.6182  0.1176 -0.3600
31853SOL    HW199347   3.000   5.404   1.975  0.3492  1.2094  0.1689
31853SOL    HW299348   3.104   5.471   1.888  1.0788 -1.5909 -1.2104
31854SOL     OW99349   1.018   1.921   8.828  0.2461 -0.2950 -0.3367
31854SOL    HW199350   1.077   1.848   8.815  0.9741  0.3802 -0.9310
31854SOL    HW299351   1.067   1.984   8.881  1.5775  1.8855 -3.7640
31855SOL     OW99352   7.722   9.034   1.012 -0.1094  0.2277 -0.2632
31855SOL    HW199353   7.711   8.948   0.972 -0.3135  0.1016  0.0545
31855SOL    HW299354   7.790   9.076   0.961 -0.6774  0.2423 -1.0247
31856SOL     OW99355   4.012   5.122  10.278 -0.1130  0.2201  1.2184
31856SOL    HW199356   4.070   5.165  10.216  0.4576  0.1004  1.6589
31856SOL    HW299357   3.932   5.105  10.228  0.1129  0.6671  0.6946
31857SOL     OW99358   8.767   2.363   2.310 -0.4587  0.0214 -0.2429
31857SOL    HW199359   8.819   2.295   2.269  0.0009 -0.3322  0.8722
31857SOL    HW299360   8.714   2.400   2.239  1.0069  0.1241 -1.3225
31858SOL     OW99361   7.547   0.415  10.330 -0.3184 -0.3745 -0.3015
31858SOL    HW199362   7.507   0.328  10.333  0.7024 -0.8853 -1.0549
31858SOL    HW299363   7.603   0.413  10.253  0.6497  0.5345  0.3492
31859SOL     OW99364   7.236   1.374   7.026 -0.6188 -0.6545  0.3544
31859SOL    HW199365   7.288   1.309   6.980  0.7335 -0.0994  1.0539
31859SOL    HW299366   7.151   1.372   6.982 -0.0508 -1.6535 -0.7467
31860SOL     OW99367   6.758   1.228   4.941 -0.1497 -0.1636  0.1854
31860SOL    HW199368   6.665   1.214   4.925 -0.1029  0.0262 -0.2607
31860SOL    HW299369   6.784   1.155   4.997 -0.5938 -0.1506  0.4101
31861SOL     OW99370   6.242   3.438   1.294 -0.5780 -0.5794 -0.0874
31861SOL    HW199371   6.217   3.352   1.327  1.9100 -0.8442  1.3686
31861SOL    HW299372   6.273   3.422   1.205  1.1495 -1.4799  0.6425
31862SOL     OW99373   5.569   0.650   2.499 -0.7727 -0.1045  0.3294
31862SOL    HW199374   5.634   0.584   2.476 -1.1070 -0.3650  0.1115
31862SOL    HW299375   5.546   0.631   2.590  1.4934  1.7199  1.3921
31863SOL     OW99376   2.780   7.522   4.033  0.2163  0.5591  0.0529
31863SOL    HW199377   2.782   7.519   4.129 -1.0982  0.0075  0.0796
31863SOL    HW299378   2.836   7.596   4.010  1.9976 -0.3680  1.1644
31864SOL     OW99379   5.951   6.217   6.191  0.3026  0.2477 -0.1774
31864SOL    HW199380   5.881   6.222   6.126 -0.0568  0.1153  0.1941
31864SOL    HW299381   6.004   6.142   6.163  1.5137  1.5914 -1.6344
31865SOL     OW99382   6.399   0.626   3.641  0.1975  0.5092  0.0304
31865SOL    HW199383   6.380   0.715   3.612  1.4565  0.9256  0.3799
31865SOL    HW299384   6.320   0.577   3.623 -0.8579  1.9046  0.6834
31866SOL     OW99385   1.299   6.894   2.510 -0.1196 -0.0109  0.0596
31866SOL    HW199386   1.233   6.918   2.445  0.0070 -2.2295 -1.0225
31866SOL    HW299387   1.327   6.977   2.548 -1.4714  1.2346 -1.4805
31867SOL     OW99388   4.190   0.440   1.196  0.2288  0.2537  0.2697
31867SOL    HW199389   4.224   0.352   1.212  0.3781  0.0323 -1.1372
31867SOL    HW299390   4.244   0.497   1.251  1.6649 -0.2972 -0.5084
31868SOL     OW99391   2.786   2.077   9.202  0.7807  0.2636  0.2411
31868SOL    HW199392   2.744   2.145   9.150 -0.4898 -0.5621  0.1486
31868SOL    HW299393   2.819   2.122   9.280  0.7540  1.1249 -0.2379
31869SOL     OW99394   9.824   1.581   8.853  0.6970  0.3763  0.4859
31869SOL    HW199395   9.766   1.575   8.929 -0.7672 -1.1093 -0.6595
31869SOL    HW299396   9.847   1.490   8.835  1.3148  0.7478 -0.6325
31870SOL     OW99397   8.761   9.439   7.231  0.9050  0.4256 -0.0810
31870SOL    HW199398   8.682   9.477   7.192  0.0956 -0.1758  0.8932
31870SOL    HW299399   8.822   9.427   7.159  0.7840  2.5639 -0.5823
31871SOL     OW99400   5.079   4.794   7.467 -0.3483 -0.3716 -0.0573
31871SOL    HW199401   5.068   4.699   7.475 -4.7012  0.1069  2.5265
31871SOL    HW299402   5.126   4.820   7.547 -0.1477 -0.1961 -0.2289
31872SOL     OW99403   8.461   0.231   6.649  0.0374 -0.2009  0.0860
31872SOL    HW199404   8.495   0.254   6.736 -0.5341 -0.6429  0.4308
31872SOL    HW299405   8.435   0.315   6.611 -1.5842 -0.1858  1.1445
31873SOL     OW99406   7.775   4.137   2.081  0.0540 -0.1761  0.0291
31873SOL    HW199407   7.726   4.188   2.145 -0.1183 -0.4579  0.1236
31873SOL    HW299408   7.761   4.046   2.107 -2.2488 -0.4916 -1.9384
31874SOL     OW99409   1.676   6.791   0.856  0.8774 -0.0093 -0.5843
31874SOL    HW199410   1.631   6.862   0.810  1.7987 -0.0249 -1.5430
31874SOL    HW299411   1.766   6.823   0.868  2.5537 -2.4603 -4.7120
31875SOL     OW99412   1.536   2.088   1.665 -0.1282 -0.1142 -0.1789
31875SOL    HW199413   1.594   2.011   1.668  3.0036  2.0569  3.2882
31875SOL    HW299414   1.563   2.134   1.586  0.5844 -0.7475 -0.3208
31876SOL     OW99415   5.196   9.167   1.813 -0.3799  0.1232  0.0984
31876SOL    HW199416   5.266   9.126   1.762 -1.5023 -0.3923 -1.0927
31876SOL    HW299417   5.239   9.197   1.893  1.3578  0.5486 -0.9387
31877SOL     OW99418   1.576   8.696   3.241  0.0152  0.6936 -0.0285
31877SOL    HW199419   1.624   8.616   3.262 -1.9708 -0.2158  1.4251
31877SOL    HW299420   1.641   8.766   3.249  0.9290 -0.3267  3.0690
31878SOL     OW99421   7.260   4.405   0.925  0.0760 -0.0458  0.3412
31878SOL    HW199422   7.206   4.335   0.891 -0.0835 -0.3708  1.2305
31878SOL    HW299423   7.322   4.425   0.855  0.7003 -1.6871  0.3924
31879SOL     OW99424   0.958   0.399   3.858 -0.5460  0.7101 -0.1694
31879SOL    HW199425   0.877   0.435   3.822 -1.5057 -1.2701 -0.0820
31879SOL    HW299426   0.934   0.313   3.892  1.1707  0.8979  1.7086
31880SOL     OW99427   4.337   2.467   9.740 -0.1339  0.1918  0.5757
31880SOL    HW199428   4.411   2.523   9.760  1.3869 -1.1794 -0.8338
31880SOL    HW299429   4.355   2.385   9.786 -1.0449  0.0046  0.6306
31881SOL     OW99430   7.214   3.383   9.406 -0.0415 -0.1869 -0.1541
31881SOL    HW199431   7.274   3.318   9.441  0.4002  0.4752  0.3299
31881SOL    HW299432   7.179   3.428   9.483 -1.7540 -1.0531 -0.3601
31882SOL     OW99433   1.284   9.560   8.156 -0.1512 -0.4620 -0.3695
31882SOL    HW199434   1.219   9.605   8.210 -0.5074 -0.2421 -0.9711
31882SOL    HW299435   1.264   9.588   8.066  0.4576 -0.7874 -0.6116
31883SOL     OW99436   4.259   3.575   3.472 -0.0221  0.2666  0.3334
31883SOL    HW199437   4.205   3.521   3.414  0.2249  0.0181  0.3320
31883SOL    HW299438   4.212   3.658   3.479  0.3315  0.5907 -0.8684
31884SOL     OW99439   1.420  10.333   3.935 -0.6293 -0.0116 -0.4593
31884SOL    HW199440   1.359  10.303   3.867 -2.1850  1.8151  0.0585
31884SOL    HW299441   1.448  10.420   3.906  0.0457  0.0687  0.3929
31885SOL     OW99442   5.917   8.423   2.518  0.5222 -0.3682  0.4243
31885SOL    HW199443   5.898   8.432   2.611 -0.6549 -0.4502  0.2168
31885SOL    HW299444   5.847   8.366   2.485  0.2435  0.6038 -0.7271
31886SOL     OW99445   0.152   9.263   1.074  0.0081  0.4862  0.0870
31886SOL    HW199446   0.172   9.208   1.151 -0.4774  0.4565  0.1925
31886SOL    HW299447   0.058   9.280   1.080 -0.6452 -1.7286 -1.9027
31887SOL     OW99448   1.436   7.696  10.138 -0.0862  0.2931 -0.3091
31887SOL    HW199449   1.360   7.655  10.096  0.8833 -0.8793 -0.9701
31887SOL    HW299450   1.424   7.678  10.231 -0.2726 -0.4702 -0.4784
31888SOL     OW99451   5.959   2.530   6.727  0.6059  0.0569 -0.1404
31888SOL    HW199452   5.905   2.544   6.649  1.1931 -2.8937 -1.2081
31888SOL    HW299453   5.957   2.435   6.741  2.8901  0.1950  1.7271
31889SOL     OW99454   7.604   7.944   0.591  0.5439 -0.1720  0.3329
31889SOL    HW199455   7.563   7.989   0.517  0.6983 -3.0268 -1.6501
31889SOL    HW299456   7.692   7.923   0.560  0.0207 -3.0097  0.5069
31890SOL     OW99457   1.291   2.473   5.239  0.2672  0.0742  0.3206
31890SOL    HW199458   1.265   2.551   5.288  0.8949 -0.5385  1.6642
31890SOL    HW299459   1.226   2.407   5.263  0.8540 -0.3681  0.7037
31891SOL     OW99460   9.941   4.976   4.185  0.4433  0.6743  0.8913
31891SOL    HW199461   9.869   4.914   4.199  0.5605  0.8321  2.3263
31891SOL    HW299462   9.978   4.991   4.272  0.5468  2.6087  0.5757
31892SOL     OW99463   0.783   2.023   3.479 -0.0429  0.0395 -0.0614
31892SOL    HW199464   0.746   1.936   3.498 -0.5780  0.2642 -0.0710
31892SOL    HW299465   0.868   2.022   3.523 -0.3234 -0.2598  0.4889
31893SOL     OW99466   6.542   0.770   4.937 -0.3510 -0.4654 -0.3480
31893SOL    HW199467   6.621   0.798   4.984 -1.0295  0.0771  0.4968
31893SOL    HW299468   6.569   0.691   4.890  1.2496  0.8213 -1.7265
31894SOL     OW99469   3.426   1.655   8.402 -0.1141 -0.1058  0.0896
31894SOL    HW199470   3.469   1.676   8.319  0.1325 -1.5908 -0.1941
31894SOL    HW299471   3.470   1.710   8.467  0.5116  0.2013 -0.5803
31895SOL     OW99472   7.310   8.931   3.752 -0.2668 -0.3253  0.0001
31895SOL    HW199473   7.219   8.938   3.723 -0.0579  0.5691 -0.4906
31895SOL    HW299474   7.361   8.963   3.677  0.4259 -0.4228  0.4225
31896SOL     OW99475   0.546   8.293   5.674 -0.4290  0.3545  0.0257
31896SOL    HW199476   0.509   8.372   5.633 -1.8793 -0.5775 -0.5518
31896SOL    HW299477   0.522   8.300   5.766 -0.2547  0.7379  0.0466
31897SOL     OW99478   9.788   2.869   2.213 -0.0168  0.0654 -0.0092
31897SOL    HW199479   9.838   2.841   2.290  0.5677 -1.9190 -1.0388
31897SOL    HW299480   9.854   2.893   2.149 -0.4824  0.9071 -0.1815
31898SOL     OW99481   1.699   5.170   8.555 -0.2384  0.3225  0.0726
31898SOL    HW199482   1.672   5.235   8.619  1.7518  0.2348  1.0903
31898SOL    HW299483   1.685   5.085   8.598 -1.7442  0.0924 -0.8089
31899SOL     OW99484   6.461   3.602   9.590  0.0817 -0.1411 -0.4154
31899SOL    HW199485   6.510   3.647   9.521  0.6922 -0.5845 -0.2729
31899SOL    HW299486   6.425   3.525   9.547 -1.6836  0.8784 -0.8844
31900SOL     OW99487   5.968   5.251   9.076 -0.0847  0.5749  0.2835
31900SOL    HW199488   5.894   5.305   9.103  1.6317  1.8081  3.0199
31900SOL    HW299489   6.041   5.313   9.069  1.1989 -0.9053  0.0751
31901SOL     OW99490   1.538   0.164   2.475  0.1741 -0.5815  0.8129
31901SOL    HW199491   1.492   0.093   2.519 -1.9083  1.2105  1.6718
31901SOL    HW299492   1.526   0.240   2.531 -1.0841  1.3958 -1.8801
31902SOL     OW99493   2.576   3.729   0.248  0.0149  0.2311  0.5230
31902SOL    HW199494   2.605   3.807   0.294  1.6335 -0.6927  1.1423
31902SOL    HW299495   2.481   3.738   0.243  0.0269  1.5028  1.9238
31903SOL     OW99496   1.071   0.578   0.732  0.0871 -0.2907  0.1502
31903SOL    HW199497   1.135   0.604   0.798 -0.3830 -1.0669  0.9378
31903SOL    HW299498   1.004   0.646   0.736  0.7810  0.4490 -0.5786
31904SOL     OW99499   0.630   2.324   5.558 -0.5155 -0.2374 -0.2342
31904SOL    HW199500   0.617   2.358   5.646  0.5072  2.7700 -1.1181
31904SOL    HW299501   0.541   2.312   5.524 -0.9137 -1.2158  1.0743
31905SOL     OW99502  10.360   7.624   9.703 -0.0740 -0.4291  0.1491
31905SOL    HW199503  10.422   7.552   9.692  1.0491  0.2246  1.7037
31905SOL    HW299504  10.415   7.702   9.709 -0.8862  0.0581  2.6738
31906SOL     OW99505   8.517   4.796   4.043 -0.4696  0.3050  0.4035
31906SOL    HW199506   8.425   4.774   4.057 -0.7863  0.8293 -0.8018
31906SOL    HW299507   8.544   4.741   3.969  0.6826 -1.0966  1.7885
31907SOL     OW99508   0.563   7.310   8.224 -0.3600  0.1827  0.2675
31907SOL    HW199509   0.596   7.356   8.147  3.2914 -0.0697  1.4844
31907SOL    HW299510   0.477   7.350   8.241  0.0924  2.4121 -2.0686
31908SOL     OW99511   8.435   2.557   5.012 -0.0346 -0.0407  0.0445
31908SOL    HW199512   8.349   2.595   5.027  0.5004  0.8674  0.8813
31908SOL    HW299513   8.422   2.497   4.938 -1.8174 -1.4289  1.3963
31909SOL     OW99514   7.832   8.107   5.781  0.1299 -0.0302  0.2516
31909SOL    HW199515   7.869   8.084   5.866 -1.8195 -1.1800  0.8485
31909SOL    HW299516   7.738   8.094   5.791 -0.2997  1.0894 -1.7066
31910SOL     OW99517   1.018   5.577   0.368 -0.4111  0.6795  0.0108
31910SOL    HW199518   0.929   5.603   0.390 -0.2126 -0.2417  2.1057
31910SOL    HW299519   1.057   5.550   0.451  1.2740 -0.5748 -1.1047
31911SOL     OW99520   5.231   2.887   6.742 -0.4383 -0.2797 -0.8876
31911SOL    HW199521   5.266   2.824   6.805  2.2836  2.1028  0.1819
31911SOL    HW299522   5.253   2.850   6.656 -1.9310 -2.3184 -0.4797
31912SOL     OW99523   1.366   3.523   3.615 -0.3014 -0.2006 -0.1496
31912SOL    HW199524   1.381   3.430   3.634 -1.3614 -0.4860 -0.6479
31912SOL    HW299525   1.338   3.525   3.524 -0.1483  0.6283 -0.1849
31913SOL     OW99526   6.720   6.321   6.563  0.4548 -0.1556  0.1589
31913SOL    HW199527   6.795   6.370   6.529  0.1439 -0.3572 -0.8634
31913SOL    HW299528   6.691   6.372   6.639  1.2099  0.2829  0.1702
31914SOL     OW99529   0.816   5.594   5.566  0.1748 -0.8117  0.0663
31914SOL    HW199530   0.796   5.620   5.656 -0.0261  0.2485 -0.2729
31914SOL    HW299531   0.792   5.501   5.562 -2.5083 -0.2359  0.3591
31915SOL     OW99532   3.065   2.626   6.071  0.0361 -0.1038 -0.0943
31915SOL    HW199533   3.119   2.600   6.146 -1.4714 -0.0401  1.0708
31915SOL    HW299534   3.089   2.717   6.054  1.2896 -0.4960 -0.5300
31916SOL     OW99535   9.015   6.853   7.681 -0.0137 -0.8894 -0.2196
31916SOL    HW199536   8.952   6.872   7.612 -2.0296 -1.6472  1.3147
31916SOL    HW299537   8.999   6.920   7.748  0.9214 -0.9908  0.1235
31917SOL     OW99538   0.506   2.581   2.249  0.6140 -0.2114 -0.6318
31917SOL    HW199539   0.493   2.488   2.267  2.5402 -0.4552 -0.3220
31917SOL    HW299540   0.537   2.618   2.331  0.4794  0.5835 -0.9265
31918SOL     OW99541   8.686  10.358   0.108 -0.2199 -0.4445 -0.3241
31918SOL    HW199542   8.605  10.326   0.147 -0.6655  1.5966  0.5608
31918SOL    HW299543   8.747  10.367   0.182 -0.6620  2.2192 -0.1713
31919SOL     OW99544   2.628   6.568   4.332 -0.3988 -0.3917 -0.2742
31919SOL    HW199545   2.534   6.571   4.312 -0.5908 -0.8954  0.5447
31919SOL    HW299546   2.645   6.478   4.358  0.3967 -0.3953 -0.7500
31920SOL     OW99547   9.535   7.458   9.958 -0.0306  0.4028 -0.3102
31920SOL    HW199548   9.557   7.367   9.979 -1.0656 -0.0637 -1.1440
31920SOL    HW299549   9.544   7.505  10.041  1.9874 -0.1410 -0.1827
31921SOL     OW99550   4.535   9.401   1.765 -0.0657  0.1128 -0.9389
31921SOL    HW199551   4.529   9.353   1.848 -0.6022 -0.2543 -1.1874
31921SOL    HW299552   4.600   9.353   1.714  0.1041  0.2128 -0.8189
31922SOL     OW99553   0.668   6.994   9.264 -0.4607  0.6837  0.2530
31922SOL    HW199554   0.608   6.924   9.292 -0.2548  0.2150 -0.4577
31922SOL    HW299555   0.614   7.073   9.267 -0.7667  0.4634  0.8275
31923SOL     OW99556   0.689   8.809   7.969 -0.3014 -0.5443  0.1115
31923SOL    HW199557   0.767   8.821   8.024 -0.4213 -0.2280  0.2129
31923SOL    HW299558   0.722   8.815   7.880 -0.1502 -0.7757  0.1507
31924SOL     OW99559   8.106   5.888   8.042 -0.4912  0.2156  0.2761
31924SOL    HW199560   8.059   5.850   8.116  0.1921  1.2035  1.2317
31924SOL    HW299561   8.185   5.926   8.080  1.4947 -1.9695 -1.3481
31925SOL     OW99562   2.005   8.202   8.737  0.4893  0.0446 -0.4207
31925SOL    HW199563   1.934   8.262   8.715  0.3624  0.0997  0.1211
31925SOL    HW299564   2.046   8.182   8.653  0.6279  1.0013 -0.5881
31926SOL     OW99565   3.897   9.595   6.352 -0.2038 -0.9416  0.8201
31926SOL    HW199566   3.863   9.684   6.369 -1.0291 -1.2427  0.8026
31926SOL    HW299567   3.837   9.559   6.286  1.2949 -0.8053 -0.6794
31927SOL     OW99568   7.702   0.376   5.876  0.1246 -0.2950  0.0030
31927SOL    HW199569   7.659   0.313   5.818 -1.0066 -1.4143  1.9458
31927SOL    HW299570   7.632   0.432   5.907  0.5218 -0.3648  1.0636
31928SOL     OW99571   8.055   7.246   8.449  0.0228 -0.1854 -0.1650
31928SOL    HW199572   8.010   7.318   8.493 -0.5716 -0.2306 -0.6966
31928SOL    HW299573   8.140   7.282   8.424  0.2346 -0.0550  0.6985
31929SOL     OW99574   2.517   1.261   4.292 -0.1369  0.8133  0.4504
31929SOL    HW199575   2.500   1.248   4.199  1.1662  1.1070  0.1530
31929SOL    HW299576   2.439   1.228   4.335  0.4057 -2.0407 -0.5792
31930SOL     OW99577   4.971   7.583  10.292  0.1472  0.6104 -0.5293
31930SOL    HW199578   4.881   7.606  10.266 -0.8374 -1.1939  1.0049
31930SOL    HW299579   4.973   7.599  10.387  1.6363  1.0923 -0.6207
31931SOL     OW99580   4.906   4.247   8.681 -0.1219 -0.6241 -0.5790
31931SOL    HW199581   4.830   4.275   8.732 -0.6973 -0.8314 -1.3041
31931SOL    HW299582   4.905   4.151   8.686  0.4813 -0.6076 -0.0432
31932SOL     OW99583   3.364   3.775   1.354  0.1047  0.0682 -0.7438
31932SOL    HW199584   3.310   3.852   1.373 -0.2602 -0.3875  0.1168
31932SOL    HW299585   3.372   3.775   1.259  1.4835  2.1046 -0.7021
31933SOL     OW99586   4.826   8.724   3.506  0.1457  0.3360  0.2048
31933SOL    HW199587   4.740   8.684   3.491 -0.0266  1.2839 -1.7042
31933SOL    HW299588   4.867   8.669   3.573 -1.7944 -0.3460  0.9073
31934SOL     OW99589   3.060   4.233   7.027 -0.4403 -0.5276 -0.2920
31934SOL    HW199590   2.985   4.284   6.996 -1.8562 -1.7240  0.9971
31934SOL    HW299591   3.111   4.214   6.948 -1.4623  0.3449 -1.1877
31935SOL     OW99592   7.628   8.918   7.999  0.0642  0.7199 -0.3528
31935SOL    HW199593   7.591   8.905   8.087  0.1574  1.5428 -0.1832
31935SOL    HW299594   7.645   9.012   7.994  0.3634  0.6306 -1.1380
31936SOL     OW99595   2.375   1.489   5.573  0.3894 -0.6336  0.7113
31936SOL    HW199596   2.283   1.514   5.582  0.4487  0.3546 -0.9165
31936SOL    HW299597   2.407   1.482   5.663 -1.1322 -0.4333  1.2942
31937SOL     OW99598   3.797   4.587   9.830 -0.4354  0.4783 -0.5782
31937SOL    HW199599   3.837   4.624   9.751  0.8156 -1.6232 -1.0033
31937SOL    HW299600   3.848   4.508   9.848 -1.3039  0.3737  1.7965
31938SOL     OW99601   1.090   0.486   9.448  0.3891  0.0674 -0.1795
31938SOL    HW199602   1.043   0.429   9.509 -1.0055 -0.2395 -1.4791
31938SOL    HW299603   1.151   0.428   9.403 -0.5067 -0.2957 -0.9732
31939SOL     OW99604   6.569   9.788   0.477 -0.7604 -0.5328  0.2711
31939SOL    HW199605   6.542   9.697   0.466  1.5012 -1.1564 -0.5152
31939SOL    HW299606   6.585   9.797   0.570 -0.7168 -1.0237  0.3137
31940SOL     OW99607   2.298   7.932   4.298  0.0878 -0.0038  0.2972
31940SOL    HW199608   2.360   7.859   4.305  0.4616  0.2878  0.0763
31940SOL    HW299609   2.236   7.919   4.370 -0.1079 -0.7784 -0.0100
31941SOL     OW99610   5.621   6.415   3.070 -0.1912 -0.2790 -0.0740
31941SOL    HW199611   5.569   6.343   3.033  0.0453  0.3663 -1.7076
31941SOL    HW299612   5.698   6.421   3.014  0.8410 -0.0806  1.2908
31942SOL     OW99613   6.986   7.924   3.165 -0.4496 -0.8357  0.7354
31942SOL    HW199614   6.945   7.845   3.129 -0.3744 -1.3535  1.7454
31942SOL    HW299615   7.023   7.896   3.249  0.0212  0.1582  0.8776
31943SOL     OW99616   2.784   6.332   5.265  0.4431 -0.2412  0.2761
31943SOL    HW199617   2.848   6.346   5.195  1.8312 -0.0119  1.5504
31943SOL    HW299618   2.755   6.420   5.289 -0.0721 -0.3226 -0.0295
31944SOL     OW99619   8.390   6.636   1.908  0.1141  0.2039 -0.1533
31944SOL    HW199620   8.469   6.655   1.958 -0.0790  1.0260 -0.1593
31944SOL    HW299621   8.423   6.609   1.822  0.3817  1.6331 -0.5287
31945SOL     OW99622   1.564   6.186   4.571 -0.0774  0.1571  0.5781
31945SOL    HW199623   1.590   6.177   4.663  0.5553  1.0599  0.5017
31945SOL    HW299624   1.585   6.101   4.532  2.7774  0.7563  0.5541
31946SOL     OW99625   8.848   4.993   6.037  0.2636  0.0282  0.1025
31946SOL    HW199626   8.795   5.003   6.116 -0.2965  2.1720 -0.4864
31946SOL    HW299627   8.935   4.971   6.069 -0.9571 -4.5815  1.0899
31947SOL     OW99628   9.622  10.254   4.108 -0.8776  0.2996 -0.1265
31947SOL    HW199629   9.545  10.262   4.165 -2.1546  1.4235 -1.8951
31947SOL    HW299630   9.597  10.189   4.043  0.0760 -0.0493 -0.1548
31948SOL     OW99631   9.656   3.104   9.112 -0.3857  0.2723 -0.1163
31948SOL    HW199632   9.608   3.042   9.058 -1.9339  0.3662  1.0863
31948SOL    HW299633   9.729   3.053   9.148 -1.2253 -0.6731  0.2868
31949SOL     OW99634   3.970   7.654   5.968 -0.8145 -0.2610  0.9823
31949SOL    HW199635   3.893   7.661   5.911  0.7648 -0.8421 -1.3682
31949SOL    HW299636   3.964   7.565   6.005 -1.8930  0.1494  1.8507
31950SOL     OW99637   8.421   6.200   9.502 -0.2667  0.4069  0.3428
31950SOL    HW199638   8.375   6.284   9.508  1.3278  1.2751  1.3757
31950SOL    HW299639   8.357   6.139   9.467 -2.1053  1.5817  1.5000
31951SOL     OW99640   7.607   1.376   7.837  0.4539 -0.2316  0.4538
31951SOL    HW199641   7.534   1.329   7.796 -0.2026  1.6939 -0.7225
31951SOL    HW299642   7.684   1.327   7.811 -0.3376 -2.0320  1.3112
31952SOL     OW99643   8.986  10.056   2.709 -0.4557  0.1171 -0.5415
31952SOL    HW199644   9.036   9.975   2.703 -0.0899  0.0883  1.9605
31952SOL    HW299645   9.050  10.125   2.697 -0.6556  0.0791 -2.0027
31953SOL     OW99646   2.687   8.050   0.296  1.0471  0.1480  0.1686
31953SOL    HW199647   2.605   8.099   0.289  0.0578 -1.3977  0.4430
31953SOL    HW299648   2.755   8.114   0.276 -0.0491  2.0449  2.0577
31954SOL     OW99649   3.210   9.990   4.487 -0.2268  0.5933 -0.2389
31954SOL    HW199650   3.254  10.069   4.516  0.6403 -0.7393  2.3896
31954SOL    HW299651   3.121   9.998   4.520 -0.3066  0.6924 -0.4709
31955SOL     OW99652   3.449   8.823   8.196 -0.6289  0.2159  0.1031
31955SOL    HW199653   3.427   8.868   8.278  2.5281  2.2591  0.0183
31955SOL    HW299654   3.449   8.730   8.219 -0.9682  0.6643  2.1078
31956SOL     OW99655   7.465   6.452   1.223 -0.8669 -0.1776 -0.0192
31956SOL    HW199656   7.514   6.509   1.282 -1.4409 -1.2226  1.5422
31956SOL    HW299657   7.374   6.463   1.250 -1.2161 -0.1964 -1.1617
31957SOL     OW99658   7.747   8.751   2.390 -0.3666  0.6000 -0.0293
31957SOL    HW199659   7.834   8.713   2.374 -0.1430  1.3898 -0.7914
31957SOL    HW299660   7.723   8.719   2.477  0.8908  0.7275  0.3944
31958SOL     OW99661   2.783   1.453   9.266 -0.1203 -0.7270 -0.0480
31958SOL    HW199662   2.707   1.485   9.217  1.0835 -0.7788 -2.0655
31958SOL    HW299663   2.762   1.471   9.358 -1.2718  2.0421 -0.7474
31959SOL     OW99664   3.148   2.748   5.661  0.2670 -0.6495 -0.2348
31959SOL    HW199665   3.105   2.713   5.582 -0.7150 -0.6780  0.2999
31959SOL    HW299666   3.133   2.842   5.657  2.0026 -0.3858 -1.1298
31960SOL     OW99667   4.830   0.896   3.253  0.1452 -0.3491  0.0144
31960SOL    HW199668   4.804   0.978   3.294  0.1845 -0.8304  1.0489
31960SOL    HW299669   4.770   0.831   3.290  1.0084 -1.0066  0.2830
31961SOL     OW99670   0.853   8.285   3.947 -0.5435 -0.1443  0.0853
31961SOL    HW199671   0.761   8.297   3.926 -0.5307 -1.6266 -1.0354
31961SOL    HW299672   0.900   8.321   3.871 -0.2064  0.3297  0.5113
31962SOL     OW99673   6.965   8.359  10.342 -0.2000  0.1405  0.2007
31962SOL    HW199674   7.051   8.323  10.363  0.6596  1.7862 -0.2760
31962SOL    HW299675   6.971   8.382  10.249 -1.2567  0.0308  0.0986
31963SOL     OW99676   7.956   4.020   3.227 -0.0296 -0.1902 -0.1877
31963SOL    HW199677   7.973   3.954   3.294  0.1668 -0.6235 -0.6569
31963SOL    HW299678   7.872   4.060   3.252 -0.1138 -0.5733  0.1334
31964SOL     OW99679   5.152   0.297   0.447  0.4232  0.4602 -0.0986
31964SOL    HW199680   5.190   0.226   0.395 -0.7188  0.2983 -0.7241
31964SOL    HW299681   5.197   0.376   0.416 -0.0063  0.3238 -1.1045
31965SOL     OW99682   1.505   9.112   8.863 -0.8357  0.4826 -0.4823
31965SOL    HW199683   1.411   9.128   8.866 -1.2699 -1.1935 -2.5521
31965SOL    HW299684   1.525   9.069   8.946 -2.6107 -2.1262 -1.2606
31966SOL     OW99685  10.263   6.218   6.635 -1.1974  0.3407  0.0338
31966SOL    HW199686  10.264   6.165   6.715  0.5153  0.2010 -0.0617
31966SOL    HW299687  10.330   6.180   6.579 -0.6004  1.9985 -0.4359
31967SOL     OW99688   0.829   1.635   1.008  0.2882  0.1407  0.4326
31967SOL    HW199689   0.761   1.576   0.975 -0.3997  0.8355  0.6188
31967SOL    HW299690   0.898   1.576   1.039 -1.4612 -0.6763  3.0386
31968SOL     OW99691   3.101   6.737   8.802 -0.0963 -0.4327  0.0639
31968SOL    HW199692   3.064   6.648   8.798 -0.4616 -0.2425 -1.2173
31968SOL    HW299693   3.184   6.726   8.850  1.0727 -1.9204 -2.1228
31969SOL     OW99694   0.328   0.526   5.516  0.0645  0.0969 -0.0559
31969SOL    HW199695   0.357   0.466   5.447 -0.3074  1.4061 -1.3658
31969SOL    HW299696   0.234   0.535   5.503 -0.5357 -1.6478  2.2560
31970SOL     OW99697   2.661   5.949   0.821  0.3222 -0.0087 -0.0083
31970SOL    HW199698   2.706   5.979   0.742  0.4711 -1.9250 -0.6994
31970SOL    HW299699   2.725   5.960   0.891  0.6184  0.5799 -0.3635
31971SOL     OW99700   4.596   5.586   4.382 -0.3058 -0.1353  0.2442
31971SOL    HW199701   4.536   5.658   4.363 -1.3706 -1.5891 -2.4888
31971SOL    HW299702   4.585   5.569   4.475 -2.9419  0.7377  0.1668
31972SOL     OW99703   1.368   7.413   0.288  0.2176  0.5118  0.1672
31972SOL    HW199704   1.385   7.478   0.356  1.1367 -0.7447  1.1872
31972SOL    HW299705   1.342   7.334   0.335  0.9564 -0.4129 -0.9162
31973SOL     OW99706   9.790   4.286  10.124 -0.2726 -0.2438 -0.4714
31973SOL    HW199707   9.786   4.382  10.132  1.9358 -0.1823  0.9397
31973SOL    HW299708   9.772   4.254  10.212  0.2413 -1.0514 -0.6500
31974SOL     OW99709   6.288   9.625   3.852  0.4455  0.3858 -0.3264
31974SOL    HW199710   6.282   9.532   3.831  0.7348 -0.1800  1.8708
31974SOL    HW299711   6.212   9.642   3.907  0.9429  1.1982  0.1238
31975SOL     OW99712   7.903   9.997   6.543 -0.1255  0.0786  0.1682
31975SOL    HW199713   7.868  10.047   6.470 -1.3377 -0.3425  0.4362
31975SOL    HW299714   7.960   9.931   6.503 -0.7994 -0.1597 -0.4045
31976SOL     OW99715   2.538   6.052   8.924 -0.1205 -0.3875  0.3116
31976SOL    HW199716   2.510   6.055   8.833  0.5452 -1.3347  0.0615
31976SOL    HW299717   2.570   6.140   8.943 -0.7804 -0.0343 -0.1950
31977SOL     OW99718   8.868   2.386   2.928 -0.2104 -0.3848 -0.5544
31977SOL    HW199719   8.845   2.477   2.910  1.0863  0.1241  0.2209
31977SOL    HW299720   8.784   2.339   2.929 -0.8669  0.7543 -1.1770
31978SOL     OW99721   9.510   5.685   1.300 -0.5082 -0.8328 -0.3997
31978SOL    HW199722   9.458   5.760   1.272 -1.0867 -0.3200  1.8090
31978SOL    HW299723   9.597   5.701   1.262 -1.0515  0.1117 -1.2927
31979SOL     OW99724   0.079   2.300   0.009  0.0391  0.0355 -0.0867
31979SOL    HW199725   0.160   2.342   0.040  1.2635 -0.8445 -1.8828
31979SOL    HW299726   0.041   2.261   0.087  1.8887 -0.3658  0.6628
31980SOL     OW99727   8.238   6.301   0.746 -0.0479  0.0569  0.0447
31980SOL    HW199728   8.261   6.239   0.677  1.4958  1.7602 -1.0539
31980SOL    HW299729   8.320   6.316   0.793 -0.2869  1.5515  0.0244
31981SOL     OW99730   2.179   9.478   6.115 -0.0336 -0.4857 -0.0050
31981SOL    HW199731   2.119   9.405   6.129  1.0784 -1.1483  1.7108
31981SOL    HW299732   2.124   9.555   6.114 -1.0665 -1.2045 -0.1100
31982SOL     OW99733   4.114  10.332   6.226  0.0629 -0.0202 -0.0042
31982SOL    HW199734   4.132  10.253   6.175 -0.9119  1.3684 -2.6362
31982SOL    HW299735   4.030  10.316   6.268  0.3143 -0.7073  0.2545
31983SOL     OW99736   7.839   1.497   2.776  0.1684  0.3279 -0.8543
31983SOL    HW199737   7.874   1.559   2.840 -1.8722  1.4228 -0.7033
31983SOL    HW299738   7.865   1.534   2.691  0.8951  0.1256 -0.7310
31984SOL     OW99739   1.337   7.693   3.644  0.0589 -0.1896 -0.6026
31984SOL    HW199740   1.255   7.711   3.691  1.3721  0.9947  1.3728
31984SOL    HW299741   1.330   7.743   3.563 -1.1715 -0.1520 -0.4891
31985SOL     OW99742   7.588  10.168   8.766 -0.7950 -0.1440  0.2620
31985SOL    HW199743   7.565  10.206   8.850  0.6452  1.7341 -0.1249
31985SOL    HW299744   7.684  10.168   8.765 -0.7808 -0.3484 -1.2679
31986SOL     OW99745   8.909   3.005   7.416  0.4777 -0.6704 -0.0057
31986SOL    HW199746   8.824   2.965   7.437  0.1550 -1.0478 -1.8607
31986SOL    HW299747   8.897   3.040   7.328  2.4883 -1.3985 -0.6078
31987SOL     OW99748   3.646   7.904   9.750 -0.3337 -0.1176 -0.1221
31987SOL    HW199749   3.578   7.942   9.695  0.3686  0.6447 -0.4895
31987SOL    HW299750   3.719   7.966   9.745  0.3811 -0.8952  0.2868
31988SOL     OW99751   5.760   2.988   6.414  0.7264 -0.0349  0.4572
31988SOL    HW199752   5.682   2.964   6.465  0.2328 -0.2020 -0.3700
31988SOL    HW299753   5.823   3.015   6.481 -0.4038  1.1966  1.1033
31989SOL     OW99754   5.961   8.979   0.000  0.0099  0.4724 -0.4151
31989SOL    HW199755   6.053   9.001  -0.011  0.5676  0.9204  3.5039
31989SOL    HW299756   5.961   8.915   0.072 -2.7309  0.4566 -0.3249
31990SOL     OW99757   4.229   7.745   9.091 -0.0031  0.2367 -0.5122
31990SOL    HW199758   4.243   7.749   9.185  0.5526 -0.7011 -0.5352
31990SOL    HW299759   4.314   7.769   9.053  0.0654 -0.3589 -0.7492
31991SOL     OW99760   5.465   8.172   2.651 -0.1909 -0.2000 -0.1908
31991SOL    HW199761   5.442   8.080   2.635  0.2492 -0.1622 -1.0966
31991SOL    HW299762   5.532   8.169   2.718  0.5424 -0.6185 -0.9269
31992SOL     OW99763   6.314   1.330   3.310 -0.4510 -0.6565 -0.3607
31992SOL    HW199764   6.285   1.281   3.234 -0.5053 -0.2644 -0.5943
31992SOL    HW299765   6.234   1.369   3.346 -0.7903 -2.6303  1.2068
31993SOL     OW99766   0.047   8.537   6.614 -0.1467 -0.2584  0.3023
31993SOL    HW199767   0.133   8.502   6.591 -0.1978  0.2796 -0.8188
31993SOL    HW299768   0.066   8.623   6.652 -0.1467 -0.4844  0.8158
31994SOL     OW99769   1.581   9.644   2.440  0.1699  0.0347 -0.8363
31994SOL    HW199770   1.576   9.561   2.394  1.1488 -0.1573 -0.6179
31994SOL    HW299771   1.625   9.703   2.379  1.8776 -0.3402 -0.0317
31995SOL     OW99772   4.731   6.982   0.426  0.2601  0.2350  0.1627
31995SOL    HW199773   4.807   7.030   0.394 -0.9991  1.6224 -0.8990
31995SOL    HW299774   4.721   6.910   0.363  0.8299 -0.0998  0.4506
31996SOL     OW99775  10.051   6.472   5.514  0.0893 -0.1256 -0.5275
31996SOL    HW199776  10.038   6.399   5.575  0.1849 -0.9814 -1.5113
31996SOL    HW299777  10.132   6.513   5.544  0.1749 -0.5827 -0.1175
31997SOL     OW99778   5.933   4.193   5.605  0.0282 -0.1757 -0.5041
31997SOL    HW199779   5.844   4.216   5.579 -0.6033  1.1535  2.4618
31997SOL    HW299780   5.927   4.101   5.632 -0.7059  0.1751  0.5876
31998SOL     OW99781   9.132   2.435   7.042 -0.1221 -0.3214 -0.7329
31998SOL    HW199782   9.051   2.482   7.022  0.3972  0.7917 -0.3005
31998SOL    HW299783   9.173   2.421   6.957  0.3775  1.2654 -0.7794
31999SOL     OW99784   0.833   9.399   9.839 -0.2009 -0.4550  0.2130
31999SOL    HW199785   0.837   9.430   9.749  2.2733 -4.2784 -1.2424
31999SOL    HW299786   0.744   9.367   9.849 -0.1388 -1.2491 -1.4214
32000SOL     OW99787   8.899   2.330   3.487 -0.2192  0.8411  0.1752
32000SOL    HW199788   8.988   2.340   3.522  0.3684 -0.6450 -0.8262
32000SOL    HW299789   8.908   2.339   3.393 -1.0809  0.3103  0.0286
32001SOL     OW99790   3.747   1.110   8.817 -0.5323 -0.3442  0.1395
32001SOL    HW199791   3.671   1.076   8.864 -0.2067  0.3863  1.2139
32001SOL    HW299792   3.710   1.156   8.741 -1.0946 -0.8779  0.0818
32002SOL     OW99793   1.242   9.126   6.855  0.3131  0.1374  0.4073
32002SOL    HW199794   1.241   9.165   6.942 -1.0082  1.4743 -0.1698
32002SOL    HW299795   1.158   9.151   6.816  1.2512  0.3929 -1.5932
32003SOL     OW99796   4.945   1.413   8.114  0.6971 -0.4717  0.3652
32003SOL    HW199797   4.960   1.488   8.056  0.0158 -0.0394  0.7327
32003SOL    HW299798   5.022   1.358   8.102  0.4125 -0.5881 -1.2400
32004SOL     OW99799   6.261  10.006   0.653 -0.7744  0.4731 -0.4116
32004SOL    HW199800   6.277   9.912   0.642 -0.6041  0.5675 -0.9689
32004SOL    HW299801   6.340  10.039   0.696 -0.3948  0.5384 -1.1409
32005SOL     OW99802  10.026  10.355   0.835  0.0318 -0.3535 -0.4779
32005SOL    HW199803   9.952  10.386   0.887  1.3602  0.8274  0.8097
32005SOL    HW299804   9.986  10.308   0.762 -2.0668  2.0288 -1.0050
32006SOL     OW99805   5.838  10.057  10.296  0.1785 -0.1750  0.3318
32006SOL    HW199806   5.811   9.966  10.307  2.2701 -1.1685 -1.8089
32006SOL    HW299807   5.920  10.064  10.344  0.5362  0.2889 -0.3229
32007SOL     OW99808   4.050   0.819   0.651  0.5007 -0.2372 -0.3728
32007SOL    HW199809   4.017   0.889   0.595  2.0593  0.3163 -0.6727
32007SOL    HW299810   4.062   0.860   0.737 -0.5888 -0.7201  0.0245
32008SOL     OW99811   8.917   0.302   3.383 -0.1856 -0.2308 -0.2097
32008SOL    HW199812   8.943   0.300   3.475 -1.4506 -1.4008  0.1532
32008SOL    HW299813   8.826   0.332   3.384 -0.1829 -0.1572 -1.1010
32009SOL     OW99814   1.734   3.535   0.019 -0.2673 -0.2526 -0.0638
32009SOL    HW199815   1.776   3.461   0.061 -0.4248 -0.5649 -0.4488
32009SOL    HW299816   1.702   3.501  -0.065 -0.9518  0.0698  0.0563
32010SOL     OW99817   7.074   3.022   3.033 -0.3689 -0.9424 -0.0413
32010SOL    HW199818   7.152   2.971   3.054  0.5686  1.5509  3.3469
32010SOL    HW299819   7.011   2.998   3.101 -1.0760  0.0202 -0.3369
32011SOL     OW99820   4.592   8.785   3.891  0.4276  0.3107  0.1228
32011SOL    HW199821   4.675   8.813   3.852  1.4744 -2.2521  0.2619
32011SOL    HW299822   4.615   8.762   3.981 -0.6974  0.6449  0.5116
32012SOL     OW99823   0.041   6.002   9.503 -0.8329 -0.2456  0.3015
32012SOL    HW199824   0.008   6.092   9.501  0.5449  0.2746 -0.3946
32012SOL    HW299825   0.107   5.999   9.433 -0.9461 -1.8402  0.2221
32013SOL     OW99826   3.561   8.370   4.188  0.1528 -0.4462  0.1898
32013SOL    HW199827   3.481   8.351   4.138 -0.0454  1.5015 -0.3236
32013SOL    HW299828   3.631   8.331   4.136 -0.3202 -0.8504 -0.1604
32014SOL     OW99829   4.811   7.400   9.796  0.0764  0.3854  0.3153
32014SOL    HW199830   4.902   7.394   9.825 -0.0398  0.7037  0.7492
32014SOL    HW299831   4.777   7.478   9.839 -0.3986  0.2777  0.1394
32015SOL     OW99832   8.526   8.929   3.370  0.8507 -0.0743  0.7012
32015SOL    HW199833   8.436   8.938   3.402  0.5092 -0.4624 -0.1277
32015SOL    HW299834   8.546   8.836   3.381  1.1278 -0.0011  0.8207
32016SOL     OW99835   7.637   2.971   1.209  0.3508 -0.4148  0.0624
32016SOL    HW199836   7.695   3.023   1.265 -0.3972 -1.6362  2.0847
32016SOL    HW299837   7.549   2.992   1.242 -0.3429  0.6318 -2.2756
32017SOL     OW99838   0.930   2.872   5.051 -0.2440  0.4339 -0.1594
32017SOL    HW199839   1.025   2.880   5.065  0.2065 -0.4620 -2.2710
32017SOL    HW299840   0.920   2.873   4.955 -2.2451 -0.8333 -0.0165
32018SOL     OW99841   4.053   1.534   9.749  0.3727 -0.2189 -0.2258
32018SOL    HW199842   4.142   1.553   9.722  0.6724  0.1368  0.9261
32018SOL    HW299843   4.061   1.508   9.841 -0.4475 -2.4955 -0.7377
32019SOL     OW99844   9.445   7.431   0.180 -0.3119  0.0861 -0.4070
32019SOL    HW199845   9.387   7.358   0.156 -0.7135  0.2013  0.1825
32019SOL    HW299846   9.391   7.509   0.165  1.0149  0.5158 -3.7834
32020SOL     OW99847   3.002   0.982   4.608 -0.2614  0.1642 -0.0303
32020SOL    HW199848   3.031   0.979   4.699  1.2519  0.7138 -0.4739
32020SOL    HW299849   2.908   0.962   4.613  0.3415 -2.9122  1.3587
32021SOL     OW99850   3.693   9.750   1.191  0.2889 -0.0896  0.7886
32021SOL    HW199851   3.639   9.671   1.182  2.0544 -1.3738  0.8262
32021SOL    HW299852   3.635   9.822   1.165 -1.6200 -1.2902  1.5097
32022SOL     OW99853   7.035   2.643   4.935 -0.6730 -0.0360 -0.2999
32022SOL    HW199854   7.091   2.614   5.007  0.7227  0.7289 -1.0387
32022SOL    HW299855   7.024   2.737   4.949 -0.3202  0.1356 -1.1102
32023SOL     OW99856   7.774   0.697   5.799  0.2110  0.2227  0.3344
32023SOL    HW199857   7.797   0.613   5.759  0.4145  1.4082 -2.2764
32023SOL    HW299858   7.858   0.739   5.819  0.1128 -0.1102  1.4960
32024SOL     OW99859   6.488   0.292   3.346  0.0323  0.3644 -0.0105
32024SOL    HW199860   6.476   0.387   3.350 -3.3542  0.0448  1.8984
32024SOL    HW299861   6.410   0.257   3.389  0.4463 -3.3547 -1.8764
32025SOL     OW99862   9.328   4.482   6.012  0.0749 -0.7181 -0.0296
32025SOL    HW199863   9.423   4.478   6.009  0.2223  0.9922  1.2357
32025SOL    HW299864   9.308   4.545   6.081 -1.9781 -0.6285 -0.6305
32026SOL     OW99865  10.361   1.765   6.233 -0.0016  0.4369  0.0924
32026SOL    HW199866  10.368   1.689   6.291  0.8278  0.4494  0.0279
32026SOL    HW299867  10.337   1.838   6.291  1.0227  0.4898  0.4743
32027SOL     OW99868   5.364   3.604   4.013  0.6544 -0.0363  0.3531
32027SOL    HW199869   5.373   3.686   3.966  0.3550 -0.6757 -0.8556
32027SOL    HW299870   5.435   3.549   3.981  1.2245 -0.0701  1.5971
32028SOL     OW99871   5.260   4.536   8.009  0.0661  0.0155 -0.4721
32028SOL    HW199872   5.287   4.547   8.100 -0.5187 -2.7755  0.1190
32028SOL    HW299873   5.166   4.559   8.009 -0.2993 -1.3941 -0.0087
32029SOL     OW99874   8.959   7.868   1.674 -0.2338 -0.7167  0.4599
32029SOL    HW199875   8.973   7.798   1.610 -0.6046 -0.4782  0.1064
32029SOL    HW299876   8.932   7.824   1.754  1.0120 -1.0800  0.7034
32030SOL     OW99877   9.112   2.472   7.676  0.2921 -0.2844  0.7385
32030SOL    HW199878   9.103   2.379   7.654 -0.1167 -0.3710  1.2495
32030SOL    HW299879   9.112   2.517   7.591  2.1790 -0.8655  0.3790
32031SOL     OW99880   5.742   5.602   2.999  0.1493 -0.0866  0.2430
32031SOL    HW199881   5.784   5.685   3.019 -0.4461  0.4757 -0.7814
32031SOL    HW299882   5.720   5.608   2.906  1.4156 -1.9623 -0.2405
32032SOL     OW99883   1.661   9.122   1.905  0.0223  0.0163 -0.3766
32032SOL    HW199884   1.590   9.140   1.843  0.6144  0.4918 -0.9360
32032SOL    HW299885   1.694   9.036   1.880 -0.6077 -0.3927  0.1465
32033SOL     OW99886   3.637   9.046   8.370 -0.4379  0.0977  0.4367
32033SOL    HW199887   3.578   8.971   8.376  0.1758 -0.4501 -0.2225
32033SOL    HW299888   3.579   9.119   8.348 -1.0884 -0.0959  1.4543
32034SOL     OW99889   5.154   4.865   2.528 -0.2851  0.8109  0.3753
32034SOL    HW199890   5.245   4.894   2.529 -0.0702  0.1512  1.8046
32034SOL    HW299891   5.153   4.787   2.583 -1.2598 -0.6684 -1.6362
32035SOL     OW99892   5.267   2.341   9.264  0.9299 -0.1709 -0.0106
32035SOL    HW199893   5.212   2.281   9.315  0.2228 -1.0318 -1.7086
32035SOL    HW299894   5.228   2.341   9.177  1.3789  2.2044 -0.2805
32036SOL     OW99895   9.674   1.592   2.807 -0.0935  0.1835  0.2036
32036SOL    HW199896   9.614   1.517   2.806  0.3808 -0.2007  0.1665
32036SOL    HW299897   9.676   1.622   2.717 -0.1021  0.0873  0.1706
32037SOL     OW99898  10.119   1.222   7.315  0.7356  0.3643  0.4253
32037SOL    HW199899  10.196   1.260   7.357  0.7415  1.2492 -0.3443
32037SOL    HW299900  10.083   1.162   7.381  0.3641  2.1666  1.9545
32038SOL     OW99901   6.901   3.029   8.478 -0.0173 -0.0011 -0.1105
32038SOL    HW199902   6.849   3.095   8.432  2.2032  1.4495 -0.6797
32038SOL    HW299903   6.958   2.993   8.410  0.0142 -1.2903  0.5699
32039SOL     OW99904   1.743   5.401   1.633 -0.4118  0.4185 -0.7958
32039SOL    HW199905   1.755   5.350   1.712 -1.1715  0.6103 -0.5449
32039SOL    HW299906   1.809   5.470   1.638 -0.2630  0.2525 -0.4764
32040SOL     OW99907   4.843   1.524   1.736  0.4784  0.1193 -0.9342
32040SOL    HW199908   4.767   1.563   1.691  0.2192  0.5017 -0.1809
32040SOL    HW299909   4.919   1.558   1.687  0.1938  0.3053 -1.2585
32041SOL     OW99910   1.988   1.843   2.248 -0.1247  0.0427  0.3552
32041SOL    HW199911   2.056   1.781   2.273  1.4670  1.7254  0.3907
32041SOL    HW299912   2.035   1.922   2.224 -1.8962  0.4448 -2.2836
32042SOL     OW99913   0.757   5.183   1.835 -0.0261 -0.3731  0.1014
32042SOL    HW199914   0.687   5.179   1.900  2.1899 -2.7225  2.5774
32042SOL    HW299915   0.809   5.103   1.849  2.8291  0.9134 -1.9574
32043SOL     OW99916   9.870   8.163   3.044 -0.2633  0.9161  0.4011
32043SOL    HW199917   9.826   8.088   3.084  0.0512  0.4293 -0.1494
32043SOL    HW299918   9.922   8.125   2.973 -0.1074  1.6558  0.1109
32044SOL     OW99919   9.004   1.864   9.264 -0.0841  0.1370  0.3433
32044SOL    HW199920   9.045   1.825   9.341  0.5661 -1.1236 -0.6090
32044SOL    HW299921   9.061   1.937   9.241 -0.0442  0.2524  0.8033
32045SOL     OW99922   8.871   2.715   2.129  0.7952 -0.2512  0.1868
32045SOL    HW199923   8.876   2.785   2.195 -0.5949 -1.8560  2.1565
32045SOL    HW299924   8.845   2.759   2.049 -0.2060  1.5015  1.3964
32046SOL     OW99925   5.586   7.702  10.200  0.2917 -0.2537 -0.1415
32046SOL    HW199926   5.666   7.701  10.253  0.4767  2.7388 -0.1737
32046SOL    HW299927   5.616   7.722  10.111 -0.4789  1.3876 -0.0650
32047SOL     OW99928   3.414   0.238   8.161 -0.0817  0.2567  0.0253
32047SOL    HW199929   3.324   0.257   8.136 -0.0435  0.4992  0.0717
32047SOL    HW299930   3.465   0.256   8.082 -0.0365  0.4251  0.0915
32048SOL     OW99931   1.375   3.891   3.813  0.2904  0.0729  0.4751
32048SOL    HW199932   1.279   3.897   3.816  0.3052  0.0880  2.7135
32048SOL    HW299933   1.395   3.870   3.722 -1.9482 -1.9553  0.3502
32049SOL     OW99934   1.746   3.399   0.741 -0.4168 -0.1259  0.6155
32049SOL    HW199935   1.795   3.469   0.698 -1.0788  1.9565  2.9591
32049SOL    HW299936   1.812   3.336   0.768  0.3947  0.2952 -0.3167
32050SOL     OW99937   3.080   6.415   8.581 -0.0508 -0.7194  0.4358
32050SOL    HW199938   3.106   6.507   8.583  0.5198 -0.8361 -0.6857
32050SOL    HW299939   3.012   6.411   8.513  0.4222 -1.2392 -0.0151
32051SOL     OW99940   2.168   0.452   5.138  0.6475  0.3330 -0.1961
32051SOL    HW199941   2.257   0.489   5.133  0.9900 -0.3963  0.4001
32051SOL    HW299942   2.114   0.513   5.087  1.5937  0.4705 -1.0683
32052SOL     OW99943  10.004   6.812   6.216 -0.5220  0.0587 -0.2057
32052SOL    HW199944   9.933   6.799   6.152 -0.4154 -1.4957 -0.0574
32052SOL    HW299945  10.042   6.896   6.193 -2.7947  1.2488  0.0760
32053SOL     OW99946   0.328   8.222   3.781  0.2181 -0.1858 -0.0998
32053SOL    HW199947   0.253   8.272   3.749  0.2932  0.1932  0.3070
32053SOL    HW299948   0.294   8.134   3.795 -0.0717 -0.0954 -0.2318
32054SOL     OW99949   0.003  10.055   0.903 -0.1586 -0.3642  0.2489
32054SOL    HW199950  -0.079  10.097   0.878  0.1125  0.8536  1.2675
32054SOL    HW299951  -0.012   9.962   0.890 -1.7451 -0.1758  0.5442
32055SOL     OW99952   7.065   5.136   6.130  0.1095  0.0667  0.0320
32055SOL    HW199953   7.003   5.113   6.061  0.7108  0.7443 -0.7638
32055SOL    HW299954   7.130   5.065   6.128  0.7280  0.6317 -0.8752
32056SOL     OW99955   4.252   8.518   7.922  0.4460  0.0941  0.0526
32056SOL    HW199956   4.339   8.553   7.907  0.4684 -0.4319 -1.1201
32056SOL    HW299957   4.265   8.424   7.937  0.1050  0.0566  0.1469
32057SOL     OW99958   0.294   6.821   0.174  0.3078  0.1426 -0.0969
32057SOL    HW199959   0.200   6.804   0.176  0.1097  1.1856  0.5929
32057SOL    HW299960   0.325   6.796   0.261  0.5022  0.5851 -0.0326
32058SOL     OW99961   0.536   0.502   6.214 -0.1930  0.1916 -0.5569
32058SOL    HW199962   0.530   0.414   6.251 -1.3867  0.4716 -0.0337
32058SOL    HW299963   0.624   0.532   6.237  0.1741 -0.7977 -0.6185
32059SOL     OW99964   3.691   9.524   6.188  0.3163 -0.0039 -0.1811
32059SOL    HW199965   3.644   9.571   6.119  0.0221  0.7688  0.5291
32059SOL    HW299966   3.625   9.467   6.227  0.7228 -1.1891 -1.1786
32060SOL     OW99967   3.851   0.769   5.238 -0.2570  0.2620  0.5225
32060SOL    HW199968   3.762   0.802   5.253 -0.4966  0.5175 -1.2589
32060SOL    HW299969   3.905   0.818   5.299 -0.6785  3.6937 -1.5808
32061SOL     OW99970   4.501   1.203   0.199  0.1192 -0.0839 -0.5236
32061SOL    HW199971   4.456   1.152   0.132  1.5477  1.6124 -2.9552
32061SOL    HW299972   4.444   1.279   0.214  0.1846 -0.0478 -0.4565
32062SOL     OW99973   1.185   7.102   0.124  0.2422 -0.1372  0.4032
32062SOL    HW199974   1.196   7.133   0.214  0.6774 -1.9629  1.0176
32062SOL    HW299975   1.156   7.011   0.134  1.5904 -0.7906 -1.3125
32063SOL     OW99976   9.862   6.639   9.487  0.0695  0.2875  0.3953
32063SOL    HW199977   9.789   6.637   9.549 -1.9393 -0.0723 -1.8378
32063SOL    HW299978   9.914   6.715   9.513 -1.7820  1.2867  1.3690
32064SOL     OW99979   4.797   5.315   1.987  0.4007  0.2115 -0.0907
32064SOL    HW199980   4.777   5.230   2.026  0.4349  0.7243  1.0802
32064SOL    HW299981   4.783   5.378   2.057  1.0677  1.1126 -0.7383
32065SOL     OW99982   8.756   8.704   4.108  0.0408 -0.4113  0.1301
32065SOL    HW199983   8.772   8.762   4.182 -1.0041 -0.0521  0.0907
32065SOL    HW299984   8.811   8.627   4.126  0.5440  0.0793  0.7725
32066SOL     OW99985   5.780   2.365   5.573  0.1025 -0.2241 -0.6154
32066SOL    HW199986   5.848   2.367   5.641 -0.6290 -1.7182  0.2141
32066SOL    HW299987   5.828   2.353   5.491  0.8928 -0.2522 -0.1611
32067SOL     OW99988   5.879   8.875   3.529  0.0537  0.4633  0.8740
32067SOL    HW199989   5.813   8.823   3.574  0.5189 -0.7557  0.1924
32067SOL    HW299990   5.829   8.940   3.479 -0.6252 -0.2527  0.6041
32068SOL     OW99991   4.720   4.318   6.034  0.0661  0.0175  0.0953
32068SOL    HW199992   4.737   4.331   5.941  0.0497  0.5815  0.1658
32068SOL    HW299993   4.788   4.368   6.078 -0.4458  0.4798  0.3817
32069SOL     OW99994   0.640   2.528   9.278  0.1961  0.3144  0.4085
32069SOL    HW199995   0.706   2.477   9.325 -0.2622 -0.1085  0.6003
32069SOL    HW299996   0.686   2.608   9.252  0.7761  0.0349  0.5578
32070SOL     OW99997   8.971   5.632   5.385  0.7410 -0.0929  0.4950
32070SOL    HW199998   8.937   5.713   5.346  0.7769 -0.6251 -0.6779
32070SOL    HW299999   9.050   5.659   5.432  0.3451  0.6682  0.7283
32071SOL     OW    0   9.165   8.983   0.683 -0.2015 -0.0118 -0.6050
32071SOL    HW1    1   9.166   9.046   0.611 -0.1869  0.2122 -0.4072
32071SOL    HW2    2   9.091   9.009   0.737  0.0210  0.0519 -0.3294
32072SOL     OW    3   1.932   0.043  10.106 -0.3173 -0.0334 -0.1241
32072SOL    HW1    4   1.865  -0.006  10.059  0.0326 -0.3631 -0.2879
32072SOL    HW2    5   1.979  -0.024  10.157 -0.0147  0.1675 -0.1351
32073SOL     OW    6   6.127   6.478   3.742  0.0382 -0.0791 -0.0308
32073SOL    HW1    7   6.110   6.570   3.764  1.9064  0.6778 -1.5399
32073SOL    HW2    8   6.067   6.459   3.670  0.0382  0.1333 -0.0888
32074SOL     OW    9   4.923   2.700   9.361  0.6149 -0.2418  0.2250
32074SOL    HW1   10   4.990   2.741   9.306 -0.5852 -0.1597 -1.2389
32074SOL    HW2   11   4.929   2.607   9.339 -0.1294 -0.1586 -0.3725
32075SOL     OW   12   6.631   7.566   9.165  0.5634  0.5744  0.4906
32075SOL    HW1   13   6.596   7.511   9.235  0.4705 -0.2430 -0.1864
32075SOL    HW2   14   6.669   7.641   9.211 -0.1571  0.4259  1.3679
32076SOL     OW   15   7.057   0.924   7.845 -0.2431  0.3103  0.1886
32076SOL    HW1   16   6.964   0.926   7.826 -0.4799 -1.9485  0.8622
32076SOL    HW2   17   7.072   1.000   7.902 -1.5043  1.1075 -0.5218
32077SOL     OW   18   5.830   0.874   0.856 -0.2420 -0.0810 -0.2973
32077SOL    HW1   19   5.889   0.884   0.931  0.1560  2.3264 -0.8443
32077SOL    HW2   20   5.787   0.790   0.870 -2.0549  1.2851  4.0345
32078SOL     OW   21   2.332   6.821   1.882  0.7116  0.1273 -0.0970
32078SOL    HW1   22   2.262   6.795   1.823  0.2857  0.6336  0.1772
32078SOL    HW2   23   2.386   6.743   1.891 -0.9616 -0.9480  1.3425
32079SOL     OW   24   8.745   0.941   5.510  0.4418 -0.7135  0.2073
32079SOL    HW1   25   8.697   0.952   5.592  0.6154  1.1978  0.0937
32079SOL    HW2   26   8.721   0.853   5.480  0.6742 -1.6242  2.4690
32080SOL     OW   27   2.138   1.304   3.995  0.4135  0.2851 -0.1450
32080SOL    HW1   28   2.129   1.270   3.906 -0.1538 -1.2552  0.4714
32080SOL    HW2   29   2.191   1.383   3.985  2.4606 -1.1686 -1.5515
32081SOL     OW   30   9.195   8.564   9.028  0.3018  0.3055 -0.0785
32081SOL    HW1   31   9.111   8.518   9.028  0.6496 -0.3505  1.0118
32081SOL    HW2   32   9.172   8.655   9.046 -0.0304 -0.2237  2.5308
32082SOL     OW   33   0.274   1.171   6.349 -0.0159  0.3585  0.0924
32082SOL    HW1   34   0.292   1.223   6.271  1.0713 -2.2139 -1.4797
32082SOL    HW2   35   0.188   1.133   6.332  0.9344 -1.5366 -0.7004
32083SOL     OW   36   3.324   6.511  10.323  0.2845  0.4580  0.2803
32083SOL    HW1   37   3.252   6.460  10.286 -0.1700  2.5870 -2.1246
32083SOL    HW2   38   3.400   6.453  10.318 -0.5142 -0.5451 -0.7816
32084SOL     OW   39   0.332   1.810   7.417 -0.0439  0.1799  0.2261
32084SOL    HW1   40   0.409   1.790   7.471 -1.2606  0.8061  2.3194
32084SOL    HW2   41   0.344   1.902   7.392 -0.0983  0.2741  0.5401
32085SOL     OW   42   6.542   7.924   9.595  0.2203 -0.0041  0.7883
32085SOL    HW1   43   6.453   7.889   9.599  0.4983 -1.1587 -1.4628
32085SOL    HW2   44   6.533   8.016   9.620 -1.5627 -0.1651  0.8697
32086SOL     OW   45   8.284   5.818   1.860  0.1565 -0.3465  0.0522
32086SOL    HW1   46   8.288   5.797   1.767  1.6338 -0.6161  0.1521
32086SOL    HW2   47   8.278   5.733   1.903 -0.4139 -0.2271  0.2154
32087SOL     OW   48   5.358   4.125   2.747  0.7774 -0.2828 -0.0375
32087SOL    HW1   49   5.269   4.101   2.722  0.1817  1.1134  0.6142
32087SOL    HW2   50   5.365   4.218   2.724  1.1013  0.3725  2.3903
32088SOL     OW   51   9.616   4.044   2.015  0.2062  0.2647  0.2004
32088SOL    HW1   52   9.678   4.069   2.083 -0.6458  1.1263  0.6769
32088SOL    HW2   53   9.601   3.950   2.030 -0.7821  0.6665  1.8835
32089SOL     OW   54   7.431   1.730   0.669  0.1181  0.3474  0.0613
32089SOL    HW1   55   7.469   1.650   0.633  0.2638 -0.3235  1.6391
32089SOL    HW2   56   7.377   1.701   0.742 -0.3173  1.6409  0.2827
32090SOL     OW   57   4.167   8.142   7.645  0.1935 -0.1172  0.4167
32090SOL    HW1   58   4.180   8.061   7.595  0.5040  1.0587 -1.5320
32090SOL    HW2   59   4.234   8.202   7.610 -1.4181  1.6641  0.2305
32091SOL     OW   60   7.805   0.251   5.603  0.6484  0.0710  0.5933
32091SOL    HW1   61   7.794   0.272   5.510  2.1139 -0.5719  0.2560
32091SOL    HW2   62   7.839   0.332   5.642  0.2572  0.2664  0.5383
32092SOL     OW   63   6.684   9.429   6.163 -0.4872  0.1751 -0.1716
32092SOL    HW1   64   6.749   9.372   6.205 -1.7925  0.0071  1.7715
32092SOL    HW2   65   6.713   9.518   6.185 -1.4190  0.0819  1.6308
32093SOL     OW   66  10.078   4.312   2.974 -0.4284  0.1488 -0.7897
32093SOL    HW1   67  10.110   4.334   2.886  0.6738 -0.0069 -0.4486
32093SOL    HW2   68   9.984   4.324   2.969 -0.4235 -0.1611 -2.0928
32094SOL     OW   69   4.242   7.699   1.823 -0.7595 -0.0206 -0.3893
32094SOL    HW1   70   4.244   7.772   1.885  1.7412  0.2113 -0.6683
32094SOL    HW2   71   4.223   7.623   1.878 -2.2314  0.6285  0.0745
32095SOL     OW   72   6.975   6.303   6.662  0.2881 -0.1381 -0.0165
32095SOL    HW1   73   7.001   6.276   6.750  1.5846  0.1277 -0.2870
32095SOL    HW2   74   7.052   6.285   6.607  0.5228  2.1932 -0.5652
32096SOL     OW   75   8.047   8.307   3.670  0.1616  0.9279 -0.3310
32096SOL    HW1   76   8.059   8.262   3.587  0.0004  2.3758 -1.1766
32096SOL    HW2   77   8.123   8.282   3.722  0.8209  0.8274 -1.3080
32097SOL     OW   78   5.413   2.653   1.391 -0.1059 -0.0561  0.4459
32097SOL    HW1   79   5.433   2.571   1.345 -0.0849  0.4137 -0.4165
32097SOL    HW2   80   5.453   2.643   1.477  2.8799  0.3343 -0.7368
32098SOL     OW   81   0.331   6.485   5.802 -0.0226 -0.0537  0.3622
32098SOL    HW1   82   0.413   6.493   5.852  0.5241  0.9139 -0.6272
32098SOL    HW2   83   0.298   6.398   5.823  3.5353 -2.3892 -2.5213
32099SOL     OW   84  10.024   8.273   4.024 -0.1992  0.8017 -0.0788
32099SOL    HW1   85   9.955   8.207   4.020 -1.9261  2.5258 -4.2195
32099SOL    HW2   86   9.983   8.347   4.068  0.5694  0.4055  1.3733
32100SOL     OW   87   0.791   4.680   7.086  0.7354 -0.0219  0.6251
32100SOL    HW1   88   0.844   4.727   7.022  0.8672 -0.4774  0.3978
32100SOL    HW2   89   0.816   4.589   7.076 -0.1382 -0.2542  0.4686
32101SOL     OW   90   8.357   6.341   2.181 -0.4208  0.2602 -0.6457
32101SOL    HW1   91   8.346   6.359   2.087  1.9762  1.5965 -0.7336
32101SOL    HW2   92   8.362   6.428   2.221 -1.6018 -0.2978  0.7876
32102SOL     OW   93   7.142   0.096   2.142  0.3266  0.1586 -0.0189
32102SOL    HW1   94   7.159   0.169   2.201  0.6339  0.6999 -0.7551
32102SOL    HW2   95   7.119   0.137   2.059  5.2468 -0.3131 -2.0097
32103SOL     OW   96   0.091   3.626   8.918  0.4005 -0.4735  0.6332
32103SOL    HW1   97   0.084   3.551   8.977  0.0802 -1.4770 -0.6243
32103SOL    HW2   98   0.001   3.651   8.900  0.4963 -0.2418  0.4727
32104SOL     OW   99   3.769   4.970   4.379  0.3658 -0.2306  0.1859
32104SOL    HW1  100   3.777   4.921   4.297 -0.3335  0.3347 -0.2296
32104SOL    HW2  101   3.746   4.904   4.444  0.0601 -0.5618 -0.2482
32105SOL     OW  102   7.101   3.444   2.426 -0.0240 -0.1686 -0.1857
32105SOL    HW1  103   7.069   3.484   2.345 -1.1677  0.3910  0.5181
32105SOL    HW2  104   7.189   3.479   2.437 -1.5058  3.5699  1.2311
32106SOL     OW  105   6.642   7.885   6.553  0.3021  0.3088  0.0619
32106SOL    HW1  106   6.675   7.848   6.470  0.5386  0.9898 -0.1572
32106SOL    HW2  107   6.721   7.902   6.604  0.0845 -1.7435  1.1645
32107SOL     OW  108   5.526   9.922   3.189 -0.1922  0.4165  0.5067
32107SOL    HW1  109   5.547  10.013   3.167 -0.4960  0.0036 -1.7833
32107SOL    HW2  110   5.430   9.918   3.185 -0.1455 -0.1723 -0.2430
32108SOL     OW  111   9.281   9.256   2.287  0.2027  0.3036  0.5346
32108SOL    HW1  112   9.361   9.265   2.235 -0.2041  0.0219 -0.1526
32108SOL    HW2  113   9.312   9.248   2.377  1.0807 -1.9317  0.0919
32109SOL     OW  114   1.182   0.093  10.095  0.1718 -0.6116  0.2566
32109SOL    HW1  115   1.165   0.005  10.061  0.7289 -1.4640  2.0390
32109SOL    HW2  116   1.172   0.084  10.190 -0.5418  1.4537  0.4239
32110SOL     OW  117   5.869   6.228   5.807 -0.2527 -0.1399  0.0853
32110SOL    HW1  118   5.949   6.247   5.757 -1.8292  1.2220 -2.0821
32110SOL    HW2  119   5.868   6.132   5.814  0.6120 -0.3077 -1.5316
32111SOL     OW  120   5.978  10.340   0.802 -0.0320 -0.0449 -0.1131
32111SOL    HW1  121   6.012  10.312   0.717 -1.9439  1.1838 -1.3790
32111SOL    HW2  122   5.978  10.261   0.856 -0.5233 -1.3007 -1.8853
32112SOL     OW  123   1.500   2.982   3.033  0.1884  0.0216 -0.3997
32112SOL    HW1  124   1.414   2.978   3.075 -0.1669 -0.9369 -1.1739
32112SOL    HW2  125   1.561   3.000   3.105 -0.7645  1.9872 -0.0106
32113SOL     OW  126   4.416   8.170   0.027  0.5670 -0.4862  0.2961
32113SOL    HW1  127   4.504   8.207   0.013  0.2611 -0.3283 -1.4651
32113SOL    HW2  128   4.364   8.243   0.059  0.8216 -0.2933  0.2756
32114SOL     OW  129   5.359   0.245   9.078  0.7181  0.4807  0.3714
32114SOL    HW1  130   5.387   0.334   9.058  2.3232 -0.0068  0.3316
32114SOL    HW2  131   5.424   0.189   9.037 -1.1576 -0.7974 -1.0202
32115SOL     OW  132   0.666   8.791   8.680  0.0769 -0.6661 -0.1473
32115SOL    HW1  133   0.708   8.728   8.621  0.0654 -1.7965  1.0065
32115SOL    HW2  134   0.576   8.762   8.686  0.0326 -0.4543  0.2802
32116SOL     OW  135   8.231   8.132   2.108  0.1079  0.6790 -0.2253
32116SOL    HW1  136   8.151   8.183   2.093 -0.9139 -0.9060 -0.3560
32116SOL    HW2  137   8.251   8.146   2.200 -1.4285 -0.4087  0.3061
32117SOL     OW  138   6.741   9.464   0.363 -0.6983  0.1642  0.1268
32117SOL    HW1  139   6.804   9.516   0.313  0.3806 -1.8749 -0.7534
32117SOL    HW2  140   6.786   9.445   0.445 -1.1066  0.6164  0.4632
32118SOL     OW  141   8.053   7.001   5.963 -0.3025  0.1010 -0.2511
32118SOL    HW1  142   7.993   7.039   5.899 -1.2313  0.1702  0.6297
32118SOL    HW2  143   7.998   6.946   6.018  0.4194  0.2692  0.6672
32119SOL     OW  144   7.986   1.213   3.354  0.3973  0.4196 -0.3606
32119SOL    HW1  145   8.047   1.142   3.334  1.4688  1.5207 -1.1895
32119SOL    HW2  146   8.002   1.234   3.446 -0.0277 -0.4756 -0.0706
32120SOL     OW  147   6.808   2.466   8.092 -0.0605 -0.3261 -0.0382
32120SOL    HW1  148   6.729   2.493   8.140 -0.4805  0.7741 -1.2936
32120SOL    HW2  149   6.877   2.522   8.128 -0.4128  0.6312 -0.8065
32121SOL     OW  150   7.419   2.497   3.610  0.1505  0.7255 -0.1054
32121SOL    HW1  151   7.371   2.579   3.622 -1.2829 -0.0654 -0.1648
32121SOL    HW2  152   7.369   2.433   3.659  1.0889 -0.1835 -0.3031
32122SOL     OW  153   8.365   4.508   4.692 -0.3268 -0.2555 -0.5384
32122SOL    HW1  154   8.332   4.591   4.727 -1.0203  0.0287 -1.7976
32122SOL    HW2  155   8.289   4.470   4.647  0.2083 -1.1864 -0.6744
32123SOL     OW  156   3.166   2.855   0.671 -0.2893 -0.4354  0.5585
32123SOL    HW1  157   3.241   2.846   0.613 -0.0903  0.9867  0.5613
32123SOL    HW2  158   3.113   2.776   0.655 -0.5183  0.1390 -1.9474
32124SOL     OW  159   5.236   8.830   8.921  0.1661  0.6160 -0.1720
32124SOL    HW1  160   5.322   8.823   8.879  0.5497  0.4502  0.6209
32124SOL    HW2  161   5.218   8.743   8.955  0.9757  1.2479  2.0886
32125SOL     OW  162   7.593   5.695  10.277 -0.7868 -0.1556  0.2694
32125SOL    HW1  163   7.578   5.610  10.318 -0.6107 -1.0128 -1.3748
32125SOL    HW2  164   7.517   5.709  10.221 -1.4217  1.3798  1.4209
32126SOL     OW  165   0.567   4.127   0.280  0.2724 -0.1658  0.5141
32126SOL    HW1  166   0.601   4.168   0.360 -1.8486  0.0673  1.3506
32126SOL    HW2  167   0.548   4.037   0.305 -1.8869  0.3076  0.8110
32127SOL     OW  168   5.399   3.280   3.924 -0.2994 -0.0005  0.1836
32127SOL    HW1  169   5.430   3.253   4.010  1.8087 -0.2449 -0.5811
32127SOL    HW2  170   5.355   3.202   3.889  0.0402 -0.3501  0.5244
32128SOL     OW  171   3.306   5.741   5.705 -0.2376  0.4580 -0.2575
32128SOL    HW1  172   3.329   5.657   5.744  0.3295  1.5090  1.8042
32128SOL    HW2  173   3.383   5.796   5.717 -0.0823  0.9345 -2.8042
32129SOL     OW  174   5.315   3.127   6.560  0.4817  0.0783  0.1736
32129SOL    HW1  175   5.227   3.093   6.548 -0.1374  2.2330 -2.5650
32129SOL    HW2  176   5.366   3.085   6.490  0.7534  1.3405 -0.4183
32130SOL     OW  177   1.293   4.182   9.427  0.6699  0.6880 -0.2267
32130SOL    HW1  178   1.225   4.201   9.491  1.1308 -0.7088  0.7216
32130SOL    HW2  179   1.246   4.156   9.348  0.0826  2.9930 -0.7167
32131SOL     OW  180   9.680   6.342   5.794 -0.0837 -0.0681 -0.3726
32131SOL    HW1  181   9.721   6.302   5.717  0.1158 -0.5896  0.0048
32131SOL    HW2  182   9.683   6.436   5.776 -2.3286 -0.2313 -2.2024
32132SOL     OW  183   7.634   7.989   9.749 -0.3142 -0.3275  0.0286
32132SOL    HW1  184   7.559   8.020   9.801 -0.0605  0.3155  0.0150
32132SOL    HW2  185   7.673   8.069   9.714 -0.8902 -0.7705 -1.7415
32133SOL     OW  186   4.421   1.793   8.349  0.3873  0.4809 -0.1168
32133SOL    HW1  187   4.507   1.784   8.389  0.0655  0.4403  0.5714
32133SOL    HW2  188   4.419   1.725   8.281 -0.5508 -2.2082  2.4084
32134SOL     OW  189   6.259   5.478   4.040  0.0538  0.3971  0.2631
32134SOL    HW1  190   6.231   5.470   3.949  0.0012  0.6849  0.2524
32134SOL    HW2  191   6.330   5.415   4.049 -0.3682 -0.0865  0.1994
32135SOL     OW  192   4.132   2.017   8.057 -0.4689 -0.0346 -0.3395
32135SOL    HW1  193   4.163   1.991   8.144 -0.0634 -0.3178 -0.5704
32135SOL    HW2  194   4.039   1.995   8.058 -0.1845 -1.2635 -0.4446
32136SOL     OW  195  10.046   6.910   1.115 -0.2934  0.3883  0.7825
32136SOL    HW1  196  10.074   6.874   1.199  1.2412  0.9911  0.5758
32136SOL    HW2  197  10.061   7.004   1.123 -0.5301  0.5011 -0.0062
32137SOL     OW  198   1.603   9.609   7.825  0.3249  0.5480 -0.4211
32137SOL    HW1  199   1.673   9.543   7.827  0.5429  0.7863  0.7908
32137SOL    HW2  200   1.614   9.658   7.907 -1.6789  0.1672  0.1251
32138SOL     OW  201   3.380   8.243   5.070 -0.2751 -0.1541  0.3676
32138SOL    HW1  202   3.294   8.281   5.050  0.3791  2.2317  1.6859
32138SOL    HW2  203   3.377   8.226   5.164  0.2617 -1.2863  0.1896
32139SOL     OW  204   8.552   3.380   2.138 -0.2779 -0.2824  0.3646
32139SOL    HW1  205   8.620   3.416   2.082  0.5739 -1.6392  0.4950
32139SOL    HW2  206   8.501   3.457   2.166  0.7025  0.6614 -0.3722
32140SOL     OW  207   9.475   3.071   4.899 -0.3411  0.1631  0.2916
32140SOL    HW1  208   9.544   3.046   4.960  2.3042  1.4152 -1.9474
32140SOL    HW2  209   9.460   2.992   4.845  0.5790  0.3486 -0.2556
32141SOL     OW  210   9.745   2.094   8.442 -0.3363  0.3325  0.7026
32141SOL    HW1  211   9.826   2.143   8.428 -0.9245  0.6926 -1.9051
32141SOL    HW2  212   9.709   2.129   8.523  2.2166 -0.0458  2.1156
32142SOL     OW  213   0.186   5.152   9.721 -0.1643  0.0097 -0.2207
32142SOL    HW1  214   0.150   5.199   9.797 -0.6116 -1.2411  0.3567
32142SOL    HW2  215   0.183   5.216   9.650  1.2350  1.5733  1.0329
32143SOL     OW  216   9.336   3.064   8.513 -0.2331  0.5703 -0.3422
32143SOL    HW1  217   9.256   3.075   8.565 -0.1467 -2.9547  0.7798
32143SOL    HW2  218   9.306   3.036   8.427 -0.2534 -0.5604  0.0197
32144SOL     OW  219   4.035   8.819   9.388  0.1232  0.4806 -0.3458
32144SOL    HW1  220   4.008   8.911   9.391 -3.5195 -0.3101 -2.7001
32144SOL    HW2  221   3.994   8.780   9.465  0.7841  0.5928  0.0721
32145SOL     OW  222   2.906   5.980   3.875  0.3703 -0.3135 -0.1749
32145SOL    HW1  223   2.869   6.067   3.862 -1.1953 -0.4714  2.5113
32145SOL    HW2  224   2.845   5.921   3.832  0.4064 -0.2135 -0.3634
32146SOL     OW  225   9.473   0.298   1.521  0.4108  0.2200 -0.6681
32146SOL    HW1  226   9.388   0.254   1.514 -0.1827  0.7551  2.1170
32146SOL    HW2  227   9.466   0.372   1.461 -0.4081 -0.6700 -1.7350
32147SOL     OW  228   8.469  10.013   7.392  0.6614 -0.0356 -0.3076
32147SOL    HW1  229   8.452   9.982   7.302  1.1689 -0.6161 -0.2091
32147SOL    HW2  230   8.494  10.104   7.381 -0.9570  0.4101 -0.6036
32148SOL     OW  231   1.892   5.778   9.452 -0.4132 -0.2376  0.8525
32148SOL    HW1  232   1.806   5.785   9.494 -0.8288 -0.6505  0.0857
32148SOL    HW2  233   1.918   5.687   9.465 -0.7859 -0.5113 -0.2290
32149SOL     OW  234   2.045   9.261   6.504 -0.3275  0.0181 -0.0816
32149SOL    HW1  235   2.137   9.265   6.477 -0.4001  1.2611 -0.2204
32149SOL    HW2  236   2.026   9.168   6.513  1.9132 -0.3049  3.1704
32150SOL     OW  237   2.018   4.684   4.708  0.1766 -0.4341 -0.2185
32150SOL    HW1  238   2.091   4.631   4.675  0.8894 -0.1728  0.8589
32150SOL    HW2  239   2.052   4.723   4.789 -1.0009  0.0950  0.0436
32151SOL     OW  240   0.667   7.647   2.230 -0.1202 -0.4746 -0.3353
32151SOL    HW1  241   0.762   7.643   2.223 -0.1803  0.5724 -2.7296
32151SOL    HW2  242   0.650   7.667   2.322  1.9198 -1.3931  0.2986
32152SOL     OW  243   6.684   4.104   5.505  0.3589  0.5401 -0.5455
32152SOL    HW1  244   6.605   4.131   5.457  0.5776  0.5781 -0.8832
32152SOL    HW2  245   6.672   4.141   5.593  0.0138  0.5681 -0.6006
32153SOL     OW  246   8.832   0.812   3.664  0.2491 -0.9772 -0.4511
32153SOL    HW1  247   8.828   0.852   3.577 -0.8791 -0.5029 -0.2044
32153SOL    HW2  248   8.880   0.731   3.651 -0.7775 -1.4092 -1.7325
32154SOL     OW  249   8.998   9.283   4.162 -0.1789 -0.3353  0.0445
32154SOL    HW1  250   9.003   9.364   4.213 -0.2954 -0.9071  0.9945
32154SOL    HW2  251   8.960   9.310   4.078 -0.5855  0.5273  0.4896
32155SOL     OW  252   5.210   2.026   7.639  0.3379 -0.4221 -0.3707
32155SOL    HW1  253   5.245   2.084   7.707  0.4126 -1.5764  0.6186
32155SOL    HW2  254   5.154   2.082   7.586  2.4855  1.1737 -1.1129
32156SOL     OW  255   3.831   0.119   8.928 -0.0871 -0.1558 -0.1497
32156SOL    HW1  256   3.832   0.202   8.880 -2.0178 -0.5059 -0.8658
32156SOL    HW2  257   3.858   0.054   8.863 -1.1845 -0.4219 -0.3564
32157SOL     OW  258   0.974   9.776   7.361 -0.4021 -0.0904  0.1309
32157SOL    HW1  259   1.048   9.819   7.404  0.1249  1.1495 -1.8713
32157SOL    HW2  260   0.976   9.686   7.394  1.1696  0.2682  1.1296
32158SOL     OW  261   1.817   2.830   3.556 -0.1312 -0.2697  0.1549
32158SOL    HW1  262   1.743   2.858   3.609 -0.3031 -0.6832  0.1423
32158SOL    HW2  263   1.861   2.764   3.610  1.7446  1.7556  1.2793
32159SOL     OW  264   2.508   1.882   6.733  0.8425  0.1778 -0.0635
32159SOL    HW1  265   2.595   1.853   6.760  0.5110 -1.4018 -0.5917
32159SOL    HW2  266   2.450   1.810   6.757 -0.3394  1.2356  0.3304
32160SOL     OW  267   2.369   6.765   2.660 -0.4001 -0.0679  0.2412
32160SOL    HW1  268   2.358   6.795   2.750  0.3861 -0.4440  0.4734
32160SOL    HW2  269   2.453   6.802   2.633 -1.0640  0.8138 -0.6677
32161SOL     OW  270   6.120   4.282   3.101  0.8882  0.5032  0.4258
32161SOL    HW1  271   6.103   4.192   3.129  0.5153  0.3829 -0.1614
32161SOL    HW2  272   6.162   4.273   3.015 -0.3259  0.8970 -0.2386
32162SOL     OW  273   7.447   7.623   5.987  0.6618 -0.2749  0.4373
32162SOL    HW1  274   7.535   7.652   5.962 -0.3036  2.7012  0.0732
32162SOL    HW2  275   7.461   7.544   6.040  3.4549 -0.3461 -0.2735
32163SOL     OW  276  10.122   1.895   0.328 -0.1690  0.0511 -0.0666
32163SOL    HW1  277  10.200   1.842   0.345  0.2771  0.2588 -1.3468
32163SOL    HW2  278  10.051   1.849   0.373  0.6095 -0.3825  0.7414
32164SOL     OW  279   6.364   1.447   7.649 -0.5174 -0.3201 -0.2287
32164SOL    HW1  280   6.374   1.400   7.567  1.9365 -0.8480  0.3019
32164SOL    HW2  281   6.452   1.475   7.672 -1.4866  2.0486  0.9705
32165SOL     OW  282   6.721   2.741   6.525 -0.0746  0.3032 -0.3115
32165SOL    HW1  283   6.646   2.778   6.477  0.9040  1.9872 -0.6388
32165SOL    HW2  284   6.795   2.796   6.499  0.9728 -0.3032  1.2489
32166SOL     OW  285   4.846   9.271   9.430 -0.4151 -0.0802  0.5170
32166SOL    HW1  286   4.859   9.267   9.525 -0.9022  0.0983  0.5948
32166SOL    HW2  287   4.759   9.234   9.416  0.2421 -1.4942 -0.0181
32167SOL     OW  288   2.858   7.675   2.364  0.0689  0.3916  0.4723
32167SOL    HW1  289   2.787   7.665   2.428 -0.3863 -0.5912 -0.1737
32167SOL    HW2  290   2.881   7.768   2.369 -1.7148  0.8875  0.2279
32168SOL     OW  291   4.310   5.340   7.539  0.1632 -0.8269 -0.3970
32168SOL    HW1  292   4.382   5.292   7.579 -1.2755 -1.6929  1.2908
32168SOL    HW2  293   4.284   5.404   7.605 -1.0087 -0.9631 -0.6965
32169SOL     OW  294   6.892   2.282   9.242 -0.0505  0.0035  0.3169
32169SOL    HW1  295   6.971   2.335   9.243  1.5172 -2.1839  0.1065
32169SOL    HW2  296   6.890   2.243   9.154 -0.0661 -1.7587  1.0621
32170SOL     OW  297   6.669   8.385   6.215 -0.4654 -0.1172  0.0480
32170SOL    HW1  298   6.675   8.336   6.297 -0.1931 -0.9879 -0.4749
32170SOL    HW2  299   6.718   8.331   6.152  1.3825  1.6852 -0.1584
32171SOL     OW  300   6.021   4.425   7.385 -0.3365 -0.0693  0.4426
32171SOL    HW1  301   5.978   4.507   7.359  2.0957  0.6405 -1.7440
32171SOL    HW2  302   6.084   4.407   7.315 -0.0211 -3.2829  1.3900
32172SOL     OW  303   1.835   8.353   8.358  0.6990 -0.0057  0.1585
32172SOL    HW1  304   1.793   8.341   8.444 -1.2165  0.5282 -0.6395
32172SOL    HW2  305   1.798   8.435   8.326  1.1555 -0.3557 -1.3061
32173SOL     OW  306   6.874   7.192   5.628  0.1584  0.2059 -0.1939
32173SOL    HW1  307   6.903   7.253   5.696  0.0184 -0.3593  0.3825
32173SOL    HW2  308   6.782   7.213   5.615  0.4819  1.1614 -1.1312
32174SOL     OW  309   0.125   8.890   7.473  0.5344 -0.6840 -0.5032
32174SOL    HW1  310   0.162   8.877   7.386  1.1171 -0.5432 -0.2767
32174SOL    HW2  311   0.030   8.887   7.459  0.5816 -3.4015 -0.7496
32175SOL     OW  312   4.925   9.793   3.254  0.6185 -0.4616 -0.6136
32175SOL    HW1  313   4.975   9.796   3.336 -0.3724  1.1135 -0.0359
32175SOL    HW2  314   4.852   9.735   3.273  0.5691 -0.3583 -0.4831
32176SOL     OW  315   0.860   9.298   3.395 -0.2300  0.3701 -0.4058
32176SOL    HW1  316   0.902   9.356   3.460 -2.6504  2.0152 -0.1831
32176SOL    HW2  317   0.926   9.231   3.379  2.3143  2.4869  0.2282
32177SOL     OW  318   3.512   6.812   3.178  0.0790  0.1677 -0.0003
32177SOL    HW1  319   3.590   6.807   3.233  0.6396  0.3905 -0.7431
32177SOL    HW2  320   3.459   6.882   3.217  0.7381  0.7216 -0.0661
32178SOL     OW  321   6.179   5.165   2.485  0.3984 -0.4596  0.2894
32178SOL    HW1  322   6.156   5.256   2.469  2.1316  0.0835  0.6777
32178SOL    HW2  323   6.223   5.137   2.404 -2.3268 -1.7950 -0.8530
32179SOL     OW  324   5.729   1.814   6.310  0.0011  0.7017 -0.1208
32179SOL    HW1  325   5.763   1.727   6.327 -0.4326  0.7502  1.1125
32179SOL    HW2  326   5.647   1.818   6.360 -0.6042  1.3990 -1.1264
32180SOL     OW  327   0.423   6.621   6.506 -0.0327 -0.5423  0.0892
32180SOL    HW1  328   0.368   6.677   6.452 -0.9615 -0.4910  1.0594
32180SOL    HW2  329   0.455   6.678   6.576 -0.6689 -1.1194  0.8638
32181SOL     OW  330   0.300   8.035   5.754 -0.1003 -0.1117 -0.0392
32181SOL    HW1  331   0.383   8.056   5.798 -0.2154  1.5926 -0.5845
32181SOL    HW2  332   0.326   7.978   5.682  0.6331  0.5770 -0.3333
32182SOL     OW  333   3.083   4.429   7.794 -0.4185  0.1310 -0.1653
32182SOL    HW1  334   3.088   4.483   7.873 -1.8224 -0.2285  0.2018
32182SOL    HW2  335   3.102   4.341   7.824  1.0452  0.2734 -0.6142
32183SOL     OW  336   9.325   5.310   3.211 -0.2817 -0.1756 -0.4684
32183SOL    HW1  337   9.328   5.399   3.246  1.6803 -0.2113 -0.4366
32183SOL    HW2  338   9.246   5.272   3.249  0.2383  0.7047  1.6229
32184SOL     OW  339   0.576   8.358   1.990 -0.6445 -0.1202 -0.1468
32184SOL    HW1  340   0.665   8.347   1.957  0.2025  0.4735  1.7394
32184SOL    HW2  341   0.577   8.446   2.030 -1.5483 -0.7568  1.3580
32185SOL     OW  342   4.084   6.870   8.831  0.5868  0.3994  0.1784
32185SOL    HW1  343   4.031   6.950   8.830  1.1513  0.7817 -1.1407
32185SOL    HW2  344   4.030   6.805   8.786  0.8464  0.5313 -0.3275
32186SOL     OW  345   5.044   2.634   2.920 -0.0218  0.3307  0.2347
32186SOL    HW1  346   5.004   2.551   2.894 -0.4422  0.3652  0.7465
32186SOL    HW2  347   4.980   2.700   2.894 -0.6336  0.3396  1.6717
32187SOL     OW  348   8.183   0.247   6.309 -1.0277  0.4823  0.1070
32187SOL    HW1  349   8.130   0.209   6.379 -3.3556  1.6004 -0.9162
32187SOL    HW2  350   8.167   0.342   6.316 -0.8314  0.6625 -1.5070
32188SOL     OW  351   3.287   7.723   7.419  0.6031  0.3153  0.1086
32188SOL    HW1  352   3.248   7.725   7.507  0.4433  0.1387  0.0414
32188SOL    HW2  353   3.218   7.757   7.362  0.3689 -0.4636 -0.0802
32189SOL     OW  354   6.308   7.502   6.630 -0.2076 -0.0417  0.1419
32189SOL    HW1  355   6.377   7.552   6.674 -1.3401  0.0477  1.9379
32189SOL    HW2  356   6.344   7.483   6.543  2.1826 -0.2727  1.0982
32190SOL     OW  357   8.076   0.712   8.721 -0.3333  0.6579  0.7877
32190SOL    HW1  358   8.090   0.747   8.809  1.1948 -0.0108  0.8465
32190SOL    HW2  359   8.156   0.663   8.701 -0.1743  1.6898 -1.4132
32191SOL     OW  360   6.046   9.197  10.137 -0.0609  0.2845 -0.0524
32191SOL    HW1  361   6.063   9.163  10.049  1.4054  2.6334 -0.7734
32191SOL    HW2  362   6.130   9.191  10.182 -0.0011  1.8485  0.1172
32192SOL     OW  363   8.580   5.246   8.863 -0.6241  0.2676 -0.0200
32192SOL    HW1  364   8.544   5.307   8.926  0.3365  2.1511 -1.2000
32192SOL    HW2  365   8.571   5.290   8.778  1.6125 -0.4538 -0.7179
32193SOL     OW  366   8.936   3.138   7.690 -0.3208  0.0082 -0.1097
32193SOL    HW1  367   8.954   3.123   7.597  1.0668 -0.7148  0.2396
32193SOL    HW2  368   8.901   3.054   7.721 -0.3258  0.0955  0.1226
32194SOL     OW  369   6.013   7.122   3.998 -0.0346 -0.2832  0.3610
32194SOL    HW1  370   6.097   7.089   4.029  0.4842 -0.0227 -0.7103
32194SOL    HW2  371   5.999   7.202   4.049  0.0202 -0.6837  1.0261
32195SOL     OW  372   5.107   5.602   8.838 -0.2617 -0.2566 -0.0436
32195SOL    HW1  373   5.198   5.572   8.837 -0.1916 -0.1128 -2.2080
32195SOL    HW2  374   5.113   5.694   8.862  0.0449 -0.5378  0.9900
32196SOL     OW  375   0.986   4.196   1.429  0.4434 -0.0317  0.1130
32196SOL    HW1  376   0.975   4.101   1.427  1.9123 -0.2402 -2.1686
32196SOL    HW2  377   1.020   4.217   1.342  2.6114  2.2679  1.3984
32197SOL     OW  378   0.657   7.445   2.629 -0.3802 -0.1364  0.0371
32197SOL    HW1  379   0.649   7.499   2.708  0.5829 -0.0590  0.0965
32197SOL    HW2  380   0.572   7.453   2.586 -0.7041  0.3414  0.7330
32198SOL     OW  381   2.548   5.023   4.947 -0.3720  0.1824  0.3996
32198SOL    HW1  382   2.533   4.929   4.935  0.3596 -0.0718  1.4354
32198SOL    HW2  383   2.512   5.042   5.034 -0.5953  0.8909  0.1608
32199SOL     OW  384   2.653   0.944   0.602  0.0260  0.0646  0.2128
32199SOL    HW1  385   2.654   1.017   0.664 -1.9315 -0.5346  1.0519
32199SOL    HW2  386   2.612   0.873   0.651  1.0881 -1.3280 -0.8754
32200SOL     OW  387   7.646   3.794  10.011  0.3602  0.1501 -0.2759
32200SOL    HW1  388   7.613   3.765  10.096  3.3041  0.6571  1.2064
32200SOL    HW2  389   7.684   3.715   9.972 -2.3927 -0.4485 -1.9883
32201SOL     OW  390   1.076   7.840   5.702  0.2355  0.3316 -0.4291
32201SOL    HW1  391   1.081   7.760   5.755  0.4730  0.5825 -0.0706
32201SOL    HW2  392   0.991   7.834   5.658  0.4454 -0.3339 -0.7510
32202SOL     OW  393   9.274   9.859   1.288  0.3792  0.4130 -0.1716
32202SOL    HW1  394   9.247   9.873   1.197  0.5445  0.4468 -0.2169
32202SOL    HW2  395   9.274   9.947   1.327  1.2312  0.5293 -0.4034
32203SOL     OW  396   3.689   4.826   9.304  0.3322  1.0789  0.3323
32203SOL    HW1  397   3.765   4.852   9.252  1.4826 -0.8931  0.8909
32203SOL    HW2  398   3.635   4.774   9.244  0.7417  0.3274  0.6047
32204SOL     OW  399   1.486   3.192   1.362  0.6476  0.3698  0.0134
32204SOL    HW1  400   1.545   3.172   1.289 -0.0094 -0.4194 -0.3152
32204SOL    HW2  401   1.538   3.174   1.440  1.4051  1.3603 -0.2346
32205SOL     OW  402   0.893   4.479   5.199 -0.1495  0.1420  0.0703
32205SOL    HW1  403   0.903   4.488   5.294 -0.0542 -0.2099  0.0925
32205SOL    HW2  404   0.829   4.547   5.176 -0.1995  0.2070  0.3912
32206SOL     OW  405  10.004   5.682   1.891 -0.1436  0.3094 -0.7144
32206SOL    HW1  406   9.936   5.624   1.857  0.2255  0.3974 -1.6237
32206SOL    HW2  407  10.067   5.624   1.933  0.7936 -0.0845 -2.5873
32207SOL     OW  408   8.577  10.269   1.172  0.5845  1.1916 -0.3904
32207SOL    HW1  409   8.530  10.224   1.242  2.5695  0.1563  0.3636
32207SOL    HW2  410   8.637  10.329   1.218 -0.0585  2.6000 -1.3141
32208SOL     OW  411   1.634   6.556   3.420  0.0072 -0.1693  0.1213
32208SOL    HW1  412   1.715   6.536   3.373  0.0216  0.3873 -0.0889
32208SOL    HW2  413   1.663   6.596   3.502  0.0173 -1.8502  0.9940
32209SOL     OW  414   3.246   9.519   3.889  0.5041 -0.2972  0.1585
32209SOL    HW1  415   3.223   9.611   3.905 -0.7693 -0.6756  0.6040
32209SOL    HW2  416   3.232   9.475   3.972 -0.6384 -1.2121 -0.4776
32210SOL     OW  417   8.927   8.626   0.156  0.0102 -0.0800  0.2395
32210SOL    HW1  418   8.931   8.620   0.060  0.0304 -0.3434  0.2534
32210SOL    HW2  419   8.994   8.564   0.186  0.9787  1.0104  0.4127
32211SOL     OW  420   1.259   4.772   6.811  0.2575 -0.1397  0.4305
32211SOL    HW1  421   1.336   4.715   6.797 -0.1522 -0.5911 -0.0675
32211SOL    HW2  422   1.256   4.827   6.732  0.7816  0.7402  1.0136
32212SOL     OW  423   7.594   8.915   0.676 -0.1090  0.0344  0.0215
32212SOL    HW1  424   7.533   8.867   0.620 -0.0547 -0.9738  0.8016
32212SOL    HW2  425   7.637   8.977   0.617  0.0158 -1.0574 -1.0659
32213SOL     OW  426   8.456   9.228   4.660 -0.4035 -0.1267  0.0550
32213SOL    HW1  427   8.393   9.181   4.716 -1.3436  1.4210  0.3402
32213SOL    HW2  428   8.446   9.320   4.684  1.4440  0.2384 -0.4528
32214SOL     OW  429   2.395   7.450   1.655  0.2043  0.0229 -0.1941
32214SOL    HW1  430   2.334   7.446   1.581 -0.8247 -0.0680  0.6250
32214SOL    HW2  431   2.463   7.386   1.633 -0.1367 -0.0752 -1.0124
32215SOL     OW  432   4.505   9.771   7.859  0.1728 -0.2025 -0.0093
32215SOL    HW1  433   4.459   9.855   7.860 -0.4242 -0.5243  0.9411
32215SOL    HW2  434   4.438   9.707   7.836  0.0730 -0.7006  1.5486
32216SOL     OW  435   3.840   9.029   2.612 -0.0769  0.1323 -0.1535
32216SOL    HW1  436   3.869   9.077   2.689  1.3952  0.1283 -0.6753
32216SOL    HW2  437   3.760   9.074   2.584  1.1208  2.1765 -0.4984
32217SOL     OW  438   2.067   7.920   6.751 -0.4630 -0.0569 -0.8662
32217SOL    HW1  439   2.092   7.978   6.679  1.8554 -0.2170 -0.2563
32217SOL    HW2  440   2.045   7.978   6.823  0.1779  0.0848 -0.7836
32218SOL     OW  441   4.014   0.317   0.311  0.0583 -0.0363 -0.0106
32218SOL    HW1  442   4.103   0.313   0.345  0.1138 -1.4980 -0.2739
32218SOL    HW2  443   3.960   0.343   0.387  0.5459 -0.4072  0.4702
32219SOL     OW  444   5.921   1.129   8.131  0.4226 -0.4877 -0.1031
32219SOL    HW1  445   5.903   1.175   8.049  0.2613 -0.9374 -0.3212
32219SOL    HW2  446   5.835   1.096   8.160  0.3004  0.5075  0.7661
32220SOL     OW  447   3.344   4.353   8.007 -0.7092 -0.4535 -0.0397
32220SOL    HW1  448   3.356   4.435   8.056  2.3459 -1.2092  0.6764
32220SOL    HW2  449   3.345   4.380   7.915 -1.5317  0.4642  0.1966
32221SOL     OW  450   6.474   5.243   3.309 -0.2625 -0.8158 -0.0815
32221SOL    HW1  451   6.392   5.281   3.342 -0.8625 -1.1964 -1.0914
32221SOL    HW2  452   6.446   5.184   3.239  1.0056  0.4797 -1.7652
32222SOL     OW  453   8.324   9.721   9.557 -0.3810  0.4511 -0.1533
32222SOL    HW1  454   8.258   9.677   9.503 -0.6669  1.2487 -0.4800
32222SOL    HW2  455   8.293   9.812   9.562  0.9269  0.9443 -0.6779
32223SOL     OW  456   4.811   2.359   7.445  0.2777  0.4030  0.4046
32223SOL    HW1  457   4.789   2.384   7.534  0.7508  1.2470  0.3017
32223SOL    HW2  458   4.742   2.298   7.418 -0.0363  0.3898  1.2316
32224SOL     OW  459   0.127   1.028   8.416  0.5935 -0.1583  0.0913
32224SOL    HW1  460   0.168   0.941   8.424  1.7393  0.1068 -2.0113
32224SOL    HW2  461   0.199   1.089   8.432 -0.2638  0.4748  1.8282
32225SOL     OW  462   4.721   5.872   9.972  0.3334 -0.0377  0.3978
32225SOL    HW1  463   4.738   5.922  10.051  1.5700 -1.5337  1.1218
32225SOL    HW2  464   4.626   5.855   9.974  0.1123  1.1255  0.7824
32226SOL     OW  465   8.661  10.265  10.073  0.2856  0.0120 -0.2535
32226SOL    HW1  466   8.650  10.190  10.015 -0.8812  0.5881 -0.8069
32226SOL    HW2  467   8.597  10.329  10.043  1.6398  1.4825 -0.1606
32227SOL     OW  468   3.487   5.555   2.458  0.1851 -0.8542  0.0938
32227SOL    HW1  469   3.422   5.518   2.518 -0.9052 -0.9371 -1.0865
32227SOL    HW2  470   3.467   5.649   2.455 -0.1579 -0.9389 -0.5679
32228SOL     OW  471   6.247   0.778   3.916  0.2548  0.7658  0.2134
32228SOL    HW1  472   6.220   0.837   3.846 -1.2647  0.5270  0.5620
32228SOL    HW2  473   6.165   0.742   3.950  1.0268  0.0528  1.3957
32229SOL     OW  474   5.512   2.834   4.835  0.4491 -0.1559  0.3850
32229SOL    HW1  475   5.498   2.794   4.750  0.6711 -0.9006  0.6950
32229SOL    HW2  476   5.436   2.810   4.887  0.3721  0.1963  0.4418
32230SOL     OW  477   5.694   5.061   0.241  0.3651  0.2545  0.1271
32230SOL    HW1  478   5.600   5.073   0.252  0.5576  1.5085  0.5957
32230SOL    HW2  479   5.706   5.048   0.146 -0.3698 -1.0570  0.1925
32231SOL     OW  480   2.318   3.393   8.415 -0.4860 -0.6413 -0.1163
32231SOL    HW1  481   2.322   3.447   8.494  0.6593 -0.2541 -0.4256
32231SOL    HW2  482   2.225   3.378   8.401 -0.7328 -0.2043  0.9604
32232SOL     OW  483   7.203   1.156   7.478  0.1300  0.2551 -0.2522
32232SOL    HW1  484   7.225   1.112   7.395  0.4544  0.0800 -0.0758
32232SOL    HW2  485   7.229   1.093   7.546  2.2237  1.3691  0.0776
32233SOL     OW  486   5.415   7.729   1.809  0.2981  0.4119  0.6841
32233SOL    HW1  487   5.477   7.702   1.742  0.0980  1.1368  0.1950
32233SOL    HW2  488   5.355   7.788   1.763 -1.3000 -0.9441  0.9010
32234SOL     OW  489   7.050   4.940   8.657 -0.1368  0.5026 -0.2886
32234SOL    HW1  490   7.139   4.908   8.642 -0.4955 -0.1200 -1.1891
32234SOL    HW2  491   6.994   4.864   8.643 -0.9224  1.2254 -1.2322
32235SOL     OW  492   9.827   4.500   1.167  0.6601  0.6705 -0.1818
32235SOL    HW1  493   9.872   4.573   1.210  0.6816  1.2558 -1.1472
32235SOL    HW2  494   9.844   4.424   1.222  1.4977  1.2019  0.3063
32236SOL     OW  495   2.966  10.052   4.582 -0.0229 -0.2989  0.2680
32236SOL    HW1  496   2.872  10.054   4.566  0.1783  1.0359 -0.9295
32236SOL    HW2  497   2.979  10.111   4.657  0.0999  1.6750 -1.2306
32237SOL     OW  498   8.313   0.506   5.198  0.5266 -0.3108  0.6059
32237SOL    HW1  499   8.348   0.586   5.159  0.3517 -0.5892 -0.1397
32237SOL    HW2  500   8.222   0.526   5.218  0.2416 -0.5884 -0.3769
32238SOL     OW  501   9.398   7.964   5.324 -0.3488  0.2949  0.0522
32238SOL    HW1  502   9.481   7.954   5.279 -0.0536  1.8596  0.1808
32238SOL    HW2  503   9.371   8.054   5.304 -2.3072 -0.3611 -0.4820
32239SOL     OW  504   0.752   0.125   1.471  0.3402 -0.0024 -0.2343
32239SOL    HW1  505   0.751   0.191   1.402  1.8966 -0.5304 -0.8076
32239SOL    HW2  506   0.688   0.156   1.535 -0.6488  0.8556 -1.5727
32240SOL     OW  507   6.856   1.640   5.498 -0.4342  0.0700 -0.0993
32240SOL    HW1  508   6.909   1.565   5.528  0.8557  0.7549 -0.5697
32240SOL    HW2  509   6.770   1.603   5.480  0.3754 -1.4765 -1.0650
32241SOL     OW  510   1.811   9.164   3.937  0.7686 -0.4889 -0.1334
32241SOL    HW1  511   1.855   9.103   3.996  0.4116 -0.7609 -0.1409
32241SOL    HW2  512   1.722   9.128   3.928  0.5076  0.1182 -0.0122
32242SOL     OW  513   4.033   1.088   7.969 -0.1227 -0.4022  0.4249
32242SOL    HW1  514   4.088   1.130   7.904  0.0814  0.2222  0.9999
32242SOL    HW2  515   4.063   0.997   7.971  0.3417 -0.2554  0.1589
32243SOL     OW  516   8.403   8.212  10.315  0.2964 -0.1515 -0.6482
32243SOL    HW1  517   8.386   8.153  10.388 -0.0699 -2.7039 -2.6420
32243SOL    HW2  518   8.322   8.262  10.305  0.8421  1.3096  1.4782
32244SOL     OW  519   0.746   2.499   0.900 -0.1081 -0.3121  0.2771
32244SOL    HW1  520   0.735   2.439   0.974 -0.0413 -1.3340 -0.5210
32244SOL    HW2  521   0.781   2.445   0.830 -0.6587  0.5250 -0.6776
32245SOL     OW  522   5.559  10.257   1.661 -0.0231 -0.6165 -0.0875
32245SOL    HW1  523   5.618  10.245   1.735  0.6058  2.0205 -0.0508
32245SOL    HW2  524   5.485  10.307   1.696  0.5983  1.2599 -1.2880
32246SOL     OW  525   4.236   7.187   9.534  0.3082 -0.7717 -0.1065
32246SOL    HW1  526   4.320   7.153   9.502  0.4466  0.3013 -0.9241
32246SOL    HW2  527   4.170   7.137   9.486  0.4792 -1.2353  0.1360
32247SOL     OW  528   8.235   1.958   6.931 -0.6485 -0.2005  0.0101
32247SOL    HW1  529   8.160   1.900   6.918 -1.0888  0.5044 -0.6403
32247SOL    HW2  530   8.282   1.919   7.005 -0.6445 -1.6822 -0.7297
32248SOL     OW  531   5.613   3.691   9.223  0.0602 -0.2195  0.0233
32248SOL    HW1  532   5.690   3.733   9.185  1.1848 -2.2409 -0.0480
32248SOL    HW2  533   5.648   3.633   9.291 -1.5971  0.4810  1.5636
32249SOL     OW  534   9.589   6.755   4.026  0.0615 -0.2503 -0.5904
32249SOL    HW1  535   9.682   6.738   4.011  0.8039  1.8807  1.0965
32249SOL    HW2  536   9.552   6.669   4.043  2.3077 -0.9263  1.5060
32250SOL     OW  537   4.897  10.259  10.182 -0.2103  0.0157  0.0440
32250SOL    HW1  538   4.841  10.249  10.259  0.8813 -0.3051  0.8179
32250SOL    HW2  539   4.966  10.194  10.194 -1.1703 -1.5462 -2.2778
32251SOL     OW  540   9.594   9.750   5.618 -0.4439  0.5689 -0.2423
32251SOL    HW1  541   9.577   9.674   5.673 -0.7789  1.3485  0.7635
32251SOL    HW2  542   9.522   9.751   5.555  0.9617 -1.4503 -2.0372
32252SOL     OW  543   1.405   3.315   3.252 -0.5567 -0.4294 -0.0695
32252SOL    HW1  544   1.341   3.252   3.284 -1.8516  0.6429 -0.4665
32252SOL    HW2  545   1.357   3.398   3.247  1.6523  1.2585  2.8757
32253SOL     OW  546   0.593   1.434  10.213 -0.4160  0.3138 -0.2126
32253SOL    HW1  547   0.509   1.427  10.258  0.1476  0.8166  0.9524
32253SOL    HW2  548   0.599   1.354  10.161 -1.8132  0.4866 -0.6899
32254SOL     OW  549   4.963   6.679   8.853  0.5839  0.6729 -0.1659
32254SOL    HW1  550   4.977   6.762   8.807  2.7877  1.1392  1.2246
32254SOL    HW2  551   5.045   6.632   8.843 -0.3658 -1.0641 -0.2695
32255SOL     OW  552   3.636   4.999   2.016 -0.4802  0.0068  0.2194
32255SOL    HW1  553   3.713   4.942   2.019 -0.0112  0.5132 -1.2614
32255SOL    HW2  554   3.579   4.959   1.952 -0.8813  0.3314  0.3691
32256SOL     OW  555   6.247  10.322   0.063  0.5047 -0.6344  0.2666
32256SOL    HW1  556   6.256  10.394   0.001  1.9318  0.3699  1.5418
32256SOL    HW2  557   6.238  10.365   0.148 -0.9112 -1.9702  0.8459
32257SOL     OW  558   6.797   6.471   7.376  0.7453 -0.6090  0.4387
32257SOL    HW1  559   6.731   6.489   7.443 -1.0676 -0.6949 -1.2471
32257SOL    HW2  560   6.781   6.381   7.349 -1.7199  0.7544 -3.3112
32258SOL     OW  561   9.883  10.024   8.881 -0.2179 -0.3185 -0.1405
32258SOL    HW1  562   9.845   9.952   8.830 -1.0165  1.7317 -2.6710
32258SOL    HW2  563   9.963  10.046   8.835 -1.2580  1.9781 -1.0002
32259SOL     OW  564   8.639   8.737  10.230 -0.2659 -0.4149 -0.3535
32259SOL    HW1  565   8.631   8.674  10.159  0.0391 -1.2398  0.3284
32259SOL    HW2  566   8.562   8.722  10.286 -1.7499  1.7631 -1.6530
32260SOL     OW  567   9.022   9.482   2.858  0.4300  0.0488  0.0991
32260SOL    HW1  568   9.050   9.428   2.932  0.0661 -0.3682 -0.0665
32260SOL    HW2  569   8.962   9.546   2.895  0.3284 -0.0955  0.1836
32261SOL     OW  570   3.270   5.516   1.978  0.5970 -0.3917  0.2270
32261SOL    HW1  571   3.225   5.551   2.055 -1.0184 -0.4096 -0.6769
32261SOL    HW2  572   3.323   5.444   2.013  1.1636  0.6100  1.5457
32262SOL     OW  573   9.383   5.432   4.082 -0.5543 -0.8317  0.2850
32262SOL    HW1  574   9.454   5.487   4.046  0.1693 -2.2634 -0.5605
32262SOL    HW2  575   9.303   5.481   4.062 -0.0112 -0.5583 -1.4339
32263SOL     OW  576   7.413   9.867   8.513  0.3916  0.2479  0.2048
32263SOL    HW1  577   7.385   9.782   8.547 -0.7591 -0.1663 -1.6309
32263SOL    HW2  578   7.477   9.845   8.444  0.2252  0.8660 -0.1567
32264SOL     OW  579  10.289   7.342   0.116 -0.4402  0.0213 -0.7318
32264SOL    HW1  580  10.249   7.273   0.169 -0.2118  0.0460 -0.5236
32264SOL    HW2  581  10.217   7.377   0.063 -0.2298 -1.5359 -2.1097
32265SOL     OW  582   5.809   3.621   2.215  0.5461  0.2808  0.4472
32265SOL    HW1  583   5.885   3.654   2.263  1.3031  0.2519 -0.6979
32265SOL    HW2  584   5.735   3.671   2.250  1.2515  1.0839  0.8211
32266SOL     OW  585   7.801   1.271   4.521  0.1580 -0.4853 -0.1119
32266SOL    HW1  586   7.752   1.191   4.500 -1.2950  0.0762  0.9632
32266SOL    HW2  587   7.753   1.340   4.476 -1.1182  0.3088  2.3214
32267SOL     OW  588   9.205   1.609   6.880 -0.1755 -0.4861 -0.2885
32267SOL    HW1  589   9.190   1.683   6.938 -3.8952 -1.0071 -0.3589
32267SOL    HW2  590   9.205   1.533   6.938  0.9732 -0.6683 -0.5037
32268SOL     OW  591   3.951   1.527   2.347  0.4774 -0.8808 -0.3487
32268SOL    HW1  592   3.973   1.458   2.285  0.2512 -1.1311 -0.1559
32268SOL    HW2  593   3.897   1.588   2.298  2.0987  0.0796 -1.0129
32269SOL     OW  594   9.613   3.676   3.066  0.0209  0.2324  0.3163
32269SOL    HW1  595   9.677   3.720   3.011 -2.0445 -0.8270 -3.2454
32269SOL    HW2  596   9.635   3.583   3.059 -0.7383  0.0204  0.6772
32270SOL     OW  597   7.647   8.557   9.571 -0.1006 -0.5417 -0.6293
32270SOL    HW1  598   7.570   8.522   9.527 -0.1468  1.8429 -2.6971
32270SOL    HW2  599   7.620   8.643   9.603  0.6580 -1.2226  2.0993
32271SOL     OW  600   9.967   9.929   7.579 -0.0815  0.0467  0.3093
32271SOL    HW1  601   9.966   9.933   7.675 -0.3686  1.2753  0.2653
32271SOL    HW2  602   9.984  10.019   7.551  0.5611 -0.3976 -0.7938
32272SOL     OW  603   6.509   0.992   3.400 -0.2113  0.2703  0.5745
32272SOL    HW1  604   6.459   0.957   3.473 -0.4020  1.5278  1.0736
32272SOL    HW2  605   6.576   1.047   3.441 -0.6219  1.3775 -0.1893
32273SOL     OW  606   1.590   7.476   1.683  0.0659 -0.2243 -0.1187
32273SOL    HW1  607   1.604   7.560   1.638  1.2681  0.3556  1.2640
32273SOL    HW2  608   1.677   7.437   1.688 -0.3242 -1.0839  0.1784
32274SOL     OW  609   6.343   7.768   0.378 -0.1950  0.0213 -0.2425
32274SOL    HW1  610   6.349   7.853   0.333 -0.7453  1.0584  1.5318
32274SOL    HW2  611   6.334   7.704   0.308 -0.3842  1.4891 -1.6176
32275SOL     OW  612   5.763   2.486   7.386 -0.6003 -0.4072  0.4540
32275SOL    HW1  613   5.746   2.579   7.372 -0.6971 -0.4748  0.1194
32275SOL    HW2  614   5.754   2.474   7.481  1.1645  0.2778  0.7478
32276SOL     OW  615   1.661   8.642   5.403  0.0011 -0.6686 -0.1093
32276SOL    HW1  616   1.636   8.717   5.348 -3.9252 -1.8674 -0.3076
32276SOL    HW2  617   1.656   8.674   5.492 -1.9207 -0.6659 -0.1836
32277SOL     OW  618   5.873   9.879   7.237 -0.5417 -0.5297  0.1074
32277SOL    HW1  619   5.793   9.846   7.278  0.2116 -1.1965  1.1044
32277SOL    HW2  620   5.944   9.833   7.283  0.3547 -2.1589 -2.6370
32278SOL     OW  621   4.046   6.154   9.607 -0.2922 -0.2482  0.1984
32278SOL    HW1  622   4.057   6.135   9.701 -0.0595  0.5793  0.3471
32278SOL    HW2  623   4.131   6.187   9.579 -0.8604  1.2245  0.1273
32279SOL     OW  624   6.388   9.706   8.169 -0.2909 -0.4246 -1.1285
32279SOL    HW1  625   6.382   9.622   8.124 -1.5235 -1.4522  0.8016
32279SOL    HW2  626   6.378   9.684   8.262  0.5161  1.7436 -0.4678
32280SOL     OW  627   2.684   2.662   8.400  0.3833  0.0801  0.1945
32280SOL    HW1  628   2.599   2.620   8.413 -0.5193  1.6732 -0.3657
32280SOL    HW2  629   2.708   2.694   8.487 -0.7181  1.6296 -0.0297
32281SOL     OW  630   3.671   6.034   4.845  0.1757 -0.2119  0.2154
32281SOL    HW1  631   3.645   6.109   4.898 -0.0412 -0.2563  0.1721
32281SOL    HW2  632   3.654   6.061   4.755 -0.6149 -0.5880  0.2439
32282SOL     OW  633   8.669   8.542   0.388  0.3420  0.2812  0.4570
32282SOL    HW1  634   8.650   8.557   0.481  0.5159 -0.1227  0.5628
32282SOL    HW2  635   8.591   8.496   0.356 -0.1187  1.2332  0.1738
32283SOL     OW  636   6.970   4.026   4.308 -0.0286  0.0988 -0.6290
32283SOL    HW1  637   6.997   3.934   4.313  0.5773  0.2784 -0.5257
32283SOL    HW2  638   7.044   4.074   4.344  0.1455  0.7171 -1.7753
32284SOL     OW  639   5.810   7.427   2.821  0.0596  0.2988  0.2275
32284SOL    HW1  640   5.830   7.361   2.887 -2.2230 -0.9555 -0.2489
32284SOL    HW2  641   5.853   7.506   2.854  1.2263 -0.9206  1.8220
32285SOL     OW  642   2.036   4.180   8.616  0.5970 -0.1687  0.1651
32285SOL    HW1  643   2.089   4.124   8.558 -1.0886 -0.7378 -0.8853
32285SOL    HW2  644   2.015   4.257   8.564  2.0274  1.0297  1.2640
32286SOL     OW  645   0.167   3.438   9.217 -0.2273  0.9514 -0.3136
32286SOL    HW1  646   0.189   3.378   9.288 -0.9656  1.5184  0.4049
32286SOL    HW2  647   0.078   3.415   9.191 -0.6072  1.8586  0.1198
32287SOL     OW  648   8.683   4.004   4.294  0.4880  0.1221 -0.1393
32287SOL    HW1  649   8.695   4.082   4.348  2.4715 -0.3613  0.2058
32287SOL    HW2  650   8.733   3.936   4.339 -0.4727 -1.1315 -0.9015
32288SOL     OW  651   9.396   9.809   7.986 -0.8047 -0.4936 -0.4825
32288SOL    HW1  652   9.447   9.885   8.016  1.2844 -0.9645 -2.6036
32288SOL    HW2  653   9.310   9.846   7.964 -0.9034  0.6401  1.5113
32289SOL     OW  654   7.931   0.269   1.983  0.3524 -0.3221 -0.0500
32289SOL    HW1  655   7.914   0.295   2.073  1.7222  2.1873 -0.4264
32289SOL    HW2  656   7.856   0.215   1.959 -1.6449  1.5607  1.5853
32290SOL     OW  657   9.310   7.395   9.357 -0.0660  0.2440  0.1425
32290SOL    HW1  658   9.403   7.372   9.351 -0.4740 -1.3193 -0.5951
32290SOL    HW2  659   9.296   7.456   9.285  0.0382 -0.8089 -0.7879
32291SOL     OW  660   4.117   4.501   9.483  0.5801 -0.3558 -0.0412
32291SOL    HW1  661   4.134   4.591   9.457  0.9367 -0.6286 -0.7826
32291SOL    HW2  662   4.113   4.452   9.401 -2.1946 -0.6229  0.1796
32292SOL     OW  663   6.016   1.815   4.741 -0.4629 -0.0263  0.4493
32292SOL    HW1  664   6.045   1.878   4.806  0.2310 -0.1389  0.2591
32292SOL    HW2  665   6.010   1.732   4.788  1.6849 -0.4860  0.0593
32293SOL     OW  666  10.231   7.710   0.572 -0.0592 -0.1502 -0.0646
32293SOL    HW1  667  10.250   7.617   0.578 -0.2271 -0.1884 -0.1166
32293SOL    HW2  668  10.199   7.723   0.483  1.4238  0.2369 -0.5608
32294SOL     OW  669   5.988  10.299   5.628 -0.3115  0.3508  0.4925
32294SOL    HW1  670   5.985  10.304   5.532 -1.7689 -0.2222  0.4806
32294SOL    HW2  671   6.069  10.343   5.652  0.2616  0.1716 -1.0306
32295SOL     OW  672   0.582   1.705   7.529 -0.3855  0.0215 -0.2282
32295SOL    HW1  673   0.547   1.673   7.611 -0.6717 -0.0545 -0.3786
32295SOL    HW2  674   0.607   1.795   7.547 -1.8565  0.5060 -0.4574
32296SOL     OW  675   3.377   7.051   1.224 -0.8643  0.1774  0.5047
32296SOL    HW1  676   3.458   7.090   1.191  0.1950 -2.1278  0.1419
32296SOL    HW2  677   3.403   7.010   1.307 -1.3182 -1.6388 -0.2093
32297SOL     OW  678   4.363   0.852   2.659 -0.3060 -0.0425 -0.1172
32297SOL    HW1  679   4.358   0.909   2.582 -1.5240 -2.1444 -1.6946
32297SOL    HW2  680   4.349   0.911   2.733  1.3432  2.1312 -1.4158
32298SOL     OW  681   6.670   0.783   6.570 -0.1965 -0.4739  0.2487
32298SOL    HW1  682   6.646   0.712   6.629 -1.2979 -0.0520  0.3290
32298SOL    HW2  683   6.626   0.761   6.487 -1.0624  0.4290  0.4630
32299SOL     OW  684   3.789   5.664   8.948 -0.2354  0.2449  0.1132
32299SOL    HW1  685   3.781   5.697   8.859  1.2483 -1.7947 -0.8610
32299SOL    HW2  686   3.875   5.693   8.978 -0.5736  0.6087  0.7503
32300SOL     OW  687   7.222   6.964   4.797 -0.6203  0.0461  0.1167
32300SOL    HW1  688   7.204   6.910   4.874  1.6022  0.3674  0.9500
32300SOL    HW2  689   7.167   7.042   4.808  0.0581  0.3317  1.6971
32301SOL     OW  690   1.674   5.053   0.723 -0.1402 -0.0138 -0.1352
32301SOL    HW1  691   1.642   4.974   0.680  1.0450 -0.8453  0.4271
32301SOL    HW2  692   1.599   5.086   0.773 -0.8733 -0.3248 -1.0115
32302SOL     OW  693   7.205   9.070   3.235  0.2819 -0.1744  0.5955
32302SOL    HW1  694   7.193   9.029   3.321 -0.0092  0.6201  0.9440
32302SOL    HW2  695   7.232   9.160   3.255 -0.6221  0.2784 -0.1245
32303SOL     OW  696   1.182   0.933   7.359 -0.2340 -0.0652 -0.0846
32303SOL    HW1  697   1.265   0.981   7.348 -0.5038 -0.0130 -2.3257
32303SOL    HW2  698   1.140   0.938   7.274 -1.7323 -1.6585  0.5006
32304SOL     OW  699   0.480   9.127   1.770 -0.2560 -0.0651  0.3033
32304SOL    HW1  700   0.473   9.042   1.726  0.5040 -0.3639  0.7314
32304SOL    HW2  701   0.468   9.106   1.863 -0.6145  0.3779  0.3583
32305SOL     OW  702   6.357   3.145   4.273 -0.1626 -0.2675  0.6788
32305SOL    HW1  703   6.404   3.095   4.340 -0.2221 -0.5710  0.4983
32305SOL    HW2  704   6.285   3.187   4.320  2.5385  3.5969  1.8622
32306SOL     OW  705   0.506   6.243   7.088 -0.0081 -0.1518  0.8597
32306SOL    HW1  706   0.425   6.287   7.115 -0.0543  1.1940 -1.2849
32306SOL    HW2  707   0.480   6.188   7.014  1.0207  0.3221  0.1194
32307SOL     OW  708   0.053   0.641   4.418 -0.1027 -0.1702 -0.2744
32307SOL    HW1  709   0.144   0.618   4.437  0.0247  0.0152 -0.6481
32307SOL    HW2  710   0.010   0.639   4.503  0.1568 -0.6776 -0.1482
32308SOL     OW  711   4.414   8.267   0.527  0.2275  0.1881 -0.2866
32308SOL    HW1  712   4.403   8.319   0.447 -0.2816  1.0906  0.3454
32308SOL    HW2  713   4.499   8.296   0.562  0.1907  0.2056 -0.2119
32309SOL     OW  714   5.150   3.721   1.733  0.0435 -0.5435  0.2087
32309SOL    HW1  715   5.146   3.782   1.807 -0.3016 -0.3802  0.0595
32309SOL    HW2  716   5.081   3.657   1.750 -0.0699 -0.4769  0.0049
32310SOL     OW  717   8.339   4.147   4.832 -0.0001 -0.4848 -0.1667
32310SOL    HW1  718   8.313   4.208   4.763  1.9780  0.0391 -0.5318
32310SOL    HW2  719   8.433   4.134   4.818 -0.1158 -2.6581  0.6848
32311SOL     OW  720   3.769   0.492   6.439 -0.3658  0.5254 -0.0701
32311SOL    HW1  721   3.711   0.560   6.406 -0.6223  0.5277  0.3705
32311SOL    HW2  722   3.840   0.540   6.482  0.6020  0.5419 -1.6426
32312SOL     OW  723   5.569  10.076   6.317  0.1116  0.7852 -0.1276
32312SOL    HW1  724   5.501  10.109   6.376 -0.2854 -1.3338  0.6682
32312SOL    HW2  725   5.533  10.088   6.229 -1.1401  0.0499  0.2662
32313SOL     OW  726   1.680  10.301   2.637 -0.0685  0.2705  0.4013
32313SOL    HW1  727   1.744  10.239   2.670  0.2705  1.2736  1.7054
32313SOL    HW2  728   1.725  10.346   2.566 -1.3082 -2.9618 -2.7491
32314SOL     OW  729   4.061   5.164   3.283 -0.3986  0.1971 -0.4000
32314SOL    HW1  730   4.144   5.136   3.245 -0.1729  1.1325 -0.6354
32314SOL    HW2  731   4.048   5.253   3.248 -0.1805  1.1051  1.6676
32315SOL     OW  732   6.481   6.550   2.599  0.5849 -0.5868 -0.2569
32315SOL    HW1  733   6.538   6.526   2.526 -1.2205 -1.6717 -1.3750
32315SOL    HW2  734   6.422   6.616   2.563  0.5498 -0.1028  0.6387
32316SOL     OW  735   3.684   5.323   6.928  0.3458 -0.0860 -0.0625
32316SOL    HW1  736   3.654   5.242   6.970 -0.9311  0.3742 -0.0300
32316SOL    HW2  737   3.777   5.308   6.911  1.0631 -0.1398  3.2809
32317SOL     OW  738   7.359   2.921   6.600 -0.4811  0.4484  0.1877
32317SOL    HW1  739   7.313   2.858   6.655  1.6314 -1.2318  0.1388
32317SOL    HW2  740   7.345   3.006   6.643 -1.8351 -0.3018  1.2834
32318SOL     OW  741   3.473   1.213   4.761 -0.5614  0.2790  0.3584
32318SOL    HW1  742   3.469   1.139   4.822  4.9693 -0.3522  0.4474
32318SOL    HW2  743   3.461   1.290   4.817  0.6850 -0.4080  1.6269
32319SOL     OW  744  10.100   6.783   6.819 -0.6591  0.6359 -0.3279
32319SOL    HW1  745  10.064   6.762   6.733 -1.1016 -0.0839  0.0207
32319SOL    HW2  746  10.029   6.762   6.880 -1.2524  3.3366  0.0796
32320SOL     OW  747   8.841   4.410   5.161 -0.0130 -0.4809 -0.1327
32320SOL    HW1  748   8.912   4.461   5.198 -1.5077  0.8819  1.0172
32320SOL    HW2  749   8.835   4.332   5.217  0.7237 -0.7416 -0.4069
32321SOL     OW  750   2.237   1.831   5.519  0.1219  0.2921 -0.1334
32321SOL    HW1  751   2.170   1.764   5.505  0.0870  0.0382  1.1544
32321SOL    HW2  752   2.287   1.832   5.437 -1.3679  0.4269 -1.1026
32322SOL     OW  753   7.209   7.999  10.332  0.3100  0.6013 -0.7756
32322SOL    HW1  754   7.240   7.909  10.317  0.4505  0.6226 -0.6138
32322SOL    HW2  755   7.113   7.992  10.327  0.3180  0.4358 -0.7315
32323SOL     OW  756   2.391   0.827   8.692  0.4086 -0.5418  0.1338
32323SOL    HW1  757   2.406   0.740   8.730  0.9623 -0.0113  1.1661
32323SOL    HW2  758   2.403   0.814   8.598 -1.1880 -1.9390  0.0696
32324SOL     OW  759   8.602   9.488   4.572 -0.1900 -0.9806 -0.3682
32324SOL    HW1  760   8.662   9.448   4.509  0.0932  0.8267 -1.3073
32324SOL    HW2  761   8.532   9.525   4.518  0.5854  1.5045  0.2231
32325SOL     OW  762   1.693   8.595   7.319 -0.4265 -0.7759  0.2951
32325SOL    HW1  763   1.767   8.553   7.362  0.1107 -0.9350 -0.7529
32325SOL    HW2  764   1.616   8.552   7.355  0.1217 -3.3237 -1.3319
32326SOL     OW  765   9.476   7.804  10.235  0.1742 -0.2291 -0.0519
32326SOL    HW1  766   9.484   7.863  10.309  1.4717 -0.4089 -0.0261
32326SOL    HW2  767   9.479   7.861  10.158 -1.3227 -0.0289  0.0178
32327SOL     OW  768   3.710   9.139   3.767 -0.3276  0.1117 -0.0046
32327SOL    HW1  769   3.699   9.107   3.856 -1.2838  3.1254  1.1103
32327SOL    HW2  770   3.649   9.213   3.761  2.8309  2.8444 -1.6334
32328SOL     OW  771   0.275   2.167   9.154  0.0351  0.2554  0.1007
32328SOL    HW1  772   0.347   2.230   9.150  0.6554 -0.4365  0.1721
32328SOL    HW2  773   0.276   2.135   9.244  0.6587 -0.9086 -0.3000
32329SOL     OW  774   0.877   6.698   9.948 -0.4880  0.7613 -0.1462
32329SOL    HW1  775   0.947   6.657   9.999 -0.5903  0.2738 -0.3923
32329SOL    HW2  776   0.840   6.764  10.007  0.5108  1.3919 -0.1914
32330SOL     OW  777   1.220   0.821   5.670 -0.2507  0.7052  0.6814
32330SOL    HW1  778   1.280   0.782   5.734 -0.8795 -1.9123 -0.2178
32330SOL    HW2  779   1.139   0.837   5.719 -0.8173 -1.5329  0.5811
32331SOL     OW  780   2.967   3.000   7.586 -0.5402 -0.4909  0.7780
32331SOL    HW1  781   2.927   2.915   7.566  0.9499 -1.0455 -0.0470
32331SOL    HW2  782   3.061   2.985   7.573 -0.1702  1.0581  1.4948
32332SOL     OW  783   3.484   3.057   9.573  0.3324  0.0599  0.0157
32332SOL    HW1  784   3.559   3.087   9.626 -0.0507  2.5534 -0.7209
32332SOL    HW2  785   3.407   3.086   9.622 -0.0817  0.0194 -0.6019
32333SOL     OW  786   2.191   0.877   3.937 -0.3926  0.4331  0.2188
32333SOL    HW1  787   2.187   0.900   3.844  1.7704 -0.4042 -0.1192
32333SOL    HW2  788   2.281   0.893   3.962 -0.9594  0.7074  2.2266
32334SOL     OW  789   3.371   6.042   7.988 -0.2383  0.2800  0.3070
32334SOL    HW1  790   3.305   5.973   7.995 -2.2252  2.0392 -0.3275
32334SOL    HW2  791   3.453   5.998   8.012 -1.3191 -2.4053 -0.4864
32335SOL     OW  792   2.590   6.570   2.304  0.4562  0.1325 -0.0205
32335SOL    HW1  793   2.631   6.655   2.288  0.5895 -0.1110 -1.0211
32335SOL    HW2  794   2.504   6.592   2.340  1.4795  0.6499  2.2935
32336SOL     OW  795   0.990   9.566   3.462  0.4372 -0.4675 -0.3806
32336SOL    HW1  796   1.039   9.581   3.543 -0.4888  1.1394 -0.0674
32336SOL    HW2  797   0.905   9.608   3.477 -0.2582 -1.3372 -1.6874
32337SOL     OW  798   3.933   7.171   9.768 -0.4092  0.1919  0.0567
32337SOL    HW1  799   3.895   7.236   9.709  1.0437  1.2354  0.2014
32337SOL    HW2  800   3.862   7.147   9.827 -1.1160  1.2941 -0.3141
32338SOL     OW  801   8.633   2.722   9.267 -0.2668 -0.0287 -0.1139
32338SOL    HW1  802   8.727   2.731   9.283 -0.5198  0.6629  1.1257
32338SOL    HW2  803   8.593   2.791   9.320 -1.5115 -0.6840 -0.1635
32339SOL     OW  804   9.621   3.638   7.400  0.4298 -0.7161  0.5975
32339SOL    HW1  805   9.709   3.672   7.387  1.7578 -3.5892  1.2485
32339SOL    HW2  806   9.576   3.655   7.317  2.1319 -0.6067 -0.3531
32340SOL     OW  807   9.394   9.088   6.102 -0.6352 -0.1298 -0.1824
32340SOL    HW1  808   9.356   9.092   6.014  0.3624 -1.3997 -0.7019
32340SOL    HW2  809   9.450   9.010   6.101  0.8705  0.8633  0.9827
32341SOL     OW  810   4.077   4.154   7.009  0.0743  0.1120 -0.8251
32341SOL    HW1  811   4.025   4.146   7.089  0.4741  1.5381 -0.3786
32341SOL    HW2  812   4.029   4.105   6.943 -1.0290  0.1202 -0.0467
32342SOL     OW  813   3.124   4.985   3.750 -0.2018 -0.0048  0.1165
32342SOL    HW1  814   3.073   4.939   3.683  0.8259 -0.9589 -0.0422
32342SOL    HW2  815   3.080   4.965   3.832 -0.3808 -0.3815 -0.0710
32343SOL     OW  816  10.346   6.812   6.277 -0.0435  0.0017 -0.2119
32343SOL    HW1  817  10.288   6.783   6.206  3.3772 -0.7155 -3.0467
32343SOL    HW2  818  10.358   6.906   6.261  0.4457 -0.0915 -0.4368
32344SOL     OW  819   5.251   2.715   4.377  0.1697  0.0322  0.5350
32344SOL    HW1  820   5.165   2.752   4.395 -0.6691 -1.5405 -0.0329
32344SOL    HW2  821   5.272   2.745   4.288  0.3067  0.5723  0.7462
32345SOL     OW  822   2.416   9.527   8.211  0.2637  0.1926 -0.4995
32345SOL    HW1  823   2.471   9.449   8.221  0.2707 -0.0098 -2.0158
32345SOL    HW2  824   2.477   9.600   8.214  0.3792  0.0865 -0.1740
32346SOL     OW  825   7.415   8.302   0.439  0.0914 -0.1459  0.0941
32346SOL    HW1  826   7.365   8.372   0.399  1.7846  1.2399  0.2564
32346SOL    HW2  827   7.507   8.326   0.424  0.7501 -2.3147  0.1999
32347SOL     OW  828   7.356   5.330   6.330  0.0292  0.3314  0.3019
32347SOL    HW1  829   7.265   5.356   6.317 -0.1902  0.0223  1.1655
32347SOL    HW2  830   7.362   5.244   6.290 -0.9605 -1.1677  3.1186
32348SOL     OW  831   5.000   3.114   5.678  0.1055 -0.0856  0.0043
32348SOL    HW1  832   5.032   3.203   5.688  0.1961 -0.1181  0.0087
32348SOL    HW2  833   5.013   3.074   5.764  0.9322 -0.3810 -0.2447
32349SOL     OW  834  10.022   8.712   1.755  0.7333 -0.7080  0.0173
32349SOL    HW1  835   9.954   8.703   1.689  0.9499 -0.2070 -0.2710
32349SOL    HW2  836  10.076   8.784   1.725 -0.6433  1.2789  2.0300
32350SOL     OW  837   7.011   8.076   2.940  0.8218  0.2007 -0.2286
32350SOL    HW1  838   7.038   8.026   3.016 -0.4683  0.4065  0.3959
32350SOL    HW2  839   7.084   8.068   2.878  1.1605 -1.3973  0.3359
32351SOL     OW  840   7.025   2.868   7.833 -0.4017  0.5414 -0.0444
32351SOL    HW1  841   7.002   2.837   7.745 -0.0039  0.1137  0.0003
32351SOL    HW2  842   6.943   2.866   7.882 -0.6639  0.9507 -0.4543
32352SOL     OW  843   0.377   6.870   4.530  0.1081 -0.2571  0.0959
32352SOL    HW1  844   0.288   6.861   4.498  0.3390  0.2194 -0.7131
32352SOL    HW2  845   0.432   6.862   4.452  0.8341 -1.3761  0.6856
32353SOL     OW  846   9.922   7.556   2.014 -0.7692 -0.3137 -0.6792
32353SOL    HW1  847   9.943   7.472   2.055 -0.8911  0.2358  0.5871
32353SOL    HW2  848   9.940   7.543   1.921 -0.3266 -1.5888 -0.4414
32354SOL     OW  849   1.558  10.055   2.983  0.5112  0.4019  0.4090
32354SOL    HW1  850   1.480  10.002   2.965  1.7291 -1.5043  0.4860
32354SOL    HW2  851   1.630   9.993   2.984  2.1089  2.1523  0.0729
32355SOL     OW  852   9.390   4.126   0.337  0.4428  0.2777 -0.5064
32355SOL    HW1  853   9.354   4.050   0.383  1.0127 -0.6768 -1.5816
32355SOL    HW2  854   9.455   4.162   0.397  2.3643 -1.9352 -1.1261
32356SOL     OW  855   5.692   9.956   5.874 -0.1419 -0.2072 -0.5739
32356SOL    HW1  856   5.722   9.880   5.923  0.4242 -0.5671 -1.4443
32356SOL    HW2  857   5.704   9.932   5.782  2.2019  1.7270 -0.8936
32357SOL     OW  858   4.575   5.553   4.658 -0.7867  0.5632  0.8863
32357SOL    HW1  859   4.591   5.460   4.673  0.4722  0.6257  0.0855
32357SOL    HW2  860   4.642   5.598   4.708 -1.4716  1.0564  1.3750
32358SOL     OW  861   8.670   5.780   0.331  0.3694 -0.0946  0.7677
32358SOL    HW1  862   8.595   5.741   0.285 -1.7191  0.7812  3.1946
32358SOL    HW2  863   8.689   5.860   0.281  0.6695 -1.0403 -0.6939
32359SOL     OW  864   6.869   0.154   3.184 -0.2573 -0.3110  0.5669
32359SOL    HW1  865   6.906   0.217   3.246 -1.1297  2.5432 -1.5799
32359SOL    HW2  866   6.784   0.191   3.161 -0.6178 -2.0745 -1.1670
32360SOL     OW  867   7.155   2.517   0.876 -0.3340  0.6647  0.4922
32360SOL    HW1  868   7.086   2.477   0.929 -1.3599 -0.2905 -1.4512
32360SOL    HW2  869   7.221   2.448   0.867 -0.2905  0.7274  0.3218
32361SOL     OW  870   5.910   8.542   4.596 -0.5223  0.1344 -0.1450
32361SOL    HW1  871   5.967   8.477   4.639 -2.3599 -1.4160  0.0529
32361SOL    HW2  872   5.901   8.510   4.506 -0.0575  1.1047 -0.5554
32362SOL     OW  873   3.671   2.289   0.726 -0.1697  0.7118 -0.2784
32362SOL    HW1  874   3.616   2.309   0.802 -0.7557  0.4307 -0.6202
32362SOL    HW2  875   3.616   2.234   0.670  0.0929  1.2900 -1.1222
32363SOL     OW  876   9.319   0.687   7.483 -0.1143  0.1230 -0.4621
32363SOL    HW1  877   9.335   0.593   7.498  0.8211  0.2443 -0.6869
32363SOL    HW2  878   9.323   0.726   7.571 -0.3223 -0.0177 -0.3886
32364SOL     OW  879   1.036   3.236   2.788 -0.3972  0.3326 -0.0324
32364SOL    HW1  880   1.111   3.288   2.759 -0.4462  0.0757 -0.6505
32364SOL    HW2  881   1.070   3.179   2.856  0.3276 -0.7684 -1.2571
32365SOL     OW  882   7.065   5.673   4.378 -0.6811 -0.1225 -0.2269
32365SOL    HW1  883   6.989   5.618   4.358 -0.2881 -0.7008 -0.1274
32365SOL    HW2  884   7.131   5.613   4.410 -0.7154  0.5722  1.2345
32366SOL     OW  885   7.522   8.470   4.559 -0.3364  0.1470  0.2545
32366SOL    HW1  886   7.604   8.465   4.609  0.0863 -0.0669 -0.4447
32366SOL    HW2  887   7.507   8.563   4.546 -1.0577  0.2700  1.7384
32367SOL     OW  888   2.714   1.448   0.375  0.6098 -0.1235  0.4077
32367SOL    HW1  889   2.714   1.490   0.288 -1.6002  0.2574  0.5344
32367SOL    HW2  890   2.716   1.521   0.437  1.2396 -0.3693  0.6855
32368SOL     OW  891   0.928   5.353   6.770 -0.3777  0.0599  0.1199
32368SOL    HW1  892   0.927   5.268   6.726  0.4856  0.5380 -0.8799
32368SOL    HW2  893   0.921   5.333   6.863 -0.3227 -1.0986 -0.1159
32369SOL     OW  894   6.393   8.989   3.460  0.5988  0.5782  0.1418
32369SOL    HW1  895   6.379   9.003   3.553  0.1463 -2.3321  0.6196
32369SOL    HW2  896   6.319   8.934   3.432  0.7880  1.2583 -1.9236
32370SOL     OW  897   6.305   2.178  10.291  0.4805  0.0919  0.3964
32370SOL    HW1  898   6.351   2.175  10.375 -1.3723  0.2268  1.4875
32370SOL    HW2  899   6.234   2.114  10.300  1.0024 -0.8392 -1.5802
32371SOL     OW  900   5.557   7.139   3.466 -0.1937 -0.1459 -0.2807
32371SOL    HW1  901   5.602   7.058   3.489 -1.0667 -0.1964  1.4615
32371SOL    HW2  902   5.563   7.192   3.545 -1.8082  0.4561 -0.5292
32372SOL     OW  903   6.726   4.576   1.708  0.0215 -0.5412 -0.2380
32372SOL    HW1  904   6.765   4.497   1.747  1.6007  0.6263  0.6425
32372SOL    HW2  905   6.754   4.647   1.764  0.9021  1.0058 -2.5035
32373SOL     OW  906   2.005   2.632   4.232  0.3482 -0.6872  0.0235
32373SOL    HW1  907   2.040   2.690   4.164  0.8149 -1.6235 -0.5462
32373SOL    HW2  908   2.083   2.593   4.272  0.0132 -1.4334 -0.0501
32374SOL     OW  909   0.149   8.068   3.088  0.5099  0.4996  0.1613
32374SOL    HW1  910   0.092   8.006   3.134  1.4351 -1.0535 -0.7105
32374SOL    HW2  911   0.205   8.105   3.157  0.3920 -0.1281  0.5986
32375SOL     OW  912   7.806   9.078   8.713 -0.9002  0.2135  0.5850
32375SOL    HW1  913   7.781   8.990   8.684  0.6978  0.6966 -2.6999
32375SOL    HW2  914   7.810   9.130   8.633  0.2086  2.7914  2.1665
32376SOL     OW  915   3.268  10.190   3.267  0.0943 -0.0037  0.5321
32376SOL    HW1  916   3.293  10.259   3.329  1.4313  0.6970 -0.7369
32376SOL    HW2  917   3.175  10.176   3.284  0.3069  0.4993  2.3497
32377SOL     OW  918   7.186   6.515   1.229  0.4554 -0.0337  0.0597
32377SOL    HW1  919   7.209   6.544   1.317  0.1327  1.6700 -0.3881
32377SOL    HW2  920   7.101   6.471   1.240 -1.1516  2.8446  0.2376
32378SOL     OW  921   9.266   1.211   5.408 -0.2443  0.2944 -0.0277
32378SOL    HW1  922   9.296   1.279   5.348 -1.8036  2.3320  1.3779
32378SOL    HW2  923   9.286   1.246   5.495  1.6751 -2.4354  0.7769
32379SOL     OW  924   8.063   8.718   8.025  0.1816  0.1647 -0.2755
32379SOL    HW1  925   8.114   8.681   7.953  1.9064  1.2909  0.3138
32379SOL    HW2  926   8.053   8.646   8.087  0.0705 -0.3676 -0.8952
32380SOL     OW  927   3.304   4.106   3.123 -0.1263  0.1254  0.3148
32380SOL    HW1  928   3.385   4.147   3.092  0.6614 -1.0547  0.7442
32380SOL    HW2  929   3.329   4.064   3.206 -1.5011  0.8297  1.1282
32381SOL     OW  930   6.972   2.838   3.970 -0.0657 -0.2593 -0.1703
32381SOL    HW1  931   6.926   2.794   4.041  1.6880 -1.1264  0.5095
32381SOL    HW2  932   6.942   2.793   3.891  0.9893 -2.1542  0.4251
32382SOL     OW  933   3.840   4.301   2.334  0.1912  0.0397 -0.0879
32382SOL    HW1  934   3.796   4.294   2.418  1.0676  0.1039  0.3904
32382SOL    HW2  935   3.841   4.395   2.315 -1.2053 -0.0687 -0.8457
32383SOL     OW  936   7.095   0.083   6.669  0.0194  0.6488 -0.2480
32383SOL    HW1  937   7.081  -0.005   6.633 -0.4850 -0.3636  2.2424
32383SOL    HW2  938   7.008   0.122   6.672  0.0059  0.5849  0.2038
32384SOL     OW  939   2.163   9.995   4.285 -0.3735  0.3839  0.5290
32384SOL    HW1  940   2.086   9.953   4.247  0.2926 -0.1462 -0.2512
32384SOL    HW2  941   2.180  10.070   4.229  0.6335 -0.4207 -0.2760
32385SOL     OW  942   2.856   2.999   8.783  0.6666  0.0365 -0.0269
32385SOL    HW1  943   2.889   2.921   8.739 -0.6463  0.1461 -1.2836
32385SOL    HW2  944   2.909   3.071   8.749  1.6601 -0.2350  0.8889
32386SOL     OW  945   9.104   5.815   9.996  0.0316 -0.0962  0.1748
32386SOL    HW1  946   9.027   5.762   9.977 -1.0563  0.8168  1.8074
32386SOL    HW2  947   9.083   5.902   9.961  0.9665 -0.2066 -0.7051
32387SOL     OW  948   2.875   0.047   3.857 -1.0833 -0.1650  0.6765
32387SOL    HW1  949   2.875   0.078   3.948 -0.8459 -2.3086  1.4726
32387SOL    HW2  950   2.783   0.030   3.837 -0.9697 -1.7761  1.3419
32388SOL     OW  951   0.854   8.869   6.541 -0.3362  0.5408 -0.5246
32388SOL    HW1  952   0.789   8.798   6.547  1.8640 -1.5058  0.9367
32388SOL    HW2  953   0.848   8.914   6.626  0.1937  0.3005 -0.3596
32389SOL     OW  954   1.438   8.286   9.370  0.1795  0.2530  0.7184
32389SOL    HW1  955   1.484   8.267   9.451  0.4343 -0.1652  0.4798
32389SOL    HW2  956   1.414   8.201   9.335 -1.8966  0.4829  1.4481
32390SOL     OW  957   0.858   6.853   5.383 -0.1017 -0.6799  0.2183
32390SOL    HW1  958   0.858   6.826   5.291 -3.1980 -1.4675  0.3522
32390SOL    HW2  959   0.911   6.933   5.385  2.2328 -2.0381 -1.7083
32391SOL     OW  960   9.077   3.776   5.993 -0.0647 -0.2007 -0.1206
32391SOL    HW1  961   9.019   3.851   5.988  0.6911  0.3414 -1.1676
32391SOL    HW2  962   9.164   3.810   5.970  0.2418 -1.4283 -0.9356
32392SOL     OW  963   3.814   6.989   3.110 -0.0474  0.2216 -0.3122
32392SOL    HW1  964   3.833   6.933   3.186 -1.5565  0.2984  0.1440
32392SOL    HW2  965   3.759   7.059   3.145 -0.5693  0.3919 -1.4395
32393SOL     OW  966   3.185   6.490   6.097  0.0350 -0.0109  0.1987
32393SOL    HW1  967   3.158   6.416   6.152  1.5477  0.2037  1.2759
32393SOL    HW2  968   3.108   6.547   6.095 -1.2642 -1.7033 -0.8909
32394SOL     OW  969   1.462   7.163   6.100  0.3898  0.6649 -0.5445
32394SOL    HW1  970   1.435   7.102   6.168  0.5572  1.7150  0.4958
32394SOL    HW2  971   1.397   7.234   6.104  0.0225  0.4440 -1.9342
32395SOL     OW  972   0.721   1.545   0.352  0.3191  0.3354 -0.5299
32395SOL    HW1  973   0.650   1.482   0.348  0.7345 -0.5394  2.9285
32395SOL    HW2  974   0.801   1.493   0.351  0.7816  1.0176 -0.3582
32396SOL     OW  975   9.213   1.324   0.447  0.1332 -0.4281 -0.3815
32396SOL    HW1  976   9.151   1.396   0.434 -2.4391 -2.4204  0.0401
32396SOL    HW2  977   9.269   1.353   0.519 -2.8732 -0.0025  1.9881
32397SOL     OW  978   8.104   5.144   6.194  0.2050 -0.4307 -0.6073
32397SOL    HW1  979   8.105   5.179   6.105 -0.0441  1.5959  0.1174
32397SOL    HW2  980   8.117   5.050   6.184  0.1407 -0.2504 -2.7707
32398SOL     OW  981   2.263   0.731   5.719  0.4013  0.2833  0.3226
32398SOL    HW1  982   2.257   0.635   5.714  1.7919  0.2276 -1.5068
32398SOL    HW2  983   2.283   0.748   5.811  1.5692 -1.3170  0.4215
32399SOL     OW  984   0.347   0.284   8.928 -0.7426 -0.2774  0.2825
32399SOL    HW1  985   0.309   0.350   8.987  0.1251 -1.2282  1.9703
32399SOL    HW2  986   0.420   0.246   8.978  0.1924 -0.9651 -1.5149
32400SOL     OW  987   2.799   6.329   4.510 -0.0051  0.0111  0.8156
32400SOL    HW1  988   2.862   6.399   4.493  0.3164 -0.6943 -1.1498
32400SOL    HW2  989   2.851   6.259   4.550 -0.0247  0.3017  1.3599
32401SOL     OW  990   7.160   3.032   7.336  0.1700  0.1374  0.6359
32401SOL    HW1  991   7.104   2.955   7.329  0.7817 -0.1989 -0.8433
32401SOL    HW2  992   7.123   3.095   7.273  0.0383  0.8334  1.3858
32402SOL     OW  993  10.147   7.862   7.939  0.4621 -0.1605 -0.1961
32402SOL    HW1  994  10.214   7.804   7.902  1.5195 -0.8148  2.5036
32402SOL    HW2  995  10.067   7.810   7.939 -0.0895  0.5341 -3.2078
32403SOL     OW  996   0.315   6.246   9.532  0.1049 -0.2301  0.3802
32403SOL    HW1  997   0.252   6.201   9.475 -1.6187  0.6577  1.4987
32403SOL    HW2  998   0.261   6.293   9.595  1.8786 -1.6521  3.1704
32404SOL     OW  999   0.633   8.526   0.243 -0.7939 -0.2119  0.3033
32404SOL    HW1 1000   0.592   8.575   0.172  1.4747  1.6528  0.1368
32404SOL    HW2 1001   0.580   8.546   0.320 -0.0537  2.5970  0.2214
32405SOL     OW 1002   8.272   8.588   0.022  0.3173  0.1868  0.4028
32405SOL    HW1 1003   8.254   8.683   0.021  3.6364  0.9560  1.5642
32405SOL    HW2 1004   8.261   8.563   0.114 -0.4535 -0.5926  0.1158
32406SOL     OW 1005  10.212   5.666   3.227  0.9196  0.2249  0.1542
32406SOL    HW1 1006  10.205   5.645   3.320  0.9806  0.1017  0.1307
32406SOL    HW2 1007  10.126   5.644   3.192  0.1507  2.2907  0.5795
32407SOL     OW 1008   0.556   5.696   6.692 -0.3915  0.3468  0.5540
32407SOL    HW1 1009   0.495   5.724   6.760 -0.5017  0.7695  0.2881
32407SOL    HW2 1010   0.516   5.726   6.610 -0.0089  0.3035  0.3499
32408SOL     OW 1011   9.207   5.969   1.962 -0.1421 -0.2896  0.2351
32408SOL    HW1 1012   9.181   5.948   2.051 -2.5889 -0.2165 -0.3916
32408SOL    HW2 1013   9.242   5.886   1.927  1.5633 -0.1256  1.4382
32409SOL     OW 1014   4.603   9.701   0.792 -0.6917  0.2365  0.4042
32409SOL    HW1 1015   4.683   9.652   0.808 -0.4535  0.1970 -0.8696
32409SOL    HW2 1016   4.619   9.786   0.832 -0.3358 -0.0433  0.8664
32410SOL     OW 1017   9.894   8.510   0.650 -0.2224  0.1336  0.1376
32410SOL    HW1 1018   9.838   8.511   0.572  1.9527  0.0897 -1.5416
32410SOL    HW2 1019   9.921   8.601   0.660  1.1717 -0.1771 -0.5097
32411SOL     OW 1020   5.696   1.412   5.641 -0.1082  0.2860  0.4790
32411SOL    HW1 1021   5.772   1.468   5.626 -1.1208  1.5296 -0.2851
32411SOL    HW2 1022   5.646   1.457   5.708 -0.6193 -0.0361  0.3202
32412SOL     OW 1023   4.955   0.762   0.965  0.1544  0.5643  0.0187
32412SOL    HW1 1024   5.036   0.719   0.994 -0.0729  1.3463  1.9690
32412SOL    HW2 1025   4.965   0.853   0.993 -1.5504  0.5869  0.6775
32413SOL     OW 1026   3.345   3.972   5.597  0.3140 -0.2959  0.5266
32413SOL    HW1 1027   3.320   4.058   5.564 -0.3210 -0.7199 -0.1185
32413SOL    HW2 1028   3.429   3.987   5.640  1.2949  0.2684 -1.4381
32414SOL     OW 1029   4.005   1.253   7.512 -0.2702  0.2939  0.4030
32414SOL    HW1 1030   3.990   1.159   7.525 -3.0278  0.6776  0.7091
32414SOL    HW2 1031   4.019   1.262   7.418 -0.3036 -0.3880  0.3240
32415SOL     OW 1032   1.982   4.794   9.716 -0.2045 -0.2443  0.0688
32415SOL    HW1 1033   1.939   4.720   9.674 -0.8345  0.8307 -1.2644
32415SOL    HW2 1034   2.071   4.793   9.680 -0.9149  1.0378 -1.9034
32416SOL     OW 1035   3.845   2.376   2.038 -1.0150  0.1267 -0.1633
32416SOL    HW1 1036   3.886   2.373   2.125  0.4058 -0.9925 -0.8336
32416SOL    HW2 1037   3.885   2.304   1.990 -2.0195  0.5203 -1.6671
32417SOL     OW 1038  10.171   5.606   3.502  0.0176  0.1303 -0.0331
32417SOL    HW1 1039  10.152   5.512   3.490 -0.6701  0.1731  0.6589
32417SOL    HW2 1040  10.118   5.632   3.577  1.4288  0.7077  0.8036
32418SOL     OW 1041   0.691   7.707   4.098  0.3928 -0.5988  0.1772
32418SOL    HW1 1042   0.729   7.642   4.157  1.2241  1.1366  1.6531
32418SOL    HW2 1043   0.672   7.782   4.155 -2.3260 -0.2023 -1.0857
32419SOL     OW 1044   2.722   5.870   9.644 -0.5838  0.5174 -0.4016
32419SOL    HW1 1045   2.631   5.864   9.670 -0.4743 -1.8233 -0.3451
32419SOL    HW2 1046   2.748   5.780   9.624  1.8214  1.0478 -0.0644
32420SOL     OW 1047   0.903   7.726   0.773  0.6817 -0.3303 -0.4456
32420SOL    HW1 1048   0.856   7.792   0.722 -0.6956 -0.3770  0.6887
32420SOL    HW2 1049   0.927   7.771   0.854  0.1564 -1.0486  0.1323
32421SOL     OW 1050   2.533   2.909   3.011 -0.1079  0.1397  0.2811
32421SOL    HW1 1051   2.572   2.839   2.958  0.7509  0.8300 -0.0139
32421SOL    HW2 1052   2.439   2.889   3.011 -0.0048 -0.4040 -0.6946
32422SOL     OW 1053   3.078   3.933   3.438  0.2566  0.0975  0.0238
32422SOL    HW1 1054   3.157   3.910   3.389 -0.0385  2.0038 -1.4840
32422SOL    HW2 1055   3.006   3.909   3.380 -0.2424 -0.4119  0.8327
32423SOL     OW 1056   1.843   6.886   9.299 -0.0241 -0.2165  0.6213
32423SOL    HW1 1057   1.854   6.951   9.368 -0.1626 -1.9124  2.3181
32423SOL    HW2 1058   1.925   6.836   9.299  0.4118  0.3944 -1.2189
32424SOL     OW 1059   7.153   7.135   9.131 -0.2695  0.4184  0.2722
32424SOL    HW1 1060   7.122   7.059   9.083  1.2083  0.1568 -0.3195
32424SOL    HW2 1061   7.217   7.176   9.073 -0.1623  1.4243  1.0733
32425SOL     OW 1062   8.460   8.546   0.602 -0.1785  0.0496 -0.1034
32425SOL    HW1 1063   8.374   8.535   0.562  0.2977  0.5109 -1.2952
32425SOL    HW2 1064   8.471   8.468   0.657 -0.6369 -0.8812 -1.2843
32426SOL     OW 1065   8.403   7.529   6.401  0.6174  0.1418  0.4154
32426SOL    HW1 1066   8.440   7.560   6.483  1.6141 -0.6026  0.2703
32426SOL    HW2 1067   8.355   7.450   6.424 -0.8278  1.0432  0.5843
32427SOL     OW 1068   6.530   1.777   1.432 -0.8856 -0.4317  0.3139
32427SOL    HW1 1069   6.616   1.818   1.423 -0.7425 -0.6343  0.6955
32427SOL    HW2 1070   6.534   1.700   1.376 -0.7639 -0.5177  0.4379
32428SOL     OW 1071   3.394   3.679   2.001 -0.3610 -0.4623 -0.1768
32428SOL    HW1 1072   3.312   3.670   2.050  1.2445 -1.5811  2.5237
32428SOL    HW2 1073   3.409   3.773   1.996 -0.2260 -0.2963  2.2933
32429SOL     OW 1074   6.054   3.634   5.612  0.7491  1.1601  0.3056
32429SOL    HW1 1075   6.071   3.552   5.657  0.3638  1.7333  1.5545
32429SOL    HW2 1076   6.103   3.628   5.530  1.2593 -0.0265  0.6828
32430SOL     OW 1077   8.046   9.523   1.315 -0.0239  0.1044  0.4515
32430SOL    HW1 1078   8.031   9.442   1.267  0.5282 -0.8991  1.8830
32430SOL    HW2 1079   8.061   9.494   1.406  0.6093  1.7740  0.9150
32431SOL     OW 1080   0.557   9.321   6.489 -0.0898 -0.0195  0.7766
32431SOL    HW1 1081   0.631   9.323   6.550  1.3249 -1.3662 -0.8130
32431SOL    HW2 1082   0.523   9.232   6.495 -2.2793  0.8315  2.1872
32432SOL     OW 1083   7.555   4.279   1.948 -0.1609  0.3447  0.1862
32432SOL    HW1 1084   7.575   4.367   1.915 -0.1210 -0.0477 -0.8514
32432SOL    HW2 1085   7.633   4.254   1.997 -0.1453  0.8572  0.4337
32433SOL     OW 1086   2.007   4.051   0.434 -0.3687 -0.0293  0.0199
32433SOL    HW1 1087   1.952   4.119   0.471  0.6898 -0.6817  3.0503
32433SOL    HW2 1088   1.946   3.990   0.392 -1.6367  0.9369  0.4097
32434SOL     OW 1089   7.469   2.587   6.384 -0.3057  0.0944 -0.4116
32434SOL    HW1 1090   7.414   2.664   6.379 -1.0784 -0.5280 -2.4549
32434SOL    HW2 1091   7.513   2.582   6.299  1.5078 -0.4551  0.4999
32435SOL     OW 1092   7.350   9.276   5.157 -0.2665  0.3035 -0.2014
32435SOL    HW1 1093   7.441   9.283   5.188 -0.6169  1.5337  0.6166
32435SOL    HW2 1094   7.344   9.187   5.121  0.3101 -1.1574  2.9353
32436SOL     OW 1095   1.918   0.858   6.801 -0.1319  0.2160 -0.4383
32436SOL    HW1 1096   1.923   0.774   6.847 -0.6674  0.6407  0.4361
32436SOL    HW2 1097   2.007   0.892   6.802 -0.4141  1.0619  1.9878
32437SOL     OW 1098   5.420   1.199   1.014  0.9183  0.2384  0.4525
32437SOL    HW1 1099   5.373   1.119   0.990  0.7344  0.5937 -0.4390
32437SOL    HW2 1100   5.507   1.169   1.038  1.0462 -0.1883 -0.4692
32438SOL     OW 1101   0.396   2.785   6.973  0.6431 -0.4248 -0.0711
32438SOL    HW1 1102   0.489   2.807   6.964  0.4427  0.1652 -0.7782
32438SOL    HW2 1103   0.361   2.856   7.028  0.4861 -0.2880 -0.3439
32439SOL     OW 1104   7.727   4.224   6.471 -0.3163  0.1809  0.5609
32439SOL    HW1 1105   7.663   4.163   6.435 -0.4795 -0.7730  2.3377
32439SOL    HW2 1106   7.775   4.173   6.536  1.8591  1.0462 -0.2697
32440SOL     OW 1107   7.174   1.854   5.676 -0.8621  0.1289  0.1579
32440SOL    HW1 1108   7.166   1.942   5.640 -1.9610  1.3930  3.2345
32440SOL    HW2 1109   7.215   1.865   5.761  0.9310 -2.6331 -0.1950
32441SOL     OW 1110   0.896   0.502   1.751  0.1373  0.3478 -0.4810
32441SOL    HW1 1111   0.895   0.520   1.845  0.5493  2.3122 -0.8092
32441SOL    HW2 1112   0.815   0.453   1.735 -0.8939  1.6288  0.6137
32442SOL     OW 1113   4.110   2.217   8.458 -0.2938 -0.0347 -0.2487
32442SOL    HW1 1114   4.203   2.220   8.480  0.1936 -2.1602 -1.6973
32442SOL    HW2 1115   4.067   2.269   8.526  1.9319  0.9852  0.4575
32443SOL     OW 1116   6.209   2.225   1.058  0.4247  0.4561 -0.0215
32443SOL    HW1 1117   6.268   2.159   1.021  0.4947  0.6722 -0.2943
32443SOL    HW2 1118   6.260   2.267   1.127  0.7571  0.9691 -0.5753
32444SOL     OW 1119   4.056   3.258   8.221  0.0531 -0.1232 -0.1718
32444SOL    HW1 1120   4.110   3.250   8.299 -0.2670  0.8429  0.1616
32444SOL    HW2 1121   4.083   3.341   8.181 -0.8753  0.1723 -0.2230
32445SOL     OW 1122   6.388   5.617   2.304 -0.2096  0.5802  0.1808
32445SOL    HW1 1123   6.447   5.581   2.371 -1.7537  0.0784  1.3262
32445SOL    HW2 1124   6.367   5.705   2.336  1.0165  1.3285 -0.9721
32446SOL     OW 1125   7.905   0.618   2.644 -0.7465 -0.3455 -0.3470
32446SOL    HW1 1126   7.887   0.637   2.736  0.7982 -1.7326  0.2878
32446SOL    HW2 1127   7.906   0.704   2.602 -0.1506  0.4578  1.2004
32447SOL     OW 1128   8.769   7.397   5.733  0.8160 -0.0931 -0.6778
32447SOL    HW1 1129   8.800   7.486   5.746  0.9108 -0.2987  0.5590
32447SOL    HW2 1130   8.803   7.372   5.647  1.5808  0.7230 -0.6222
32448SOL     OW 1131   6.729   3.337   5.687  0.3059 -0.3700 -0.3061
32448SOL    HW1 1132   6.818   3.319   5.717  0.5476 -0.2327 -0.9261
32448SOL    HW2 1133   6.685   3.252   5.691  0.4120 -0.4054  0.1618
32449SOL     OW 1134   1.921   9.545   2.072  0.1432 -0.0914 -0.1645
32449SOL    HW1 1135   1.932   9.631   2.033  0.2856  0.5083  1.1328
32449SOL    HW2 1136   1.859   9.500   2.014  2.6444 -0.4283 -2.8087
32450SOL     OW 1137   3.279   4.610   2.221  0.1211 -0.2916  0.7799
32450SOL    HW1 1138   3.323   4.593   2.304 -0.1403  1.5416  1.3341
32450SOL    HW2 1139   3.193   4.643   2.246 -0.6883 -1.4886 -0.2633
32451SOL     OW 1140   5.003   0.653   3.547 -0.0965  0.4634 -0.2779
32451SOL    HW1 1141   5.050   0.573   3.572 -0.1542  0.1283 -1.2189
32451SOL    HW2 1142   4.931   0.658   3.609 -0.6347 -0.7252 -0.7683
32452SOL     OW 1143   7.021   8.569   0.173 -0.4338  0.2636 -0.4684
32452SOL    HW1 1144   7.090   8.577   0.240 -0.9466 -2.8407  0.5827
32452SOL    HW2 1145   7.037   8.484   0.132 -3.4093 -0.4240 -0.4015
32453SOL     OW 1146   8.516   7.090   3.221 -0.3306 -0.4142  0.1161
32453SOL    HW1 1147   8.440   7.058   3.172  0.4459 -0.2635 -1.2258
32453SOL    HW2 1148   8.578   7.018   3.218 -0.7153 -0.8598  1.9434
32454SOL     OW 1149   9.749   4.750   1.936  0.4670  0.4019  0.3896
32454SOL    HW1 1150   9.683   4.803   1.893 -0.7281 -0.1297  1.4971
32454SOL    HW2 1151   9.730   4.758   2.030  2.2017  0.5290  0.7707
32455SOL     OW 1152   4.294   8.028   8.984 -0.6823 -0.0295  0.6127
32455SOL    HW1 1153   4.299   8.014   9.078  1.0952  0.3990  0.6223
32455SOL    HW2 1154   4.206   8.064   8.970 -0.5911  0.9764  2.2717
32456SOL     OW 1155   2.557   6.288   0.473 -0.3062  0.5837 -0.1795
32456SOL    HW1 1156   2.558   6.233   0.551 -0.2034 -0.9107 -1.1810
32456SOL    HW2 1157   2.649   6.304   0.453 -0.3384  1.7343  0.4839
32457SOL     OW 1158   7.625   0.147  10.093  0.5877  0.6103 -0.0121
32457SOL    HW1 1159   7.700   0.196  10.126  0.9572 -0.6378  1.0782
32457SOL    HW2 1160   7.648   0.055  10.105 -0.7036  0.1776 -0.5932
32458SOL     OW 1161   0.003   2.511   6.524 -0.2233 -0.3864 -0.4782
32458SOL    HW1 1162   0.004   2.425   6.567 -2.0397  0.6945  1.9409
32458SOL    HW2 1163  -0.077   2.510   6.471  0.4528 -0.6032 -1.5445
32459SOL     OW 1164   4.320   0.332   1.575  0.0058  0.1337 -0.5855
32459SOL    HW1 1165   4.270   0.411   1.598  0.4951  0.5844 -1.0502
32459SOL    HW2 1166   4.268   0.290   1.506  0.2946  0.6318 -1.1083
32460SOL     OW 1167   4.914   8.359   9.268  0.1539  0.2430 -0.3829
32460SOL    HW1 1168   4.961   8.433   9.307 -0.1436 -0.2150  0.8945
32460SOL    HW2 1169   4.911   8.294   9.338  1.3746 -1.4344 -1.7922
32461SOL     OW 1170   7.405   7.103   6.303 -0.5020 -0.2769 -0.2794
32461SOL    HW1 1171   7.498   7.117   6.320 -0.3914  1.6773 -2.0357
32461SOL    HW2 1172   7.387   7.152   6.222 -2.9578 -0.9618 -0.2508
32462SOL     OW 1173   0.142   7.044   6.237  0.0692 -0.5368 -0.3845
32462SOL    HW1 1174   0.154   7.075   6.326 -2.8867 -1.6108  0.4826
32462SOL    HW2 1175   0.118   7.122   6.187  1.0439 -0.0560 -0.1189
32463SOL     OW 1176   6.577   4.462   9.122 -0.0276  0.1076 -0.2794
32463SOL    HW1 1177   6.538   4.495   9.203 -2.4452 -2.3009 -0.3336
32463SOL    HW2 1178   6.533   4.512   9.053  1.0722  1.2249 -0.2111
32464SOL     OW 1179   0.775   3.420   4.942  0.2966  0.1081 -0.1688
32464SOL    HW1 1180   0.828   3.367   4.882  0.3648 -0.8952  0.7571
32464SOL    HW2 1181   0.824   3.420   5.024 -0.7231 -0.1329  0.4588
32465SOL     OW 1182   8.116   6.471   5.942  0.2380 -0.2076  0.1087
32465SOL    HW1 1183   8.190   6.445   5.995  1.0323  2.2278  0.3257
32465SOL    HW2 1184   8.041   6.468   6.001  1.0067  1.8610  1.2954
32466SOL     OW 1185   6.348   7.027   4.612 -0.2573 -0.0571 -0.6984
32466SOL    HW1 1186   6.398   7.020   4.530 -1.3869 -0.0963 -1.4011
32466SOL    HW2 1187   6.412   7.006   4.680  0.3756 -1.3735 -1.6511
32467SOL     OW 1188   3.368  10.220   2.468 -0.2060  0.5322 -0.1383
32467SOL    HW1 1189   3.359  10.254   2.557 -2.4671  1.2979 -0.6178
32467SOL    HW2 1190   3.458  10.244   2.443  0.2492  0.8838  1.6640
32468SOL     OW 1191   6.396   0.700   5.150 -0.5117 -0.3178 -0.3713
32468SOL    HW1 1192   6.351   0.616   5.139 -1.6617  0.3632 -1.0680
32468SOL    HW2 1193   6.432   0.719   5.063 -0.2087 -0.0997 -0.2006
32469SOL     OW 1194   1.313   4.278   7.240 -0.0242  0.2855 -0.0657
32469SOL    HW1 1195   1.385   4.326   7.198 -0.7352  1.0013 -0.4986
32469SOL    HW2 1196   1.249   4.346   7.262  0.3053 -0.0538  2.1801
32470SOL     OW 1197   1.878   3.444   1.274  0.4051 -0.5247 -0.1698
32470SOL    HW1 1198   1.950   3.401   1.320 -1.7066 -1.9630  2.0255
32470SOL    HW2 1199   1.841   3.376   1.219  1.0436  0.3776 -1.7616
32471SOL     OW 1200   5.713   0.975   7.155 -0.5671  0.4812 -0.3075
32471SOL    HW1 1201   5.710   0.991   7.249  0.8585 -0.8679  0.0140
32471SOL    HW2 1202   5.673   0.888   7.144  0.9073 -0.1816 -0.6785
32472SOL     OW 1203   1.869   4.419   8.240  0.2242  0.6351  0.0683
32472SOL    HW1 1204   1.782   4.379   8.242  1.2061 -1.7045 -0.6041
32472SOL    HW2 1205   1.862   4.489   8.175 -1.6752  1.9577  1.5774
32473SOL     OW 1206   7.297   0.542   4.658 -0.0255 -0.4352  0.0202
32473SOL    HW1 1207   7.365   0.505   4.602 -0.9429 -1.9243 -0.1807
32473SOL    HW2 1208   7.288   0.633   4.630  0.2430 -0.8663 -1.5539
32474SOL     OW 1209   5.826   0.110   2.554 -0.2480  0.0511 -0.6351
32474SOL    HW1 1210   5.758   0.111   2.487 -0.4374 -0.5146 -0.4539
32474SOL    HW2 1211   5.884   0.182   2.530 -0.2681 -0.1960 -1.4514
32475SOL     OW 1212   7.476   7.898   2.302  0.3673 -0.6196 -0.4579
32475SOL    HW1 1213   7.461   7.803   2.306  3.3248 -1.1430  1.5344
32475SOL    HW2 1214   7.549   7.908   2.241  2.2280 -0.0667  1.7410
32476SOL     OW 1215   4.460   0.299   9.299  0.1755 -0.2410 -0.0664
32476SOL    HW1 1216   4.535   0.240   9.313  1.5675  0.9452 -2.0755
32476SOL    HW2 1217   4.484   0.379   9.346 -0.3709 -0.2436  0.2198
32477SOL     OW 1218   9.097   5.388   7.121 -0.6251 -0.3158 -0.6641
32477SOL    HW1 1219   9.064   5.385   7.211 -1.6988 -1.0066 -1.0506
32477SOL    HW2 1220   9.166   5.322   7.119 -0.7055 -0.4126 -0.3791
32478SOL     OW 1221   3.948   4.999   4.731 -0.1379 -0.3481  0.1401
32478SOL    HW1 1222   3.973   5.055   4.658 -0.6365 -0.9982 -0.5460
32478SOL    HW2 1223   3.863   5.033   4.759  0.0774 -0.0670  0.4494
32479SOL     OW 1224   7.449   0.995   5.447 -0.0818  0.5706  0.3196
32479SOL    HW1 1225   7.537   1.030   5.431 -0.0342  1.2474  1.9368
32479SOL    HW2 1226   7.404   1.006   5.363  1.2280  0.6553 -0.3929
32480SOL     OW 1227   2.503  10.197   3.335 -0.1456  0.4428  0.0334
32480SOL    HW1 1228   2.415  10.231   3.320 -0.5406 -0.9594 -1.0040
32480SOL    HW2 1229   2.508  10.183   3.429 -1.2170  0.0597  0.0416
32481SOL     OW 1230   2.276   4.515   0.154 -0.2041  0.5311  0.6365
32481SOL    HW1 1231   2.203   4.454   0.144  1.4311 -1.5565  0.7125
32481SOL    HW2 1232   2.309   4.497   0.242  1.2672  0.3756  0.0728
32482SOL     OW 1233   1.688   0.065   1.481 -0.0663  0.5202  0.0554
32482SOL    HW1 1234   1.699   0.007   1.406 -0.3041  0.6738 -0.0988
32482SOL    HW2 1235   1.614   0.121   1.458 -0.4248  0.2777  0.5887
32483SOL     OW 1236   0.872   9.505   7.268  0.2325 -0.3368  0.3795
32483SOL    HW1 1237   0.800   9.472   7.214  0.3277  0.6019 -0.3316
32483SOL    HW2 1238   0.873   9.599   7.252  1.5461 -0.3211  0.4687
32484SOL     OW 1239   0.925   6.103   1.543 -0.8413  0.6687  0.3183
32484SOL    HW1 1240   0.856   6.115   1.608 -2.0071 -1.3077 -0.4486
32484SOL    HW2 1241   0.957   6.191   1.525 -2.3483  1.5311  1.5824
32485SOL     OW 1242   5.489   8.562   3.923 -0.8921 -0.0915 -0.1153
32485SOL    HW1 1243   5.479   8.478   3.968 -0.3842 -0.2671 -0.3212
32485SOL    HW2 1244   5.520   8.622   3.991 -1.9814  0.1288  0.2122
32486SOL     OW 1245   8.609   7.172   6.411  0.6840  0.0273  0.0526
32486SOL    HW1 1246   8.639   7.257   6.379  1.4096  0.1794  1.0825
32486SOL    HW2 1247   8.669   7.109   6.371  0.7111  0.0907 -0.0069
32487SOL     OW 1248   2.880   9.205   2.035  0.4328 -0.1965  0.7689
32487SOL    HW1 1249   2.960   9.167   2.073 -0.1012 -2.0920  0.1053
32487SOL    HW2 1250   2.879   9.174   1.945 -0.6515  0.4803  0.5303
32488SOL     OW 1251   4.640   1.737   1.295 -0.1945 -0.5811 -0.0587
32488SOL    HW1 1252   4.586   1.741   1.216  0.0423  1.0215 -0.1772
32488SOL    HW2 1253   4.583   1.771   1.364 -0.1518 -1.2778  0.3325
32489SOL     OW 1254   4.098   9.161   2.336  0.2322 -0.5660  0.5697
32489SOL    HW1 1255   4.047   9.081   2.354 -0.2560  0.0581  2.1506
32489SOL    HW2 1256   4.144   9.179   2.418 -1.1835  1.8407  0.9300
32490SOL     OW 1257  10.258   3.718   3.786 -0.4221  0.0938 -0.1502
32490SOL    HW1 1258  10.323   3.788   3.797 -0.2821  0.0124 -0.4581
32490SOL    HW2 1259  10.196   3.752   3.722  0.7695 -0.8391 -1.8921
32491SOL     OW 1260   5.841   7.246   1.321 -0.0273 -0.6435  0.3040
32491SOL    HW1 1261   5.914   7.286   1.370  0.0778 -0.6478  0.1532
32491SOL    HW2 1262   5.763   7.270   1.371  0.0111 -0.0403  0.0846
32492SOL     OW 1263   6.497   4.075   3.518 -0.0619  0.2039 -0.0987
32492SOL    HW1 1264   6.575   4.031   3.553 -1.3248 -2.5759 -0.4876
32492SOL    HW2 1265   6.466   4.129   3.591  0.7989 -0.6551  0.9430
32493SOL     OW 1266   8.130   5.836   5.375  0.5044 -0.6049  0.1707
32493SOL    HW1 1267   8.210   5.817   5.423 -0.3976 -0.0217  2.0119
32493SOL    HW2 1268   8.059   5.813   5.436 -0.6798  1.8416 -0.1483
32494SOL     OW 1269   0.621   7.204   5.095  0.1803 -0.1370  0.0235
32494SOL    HW1 1270   0.620   7.108   5.094  0.2167 -0.1372  0.1128
32494SOL    HW2 1271   0.552   7.228   5.032  0.9919 -0.2176 -0.9225
32495SOL     OW 1272   3.339   1.287   2.705  0.3494 -0.0605  0.7546
32495SOL    HW1 1273   3.384   1.205   2.685 -0.3443 -0.6183  1.4503
32495SOL    HW2 1274   3.311   1.278   2.796 -0.1215  0.7714  0.7012
32496SOL     OW 1275  10.214   0.017   0.072 -0.8472  0.2985 -0.0286
32496SOL    HW1 1276  10.216  -0.029  -0.012  0.6752 -0.3029  0.3088
32496SOL    HW2 1277  10.191   0.107   0.049  1.2702  0.5749 -1.3642
32497SOL     OW 1278   2.691   1.308   9.512  0.0487 -0.7641 -0.1178
32497SOL    HW1 1279   2.755   1.236   9.512 -0.4515 -1.2321  0.7099
32497SOL    HW2 1280   2.722   1.368   9.580  1.6094  0.9129 -2.1744
32498SOL     OW 1281   9.814   5.746   7.243  0.4311  1.0628 -0.2939
32498SOL    HW1 1282   9.824   5.666   7.191 -2.0806  0.7734 -0.4560
32498SOL    HW2 1283   9.768   5.717   7.322 -3.0517  2.6493 -1.5608
32499SOL     OW 1284   8.633   3.225   9.660  0.2779 -0.3078 -0.1502
32499SOL    HW1 1285   8.689   3.164   9.708  0.2593 -0.0881  0.1544
32499SOL    HW2 1286   8.586   3.171   9.597 -0.6187 -0.7969  0.9168
32500SOL     OW 1287   5.206  10.019   3.551 -0.1756  0.1623 -0.5378
32500SOL    HW1 1288   5.188  10.113   3.554 -1.0848  0.0011 -0.7383
32500SOL    HW2 1289   5.271  10.005   3.620  0.3798  1.0249 -0.8807
32501SOL     OW 1290   3.851   9.837   6.652  0.1770  0.2645  0.5539
32501SOL    HW1 1291   3.889   9.924   6.636 -0.8066  0.5005 -0.6246
32501SOL    HW2 1292   3.834   9.802   6.565 -0.7474 -0.5173  1.0379
32502SOL     OW 1293   4.198   3.531   9.932  0.7077 -0.0990  0.1370
32502SOL    HW1 1294   4.123   3.566   9.884  0.0537 -1.2301  0.3041
32502SOL    HW2 1295   4.264   3.600   9.927 -1.1098  1.8946  1.9236
32503SOL     OW 1296  10.257   9.061   8.362  0.5804  0.0191 -0.5156
32503SOL    HW1 1297  10.341   9.079   8.405  0.4291 -0.7666  0.1476
32503SOL    HW2 1298  10.237   9.141   8.314  2.2906 -0.2036 -1.6929
32504SOL     OW 1299   5.984   6.497   9.187  0.1491  0.2596 -0.0279
32504SOL    HW1 1300   6.064   6.458   9.153  0.1387 -0.9903  1.2992
32504SOL    HW2 1301   5.914   6.442   9.151  0.0203  0.1855  0.3282
32505SOL     OW 1302   4.685   5.482   3.946 -0.3065 -0.3426  0.0474
32505SOL    HW1 1303   4.596   5.494   3.912 -0.1925 -0.4461 -0.2887
32505SOL    HW2 1304   4.705   5.565   3.990 -0.7182 -0.4650  0.4730
32506SOL     OW 1305   1.534   0.585  10.062  0.3267  0.2190 -0.0708
32506SOL    HW1 1306   1.551   0.591   9.968  0.4704 -0.4340 -0.0890
32506SOL    HW2 1307   1.467   0.651  10.079 -0.7933 -0.6729 -0.9038
32507SOL     OW 1308   8.725   1.200   2.963  0.4865 -0.4928  0.2260
32507SOL    HW1 1309   8.696   1.272   3.019 -0.8807  0.1315 -1.2432
32507SOL    HW2 1310   8.797   1.159   3.012  0.1311  0.7769  1.8667
32508SOL     OW 1311  10.313   8.695   5.041  0.1095  0.1762 -0.1515
32508SOL    HW1 1312  10.299   8.605   5.070 -1.3941  0.0565 -1.1680
32508SOL    HW2 1313  10.292   8.749   5.118  2.4299 -0.3184  0.9434
32509SOL     OW 1314   1.705   4.640   2.205  0.3300  0.0400 -0.2709
32509SOL    HW1 1315   1.663   4.625   2.120 -0.0774  1.9388 -0.4532
32509SOL    HW2 1316   1.796   4.616   2.191  1.4276  4.5657 -2.7374
32510SOL     OW 1317   9.025   0.549   2.139 -0.4220 -0.3546  0.2931
32510SOL    HW1 1318   9.073   0.515   2.215  1.9007 -2.1814 -1.8329
32510SOL    HW2 1319   8.943   0.500   2.139  0.3843 -1.7643  0.5715
32511SOL     OW 1320   7.329   5.057   8.227  0.5226 -0.2507  0.0855
32511SOL    HW1 1321   7.370   5.141   8.205 -0.3977  0.3286  0.5066
32511SOL    HW2 1322   7.268   5.041   8.155  1.6992 -1.2790 -0.7154
32512SOL     OW 1323   3.613   8.105   9.154  0.2660  0.3457 -0.3142
32512SOL    HW1 1324   3.654   8.186   9.183  2.7447 -0.4427 -1.3894
32512SOL    HW2 1325   3.619   8.047   9.230 -0.0091  0.6123 -0.0825
32513SOL     OW 1326   8.311   5.417  10.105  0.2715  0.9767  0.0251
32513SOL    HW1 1327   8.333   5.507  10.081 -0.8252  0.7820 -1.8827
32513SOL    HW2 1328   8.253   5.426  10.180  0.6864  1.8225  0.2622
32514SOL     OW 1329   6.594   5.268   5.483 -0.2052  0.1674 -0.5657
32514SOL    HW1 1330   6.555   5.284   5.397 -0.4804 -1.2926 -0.7443
32514SOL    HW2 1331   6.547   5.191   5.516 -0.0006  0.6212  0.8312
32515SOL     OW 1332   9.267   3.161   6.837  0.1248  0.0289 -0.7167
32515SOL    HW1 1333   9.250   3.230   6.773 -0.6417  0.9323  0.4254
32515SOL    HW2 1334   9.362   3.146   6.831 -0.0272 -0.3784 -2.5053
32516SOL     OW 1335   6.607   4.915   8.986  0.1704  0.5166  0.5294
32516SOL    HW1 1336   6.697   4.890   9.005 -0.6073 -1.3040  2.2334
32516SOL    HW2 1337   6.572   4.943   9.070 -1.4575 -0.9985  0.4245
32517SOL     OW 1338   9.875   4.981   7.819 -0.4085 -0.0295  0.5652
32517SOL    HW1 1339   9.845   4.960   7.730 -0.1040 -0.5483  0.5825
32517SOL    HW2 1340   9.849   5.072   7.832  1.1544  0.6588 -0.7551
32518SOL     OW 1341   8.286   8.667   3.862  0.1419  0.0564 -1.0206
32518SOL    HW1 1342   8.249   8.727   3.927  1.5681 -0.9709  0.8709
32518SOL    HW2 1343   8.211   8.617   3.831 -0.3458 -1.2380  1.8787
32519SOL     OW 1344   2.551   8.518   4.228  1.1438  0.1463  0.6618
32519SOL    HW1 1345   2.514   8.452   4.169  1.8501  1.0202 -0.8223
32519SOL    HW2 1346   2.642   8.526   4.200  1.4903  0.6062  1.8791
32520SOL     OW 1347   8.033   7.878   1.362  0.6995 -0.1256 -0.2430
32520SOL    HW1 1348   8.014   7.833   1.280  1.4263 -1.5973  0.3563
32520SOL    HW2 1349   8.063   7.965   1.336 -1.3177  0.2939 -1.4120
32521SOL     OW 1350   3.786   7.851   5.660  0.2508  0.0159 -0.1120
32521SOL    HW1 1351   3.695   7.877   5.647 -1.0434 -4.1947 -0.6389
32521SOL    HW2 1352   3.808   7.798   5.584  2.4149 -0.8976  1.0624
32522SOL     OW 1353   9.903   1.114   3.827 -0.1792 -0.1451 -0.0042
32522SOL    HW1 1354   9.969   1.183   3.820  0.1267 -0.4474 -0.1072
32522SOL    HW2 1355   9.886   1.088   3.736 -1.5948  1.0117 -0.1151
32523SOL     OW 1356   1.099   2.025   4.415 -0.2716  0.1670 -0.6808
32523SOL    HW1 1357   1.128   2.084   4.485  0.4518 -1.1231  0.1502
32523SOL    HW2 1358   1.021   2.067   4.379  0.3350  1.7268 -0.2710
32524SOL     OW 1359   9.409   9.283   1.516  0.4000  0.1364 -0.0295
32524SOL    HW1 1360   9.379   9.319   1.599  0.1024 -0.6041  0.1878
32524SOL    HW2 1361   9.478   9.343   1.488 -0.0555  0.8550  0.3406
32525SOL     OW 1362   5.234  10.248   6.598  0.5115 -0.0843  0.0088
32525SOL    HW1 1363   5.249  10.198   6.518  1.4855 -1.8725  1.2480
32525SOL    HW2 1364   5.304  10.313   6.599  0.9321 -0.5312 -0.2187
32526SOL     OW 1365   4.715   4.141   6.212 -0.2125 -0.0291 -0.2602
32526SOL    HW1 1366   4.743   4.060   6.171  1.8412  1.2968 -1.6249
32526SOL    HW2 1367   4.690   4.198   6.140 -1.7958  0.5620  0.6819
32527SOL     OW 1368   6.613   0.210   4.543  0.0651  0.0897 -0.0554
32527SOL    HW1 1369   6.641   0.294   4.579  1.1687 -1.1121  2.0493
32527SOL    HW2 1370   6.691   0.155   4.543 -0.4832 -0.7905 -1.9980
32528SOL     OW 1371   1.280   3.979   4.101  0.1937  1.3298  0.1031
32528SOL    HW1 1372   1.267   4.046   4.034  1.0756 -0.1435 -1.6154
32528SOL    HW2 1373   1.293   3.898   4.052 -0.0741  0.0168  2.1007
32529SOL     OW 1374   8.223   0.153   4.392 -0.2585  0.5521 -0.4079
32529SOL    HW1 1375   8.282   0.078   4.387 -0.8053  0.0505  0.3568
32529SOL    HW2 1376   8.176   0.153   4.308 -0.1192  0.1514 -0.4864
32530SOL     OW 1377   6.701   9.865   9.757 -0.4709 -0.6681 -0.2178
32530SOL    HW1 1378   6.710   9.797   9.823  0.4031 -1.2430 -0.9146
32530SOL    HW2 1379   6.782   9.860   9.706 -0.2046  1.1276 -0.0663
32531SOL     OW 1380   4.384   5.358   1.585 -0.4814 -0.2179 -0.7240
32531SOL    HW1 1381   4.477   5.355   1.605 -0.2891 -0.2375 -1.5955
32531SOL    HW2 1382   4.346   5.412   1.654  0.0900 -0.6611 -0.0594
32532SOL     OW 1383   5.959   5.935   3.367 -0.1053 -0.1655  0.4657
32532SOL    HW1 1384   5.902   5.922   3.291  0.6562 -2.7080  0.2149
32532SOL    HW2 1385   5.937   6.022   3.399 -2.2057  0.0077 -1.1941
32533SOL     OW 1386   5.954   8.711   3.915  0.0303 -0.1318  0.3150
32533SOL    HW1 1387   5.958   8.685   3.823 -0.9857  0.0159  0.2217
32533SOL    HW2 1388   5.901   8.643   3.957  1.0146 -0.5506  0.9381
32534SOL     OW 1389   6.037   0.490   0.879 -0.7252 -0.1591 -0.0207
32534SOL    HW1 1390   6.104   0.532   0.824  0.1897  0.4205  1.4846
32534SOL    HW2 1391   5.998   0.423   0.823 -0.9429  1.4560 -1.9089
32535SOL     OW 1392   3.554   2.862   2.249 -0.0475  0.1969 -0.1382
32535SOL    HW1 1393   3.605   2.804   2.306  0.8459  0.1314 -0.9714
32535SOL    HW2 1394   3.598   2.856   2.164 -3.1743 -2.2331 -1.8217
32536SOL     OW 1395   7.425   9.001   3.080 -0.0871 -0.2982  0.4794
32536SOL    HW1 1396   7.478   9.029   3.154  0.2580 -2.8688  1.2838
32536SOL    HW2 1397   7.337   8.990   3.115 -0.6286  1.3505 -0.2414
32537SOL     OW 1398   6.322   2.313   8.739 -0.1105  0.4217  0.6293
32537SOL    HW1 1399   6.259   2.248   8.773 -1.9246  2.1761  0.8095
32537SOL    HW2 1400   6.333   2.375   8.811 -1.1296  2.1695 -0.6603
32538SOL     OW 1401   6.264   7.820   3.858  0.2484  0.0764  0.0700
32538SOL    HW1 1402   6.173   7.797   3.879  1.3441 -3.5071  1.5670
32538SOL    HW2 1403   6.288   7.884   3.924 -1.3912  1.8156 -0.9161
32539SOL     OW 1404   7.043   8.957   0.111  0.0394  0.3899 -0.0964
32539SOL    HW1 1405   6.990   9.037   0.113  0.9958  1.0291  0.9995
32539SOL    HW2 1406   7.133   8.989   0.102  0.6494 -0.4215  2.4706
32540SOL     OW 1407   5.742   5.242   5.999 -0.3352 -0.3179  0.6654
32540SOL    HW1 1408   5.818   5.244   5.941  0.5903  1.1712  1.8366
32540SOL    HW2 1409   5.693   5.165   5.973 -0.4444  0.7320 -2.6798
32541SOL     OW 1410   3.598   3.351   8.969  0.2424 -0.1708 -0.0119
32541SOL    HW1 1411   3.640   3.265   8.971  2.5543  0.5211 -4.6681
32541SOL    HW2 1412   3.665   3.411   8.999  0.9099  0.4298 -2.4487
32542SOL     OW 1413   3.075   4.847   8.268 -0.2537 -0.2775 -0.1961
32542SOL    HW1 1414   3.102   4.892   8.348  0.9979  0.0438 -0.7762
32542SOL    HW2 1415   2.990   4.810   8.289  0.7455 -1.5895  1.8483
32543SOL     OW 1416   2.917   2.318   5.029  0.5861 -0.3374 -0.0796
32543SOL    HW1 1417   3.006   2.299   5.056 -0.3250 -1.9825  2.0510
32543SOL    HW2 1418   2.900   2.256   4.957  0.2228 -2.2765  1.5833
32544SOL     OW 1419   9.662   9.492   2.423  0.1595 -0.1757 -0.0715
32544SOL    HW1 1420   9.733   9.551   2.445 -0.3479  0.2131  0.5433
32544SOL    HW2 1421   9.658   9.430   2.495  0.3440 -0.6412 -0.4561
32545SOL     OW 1422   4.771   8.046   2.262  0.4203  0.4389 -0.0224
32545SOL    HW1 1423   4.857   8.061   2.224  0.4692 -0.4886 -0.2943
32545SOL    HW2 1424   4.712   8.034   2.187  0.4491 -1.0102  0.1573
32546SOL     OW 1425   9.282   5.748   4.967 -0.1036 -0.1533 -0.3353
32546SOL    HW1 1426   9.292   5.839   4.939  0.5229 -0.4610 -1.1707
32546SOL    HW2 1427   9.199   5.720   4.927 -1.2646  0.5607  1.4369
32547SOL     OW 1428  10.045   7.298   2.041 -0.0058 -0.1627  0.3317
32547SOL    HW1 1429   9.957   7.261   2.047  0.2929 -1.2268 -1.1763
32547SOL    HW2 1430  10.102   7.229   2.075  0.2919  0.2833  0.7357
32548SOL     OW 1431   0.654   4.133   1.738  0.5450 -0.1226  0.5060
32548SOL    HW1 1432   0.658   4.065   1.672  1.0088  1.2959 -1.0029
32548SOL    HW2 1433   0.566   4.125   1.775 -0.5081  0.2661 -1.7092
32549SOL     OW 1434   8.207   8.483   0.276  0.2751 -0.1611 -0.6253
32549SOL    HW1 1435   8.221   8.506   0.368  2.5367  2.5232 -1.5155
32549SOL    HW2 1436   8.113   8.496   0.262 -0.4190 -2.1354  1.5821
32550SOL     OW 1437   2.761   3.053   1.320 -0.0880  0.2717 -0.2543
32550SOL    HW1 1438   2.817   3.123   1.354 -0.5347  0.0592  0.9749
32550SOL    HW2 1439   2.717   3.018   1.397  1.4827 -2.6005 -0.5136
32551SOL     OW 1440   0.773   1.246   5.775  0.1349  0.0167  0.2939
32551SOL    HW1 1441   0.846   1.294   5.814 -0.1680  0.0973  0.7726
32551SOL    HW2 1442   0.804   1.156   5.767  0.6718  0.2602 -0.5166
32552SOL     OW 1443   3.020   3.536   1.450  0.0114  0.1985 -0.1356
32552SOL    HW1 1444   3.041   3.582   1.369  0.8168  0.7532  0.3762
32552SOL    HW2 1445   2.931   3.504   1.436 -0.2878  1.2536 -0.8023
32553SOL     OW 1446   1.342   7.071   4.974 -0.2181  0.0875 -0.2131
32553SOL    HW1 1447   1.298   6.990   4.948  1.0279 -0.1359 -1.6994
32553SOL    HW2 1448   1.394   7.046   5.051 -0.2176 -0.3973 -0.3683
32554SOL     OW 1449   3.907   9.841   7.205  0.0341  0.4954 -0.1522
32554SOL    HW1 1450   3.891   9.823   7.112 -1.3864 -1.4423  0.3845
32554SOL    HW2 1451   3.829   9.807   7.249 -0.2086  3.0947  1.6276
32555SOL     OW 1452   7.529   0.919   9.975 -0.0807 -0.6784  0.3610
32555SOL    HW1 1453   7.435   0.912   9.957 -0.5861 -1.8719  2.9419
32555SOL    HW2 1454   7.544   1.012   9.990 -0.8674 -0.4899 -0.0073
32556SOL     OW 1455   9.991   3.557   5.668  0.3725  0.1305  0.5903
32556SOL    HW1 1456  10.017   3.505   5.744  2.0953  0.7532  0.4699
32556SOL    HW2 1457   9.922   3.506   5.626  1.3901 -1.6301  0.9774
32557SOL     OW 1458   4.376   1.131   4.215  0.0787  0.0185 -0.6703
32557SOL    HW1 1459   4.452   1.072   4.216 -0.0230 -0.1148 -0.8273
32557SOL    HW2 1460   4.335   1.119   4.301  0.9952  1.0799 -0.0605
32558SOL     OW 1461   4.931   2.337   8.746 -0.2010 -0.1578 -0.1439
32558SOL    HW1 1462   4.948   2.341   8.840 -1.4714  0.5116  0.0853
32558SOL    HW2 1463   5.007   2.379   8.706 -0.6472  1.6003  0.7366
32559SOL     OW 1464   3.994   4.319  10.172  0.0590  0.0440 -0.3382
32559SOL    HW1 1465   4.031   4.231  10.170 -0.1799 -0.1626  1.9024
32559SOL    HW2 1466   3.968   4.336  10.082 -0.8948 -2.6124 -0.6561
32560SOL     OW 1467   7.432   1.571   8.800  0.3225 -0.0287  0.0526
32560SOL    HW1 1468   7.447   1.615   8.716 -0.3594 -1.1508 -0.6824
32560SOL    HW2 1469   7.341   1.593   8.822 -0.4218 -1.9551 -0.9059
32561SOL     OW 1470   9.704   9.934   0.853  0.0984 -0.0878  0.5087
32561SOL    HW1 1471   9.731   9.899   0.768  1.7531  0.2985  0.8332
32561SOL    HW2 1472   9.768   9.897   0.915 -1.5439 -0.9957  1.7238
32562SOL     OW 1473   5.482   7.621   9.518 -0.7277  0.5241  0.0333
32562SOL    HW1 1474   5.455   7.530   9.502 -1.9664  0.6138  1.3794
32562SOL    HW2 1475   5.565   7.630   9.471 -1.4078 -0.7961 -1.5388
32563SOL     OW 1476   9.475   9.848   0.155  0.1543  0.3946  0.2361
32563SOL    HW1 1477   9.561   9.823   0.189  0.4005  0.1520 -0.5353
32563SOL    HW2 1478   9.486   9.846   0.060 -0.9173 -0.4173  0.1104
32564SOL     OW 1479   1.189   8.085   0.711 -0.8862 -0.2746 -0.1089
32564SOL    HW1 1480   1.225   8.167   0.744 -1.7800  0.0465  0.1062
32564SOL    HW2 1481   1.216   8.019   0.776  0.1796 -0.2352 -0.4983
32565SOL     OW 1482   4.638   4.455   2.724  0.0608  0.1323  0.5425
32565SOL    HW1 1483   4.632   4.431   2.816 -1.5756  0.4379  0.5425
32565SOL    HW2 1484   4.697   4.530   2.722 -1.7259  1.6664  1.6938
32566SOL     OW 1485   8.145   7.218   7.640  0.4025  0.3465 -0.0080
32566SOL    HW1 1486   8.069   7.194   7.587 -0.0590  1.9348 -0.1049
32566SOL    HW2 1487   8.215   7.160   7.608  0.3205  1.6201 -2.8682
32567SOL     OW 1488   8.368   1.799   4.190  0.1384  0.0353  0.3802
32567SOL    HW1 1489   8.438   1.745   4.228 -0.0350  0.0082  0.6597
32567SOL    HW2 1490   8.343   1.859   4.261  0.1062  0.2677  0.1731
32568SOL     OW 1491   0.025   9.852   6.687 -0.0923 -0.5785 -0.3084
32568SOL    HW1 1492  -0.044   9.909   6.720 -0.3102 -0.5470 -0.8158
32568SOL    HW2 1493   0.095   9.860   6.752 -0.4389 -0.3703  0.0465
32569SOL     OW 1494   0.444   9.420   1.937  0.2295 -0.4512 -0.0598
32569SOL    HW1 1495   0.497   9.491   1.899  0.4837 -0.9370 -0.6237
32569SOL    HW2 1496   0.359   9.460   1.953  0.4687  0.0747 -0.0514
32570SOL     OW 1497   0.647   4.378   3.409 -0.4298  0.4372 -0.0006
32570SOL    HW1 1498   0.737   4.408   3.394 -0.5698  0.6846 -0.3524
32570SOL    HW2 1499   0.627   4.407   3.498  0.5090 -1.2949  0.8200
32571SOL     OW 1500   6.039   2.780   3.703  0.0862 -0.0470  0.0077
32571SOL    HW1 1501   6.094   2.773   3.625  0.8915  0.4832  0.5092
32571SOL    HW2 1502   6.012   2.872   3.706 -2.3012 -0.6327 -1.1729
32572SOL     OW 1503   5.295   3.686   4.640  0.3536 -0.2722  0.0580
32572SOL    HW1 1504   5.308   3.771   4.597 -1.3232  1.2911  2.4020
32572SOL    HW2 1505   5.203   3.687   4.668  0.3863 -2.7444  0.4692
32573SOL     OW 1506   0.874   2.172   4.323  0.3304  0.2050  0.4455
32573SOL    HW1 1507   0.871   2.258   4.365 -0.0045 -0.2958  1.4713
32573SOL    HW2 1508   0.835   2.187   4.237 -1.1897  0.7685  1.1969
32574SOL     OW 1509   7.780   3.815   9.073  0.9641 -0.3759  0.2554
32574SOL    HW1 1510   7.725   3.754   9.123  1.5958  0.1366  1.6419
32574SOL    HW2 1511   7.777   3.896   9.124  1.3603  0.2756 -0.7524
32575SOL     OW 1512   8.888   9.594   3.155 -0.7113 -0.2345  0.4846
32575SOL    HW1 1513   8.834   9.631   3.225 -0.5444 -0.3637  0.6803
32575SOL    HW2 1514   8.856   9.637   3.075 -1.8995 -1.1439  0.4345
32576SOL     OW 1515   2.640   4.303   3.577 -0.1881 -0.7421 -0.3414
32576SOL    HW1 1516   2.635   4.373   3.513 -1.4145 -1.6954 -1.3449
32576SOL    HW2 1517   2.632   4.223   3.525  2.8269 -1.7618  0.5426
32577SOL     OW 1518   4.072   3.415   9.659 -0.1692 -0.1601  0.3756
32577SOL    HW1 1519   4.022   3.374   9.588 -1.6940  1.2277  0.5734
32577SOL    HW2 1520   4.077   3.347   9.726 -2.5973 -0.1513  0.6773
32578SOL     OW 1521   7.322   0.064   9.792 -0.4772  0.0948  0.3957
32578SOL    HW1 1522   7.389   0.049   9.725  0.1995  2.0565  0.5639
32578SOL    HW2 1523   7.363   0.035   9.874  0.4906  1.8837  0.5989
32579SOL     OW 1524   4.508   1.047   5.556 -0.2266  0.2124 -0.5531
32579SOL    HW1 1525   4.531   1.071   5.466  0.5907  0.8028 -0.1984
32579SOL    HW2 1526   4.440   0.980   5.546  1.0123 -0.9471 -1.6375
32580SOL     OW 1527   5.162   5.174   9.448  0.1222  0.1395 -0.5504
32580SOL    HW1 1528   5.077   5.168   9.406 -0.3347 -1.0886  0.5048
32580SOL    HW2 1529   5.157   5.115   9.523  1.4985  0.9421  0.2307
32581SOL     OW 1530   9.703   1.037   9.962 -0.4590  0.0653  0.0733
32581SOL    HW1 1531   9.757   0.965   9.929 -1.0135 -0.8398  1.0911
32581SOL    HW2 1532   9.627   1.038   9.905 -0.2508  0.1369 -0.2091
32582SOL     OW 1533   6.093   2.591   2.215 -0.2681  0.0031  0.3183
32582SOL    HW1 1534   6.067   2.525   2.151 -0.1563  0.9618 -0.7488
32582SOL    HW2 1535   6.043   2.569   2.294  1.4410 -2.6888  0.7720
32583SOL     OW 1536   0.969   8.121   8.401  0.1619  0.1026 -0.1175
32583SOL    HW1 1537   1.036   8.054   8.414  1.3192  0.8908 -1.6953
32583SOL    HW2 1538   0.889   8.072   8.383  0.5212 -0.8512  0.7458
32584SOL     OW 1539   9.386   3.986   6.463 -0.3407 -0.2358  0.2725
32584SOL    HW1 1540   9.417   3.992   6.373  0.8024 -1.0611  0.5907
32584SOL    HW2 1541   9.466   3.988   6.516 -0.8407 -1.7651  1.1458
32585SOL     OW 1542   3.896   8.662   5.543 -0.2852 -0.2640  0.1660
32585SOL    HW1 1543   3.881   8.596   5.474 -0.0208  0.3439 -0.4834
32585SOL    HW2 1544   3.816   8.714   5.543  0.1295  0.3874 -0.4160
32586SOL     OW 1545   9.794   8.612   5.122  0.0744  0.3365  0.4495
32586SOL    HW1 1546   9.880   8.646   5.096  1.0065 -0.5509  2.2026
32586SOL    HW2 1547   9.793   8.522   5.088  0.3239 -0.0205  1.3452
32587SOL     OW 1548   4.833   0.711   8.193 -0.3512  0.1103 -0.6978
32587SOL    HW1 1549   4.773   0.717   8.267  1.6225  0.1132  0.9853
32587SOL    HW2 1550   4.850   0.802   8.169  0.2326  0.1709 -0.0844
32588SOL     OW 1551   6.214   1.128   4.965  0.2612  0.4696 -0.1457
32588SOL    HW1 1552   6.147   1.196   4.955 -0.0172  0.4433  1.3715
32588SOL    HW2 1553   6.177   1.052   4.921 -1.0729  0.2368  1.2957
32589SOL     OW 1554   8.770   7.845   7.219 -0.8104  0.1599 -0.0794
32589SOL    HW1 1555   8.756   7.763   7.266  1.5330 -0.6559 -0.6689
32589SOL    HW2 1556   8.792   7.819   7.130 -1.0958  1.4864 -0.5641
32590SOL     OW 1557   0.502   9.718   2.611  0.0742 -0.1467 -0.3251
32590SOL    HW1 1558   0.446   9.668   2.671 -0.4573 -0.0160 -0.7061
32590SOL    HW2 1559   0.556   9.651   2.569 -0.0626 -0.3199 -0.2307
32591SOL     OW 1560   7.337   1.544   3.474 -0.1964  0.6749  0.0457
32591SOL    HW1 1561   7.344   1.473   3.537  0.2617  1.3668  0.7860
32591SOL    HW2 1562   7.251   1.531   3.433  0.1477 -0.6852 -0.3130
32592SOL     OW 1563   3.238   6.163   4.597 -0.3828 -0.5686 -0.0885
32592SOL    HW1 1564   3.279   6.088   4.555  2.7350 -0.5445  2.4193
32592SOL    HW2 1565   3.167   6.126   4.650 -1.3384 -1.1630 -1.7226
32593SOL     OW 1566   6.292   5.183   1.312 -0.6268 -0.4216  0.1168
32593SOL    HW1 1567   6.368   5.156   1.364 -1.2676  0.6345  1.6871
32593SOL    HW2 1568   6.322   5.259   1.262 -0.6768  0.1229  0.8930
32594SOL     OW 1569  10.122   4.676   9.558  0.4778  0.2660 -0.0879
32594SOL    HW1 1570  10.131   4.614   9.630 -0.7578 -2.3382 -2.0088
32594SOL    HW2 1571  10.040   4.721   9.576 -0.7122 -1.5734 -0.6219
32595SOL     OW 1572   3.536   8.482   1.269  0.1622 -0.9602 -0.1277
32595SOL    HW1 1573   3.466   8.519   1.214 -1.4654 -1.5733  1.4343
32595SOL    HW2 1574   3.586   8.558   1.298  0.4578 -0.5493 -1.6563
32596SOL     OW 1575   6.535   0.728   2.733  0.2809 -0.0360 -0.3212
32596SOL    HW1 1576   6.567   0.639   2.719  1.0286  0.3839 -1.4228
32596SOL    HW2 1577   6.590   0.763   2.803 -0.0374 -0.4436  0.1394
32597SOL     OW 1578   9.103   3.749   4.527  0.4836 -0.4082 -0.2411
32597SOL    HW1 1579   9.127   3.832   4.484 -0.0566 -0.4153 -0.5620
32597SOL    HW2 1580   9.054   3.701   4.461  0.1773 -0.6845  0.1820
32598SOL     OW 1581   5.562   8.884   1.969  0.3744  0.3750 -0.3276
32598SOL    HW1 1582   5.655   8.902   1.954  0.7671 -1.1937  0.0938
32598SOL    HW2 1583   5.535   8.951   2.031  0.9060  1.5799 -1.3385
32599SOL     OW 1584   1.368   6.931   5.687 -0.6084 -0.5152  0.5445
32599SOL    HW1 1585   1.358   7.026   5.681 -2.0752 -0.6588  0.3221
32599SOL    HW2 1586   1.278   6.898   5.693 -0.0911 -1.8329  1.4974
32600SOL     OW 1587   3.028   7.682   4.172 -0.1734 -0.3852  0.1041
32600SOL    HW1 1588   3.043   7.589   4.153 -1.7341 -0.7780  0.5859
32600SOL    HW2 1589   3.084   7.701   4.248  1.3668 -0.4747 -0.9749
32601SOL     OW 1590   7.757   6.992   7.776 -0.2988 -0.5214 -0.1786
32601SOL    HW1 1591   7.780   7.027   7.862 -1.9508  0.0072  0.0784
32601SOL    HW2 1592   7.840   6.960   7.740  0.9021  1.6935  0.4767
32602SOL     OW 1593   4.935   9.686   4.363  1.0639  0.2269  0.2919
32602SOL    HW1 1594   4.943   9.734   4.280  0.9538  1.7024  1.0900
32602SOL    HW2 1595   4.991   9.609   4.352 -0.9376 -1.0301 -2.0686
32603SOL     OW 1596   3.595   2.433   7.183 -0.3668 -0.5315  0.3411
32603SOL    HW1 1597   3.533   2.492   7.224 -1.8989 -1.4663 -0.5228
32603SOL    HW2 1598   3.653   2.404   7.254 -1.6828 -0.5637  1.4319
32604SOL     OW 1599   2.001   2.974   0.205  0.1500  0.2331 -0.4720
32604SOL    HW1 1600   2.032   2.894   0.247  0.6154  0.7269  0.1242
32604SOL    HW2 1601   1.920   2.995   0.252 -0.4228 -0.3305 -1.1717
32605SOL     OW 1602   5.931   5.921   6.906 -0.2636  0.2545 -0.0035
32605SOL    HW1 1603   6.006   5.938   6.964 -2.0224  0.2920  2.4117
32605SOL    HW2 1604   5.943   5.831   6.878  1.4719  0.7384 -0.9530
32606SOL     OW 1605   8.808   7.776   3.931  0.2363 -0.1783 -0.2704
32606SOL    HW1 1606   8.809   7.851   3.991  0.7968 -1.4562  1.4070
32606SOL    HW2 1607   8.754   7.805   3.857 -1.0753  1.2536  1.1594
32607SOL     OW 1608   5.423   2.212   2.072 -0.2047 -0.6102 -0.1299
32607SOL    HW1 1609   5.517   2.221   2.087 -0.2057  0.4447 -0.6607
32607SOL    HW2 1610   5.383   2.276   2.131 -0.6904 -1.8720  0.9698
32608SOL     OW 1611   6.944   7.917   0.338 -0.5989 -0.0941  0.3313
32608SOL    HW1 1612   6.866   7.910   0.393 -0.6072  1.9507  0.6787
32608SOL    HW2 1613   7.018   7.911   0.399 -0.5906  1.3312  0.4929
32609SOL     OW 1614   1.035   6.852   1.456  0.4517 -0.1681  0.0845
32609SOL    HW1 1615   0.979   6.825   1.528  0.3835  1.7696  0.8182
32609SOL    HW2 1616   0.976   6.860   1.381 -0.0231  0.5495  0.5255
32610SOL     OW 1617   8.930   4.463   6.161  0.8693  0.3816 -0.0520
32610SOL    HW1 1618   8.844   4.448   6.124  0.5207 -0.0778  0.9043
32610SOL    HW2 1619   8.925   4.549   6.201  0.6053  0.0500  0.6487
32611SOL     OW 1620   9.539   4.740   4.075 -0.0169  0.2882  0.4746
32611SOL    HW1 1621   9.538   4.696   4.160  0.1215  2.4937  1.6928
32611SOL    HW2 1622   9.563   4.830   4.095  0.7568  0.7122 -2.0238
32612SOL     OW 1623   7.558  10.142   8.064  0.3358 -0.1078 -0.1428
32612SOL    HW1 1624   7.505  10.067   8.039  0.0576  0.2730 -0.7364
32612SOL    HW2 1625   7.553  10.145   8.159 -1.4660  0.4293 -0.2121
32613SOL     OW 1626   1.203   6.228   4.384 -0.0718 -0.5125 -0.0078
32613SOL    HW1 1627   1.210   6.148   4.333  1.4326 -1.4547  1.5796
32613SOL    HW2 1628   1.245   6.295   4.330  1.5717 -1.5077 -0.0472
32614SOL     OW 1629   4.470   6.561   3.987 -0.2591 -0.1992 -0.8848
32614SOL    HW1 1630   4.480   6.637   3.931 -1.2335  1.3581  0.9551
32614SOL    HW2 1631   4.509   6.587   4.070 -2.0444 -1.0972  0.2889
32615SOL     OW 1632   1.961   6.429   4.047  0.4646 -0.2488  0.0526
32615SOL    HW1 1633   1.893   6.474   3.996 -2.7760 -1.4821  2.9003
32615SOL    HW2 1634   1.981   6.351   3.996 -0.2823  0.1075 -0.8244
32616SOL     OW 1635   2.569   9.037   0.596  0.0527  0.6889 -0.4043
32616SOL    HW1 1636   2.599   8.971   0.533 -0.7550 -2.4011  2.1999
32616SOL    HW2 1637   2.477   9.051   0.575  0.1653  0.8193 -0.8165
32617SOL     OW 1638   9.510   3.270   9.233 -0.1571 -0.4462  0.0459
32617SOL    HW1 1639   9.576   3.217   9.189 -0.9158 -2.2331  0.9568
32617SOL    HW2 1640   9.523   3.252   9.326 -2.0702 -1.0869  0.2316
32618SOL     OW 1641   7.442   4.387   9.078  0.5307 -0.1795  0.6858
32618SOL    HW1 1642   7.448   4.477   9.110 -2.4115 -0.4502  2.3323
32618SOL    HW2 1643   7.483   4.334   9.146  1.3433 -0.2030  0.1957
32619SOL     OW 1644   0.286   8.474   6.848 -0.3417  0.0037  0.3976
32619SOL    HW1 1645   0.237   8.399   6.881 -0.4679 -0.4924 -0.8901
32619SOL    HW2 1646   0.320   8.446   6.763  3.0375 -0.0178  1.6335
32620SOL     OW 1647   1.803   8.939  10.046 -0.0155  0.1630  0.1200
32620SOL    HW1 1648   1.744   8.965   9.975 -0.7989  0.0690  0.7255
32620SOL    HW2 1649   1.853   8.865  10.009 -1.1724 -0.5911  0.0116
32621SOL     OW 1650   4.646   5.355   6.930  0.8462  0.2549 -0.3486
32621SOL    HW1 1651   4.564   5.386   6.892 -0.0941 -2.0441 -0.3923
32621SOL    HW2 1652   4.648   5.392   7.018  0.0090  0.7554 -0.5286
32622SOL     OW 1653   8.230   8.302   6.251 -0.2761  0.2088 -1.1637
32622SOL    HW1 1654   8.246   8.225   6.306  0.5221  1.1925  0.0448
32622SOL    HW2 1655   8.270   8.280   6.167 -2.6190 -1.8321 -1.8374
32623SOL     OW 1656   1.961   5.070   1.036 -0.0999 -0.0697 -0.6026
32623SOL    HW1 1657   1.907   5.149   1.045  1.4816  1.0236 -0.4402
32623SOL    HW2 1658   1.922   5.009   1.099 -1.9562  0.1755 -1.4243
32624SOL     OW 1659   7.326   4.627   1.467 -0.0511  0.4230  0.0807
32624SOL    HW1 1660   7.257   4.690   1.486 -0.2742  0.4950 -0.8908
32624SOL    HW2 1661   7.357   4.652   1.379 -0.1335 -0.8053 -0.3090
32625SOL     OW 1662   9.733   0.564   6.785  0.3422  0.5459 -0.3085
32625SOL    HW1 1663   9.773   0.603   6.862  2.0721  0.2774 -1.0252
32625SOL    HW2 1664   9.679   0.634   6.748  1.0805  1.3196  0.0472
32626SOL     OW 1665   5.179   7.623   1.491  0.4102 -0.1611 -0.6524
32626SOL    HW1 1666   5.225   7.687   1.545 -0.7657  1.0411 -1.0201
32626SOL    HW2 1667   5.246   7.559   1.467  1.8879  1.4901 -1.1339
32627SOL     OW 1668   1.006   4.232   0.651  0.1670  0.0909 -0.2284
32627SOL    HW1 1669   0.928   4.180   0.629 -1.2659  1.7180  0.7052
32627SOL    HW2 1670   1.015   4.293   0.577 -0.6491  1.1754  0.5349
32628SOL     OW 1671  10.159   6.592   6.150  0.3176 -0.4344  0.6200
32628SOL    HW1 1672  10.087   6.654   6.136  0.4432 -0.5155 -0.4622
32628SOL    HW2 1673  10.177   6.556   6.063  1.4066 -0.7078  0.9429
32629SOL     OW 1674   5.490   8.193   9.802 -0.0836  0.1289 -0.7486
32629SOL    HW1 1675   5.537   8.272   9.831  2.3615 -1.4734 -0.0629
32629SOL    HW2 1676   5.479   8.206   9.707  0.6314  1.1256 -0.7126
32630SOL     OW 1677   1.308   9.378   9.620 -0.1863 -0.3238 -0.0482
32630SOL    HW1 1678   1.319   9.283   9.623 -1.0721 -0.4305  0.1261
32630SOL    HW2 1679   1.227   9.391   9.570  1.7850  0.5020 -3.2850
32631SOL     OW 1680   3.447   3.758   0.504  0.0340  0.2852  0.4720
32631SOL    HW1 1681   3.438   3.759   0.408  1.1306  0.8855  0.3594
32631SOL    HW2 1682   3.431   3.667   0.528 -2.4522  0.5244 -0.0229
32632SOL     OW 1683   2.363  10.327   7.317 -0.2383  0.6886  0.5111
32632SOL    HW1 1684   2.384  10.330   7.410  3.1859  0.8284 -0.1580
32632SOL    HW2 1685   2.377  10.417   7.286 -1.5514  0.6976 -0.1285
32633SOL     OW 1686   0.599   5.112   4.831 -0.6970  0.1387  0.6963
32633SOL    HW1 1687   0.535   5.054   4.791  0.4099 -0.0862 -0.8574
32633SOL    HW2 1688   0.623   5.174   4.761  0.1446  0.7467  1.4905
32634SOL     OW 1689   2.278   2.015  10.068  0.5970  0.2326 -0.5167
32634SOL    HW1 1690   2.190   2.025  10.032 -0.1752 -1.0333  0.8856
32634SOL    HW2 1691   2.299   2.100  10.107 -1.7295 -0.5107  2.6839
32635SOL     OW 1692   2.486   5.565   2.388  0.2369  0.5063  0.3779
32635SOL    HW1 1693   2.427   5.550   2.462 -1.3524 -1.0372 -1.1116
32635SOL    HW2 1694   2.446   5.518   2.315  3.6380 -1.1460 -0.6280
32636SOL     OW 1695   4.502   9.959   1.573  0.0940  0.1957 -0.0183
32636SOL    HW1 1696   4.450  10.003   1.640 -1.1023  1.8699 -1.9285
32636SOL    HW2 1697   4.437   9.926   1.510  1.1858 -1.1041 -0.5087
32637SOL     OW 1698   3.215   3.653   8.721  0.4080 -0.3381 -1.3053
32637SOL    HW1 1699   3.265   3.600   8.783 -0.7230 -0.8192 -0.7594
32637SOL    HW2 1700   3.185   3.590   8.655 -0.2319 -0.2338 -1.1231
32638SOL     OW 1701   4.861   6.379   2.799 -0.3600  0.3707 -0.0453
32638SOL    HW1 1702   4.867   6.437   2.724 -1.2752  0.2639 -0.2135
32638SOL    HW2 1703   4.952   6.355   2.818  0.0745  2.0375  0.1811
32639SOL     OW 1704   8.105   7.886   7.773  0.2380 -0.6352 -0.4648
32639SOL    HW1 1705   8.097   7.965   7.827 -2.4316 -0.6392 -0.7500
32639SOL    HW2 1706   8.107   7.814   7.835 -0.6078 -0.5106 -0.2798
32640SOL     OW 1707   9.142   0.235   4.326  0.3861 -0.2911 -0.4017
32640SOL    HW1 1708   9.108   0.325   4.328 -1.6404 -1.0033 -0.1357
32640SOL    HW2 1709   9.229   0.241   4.367 -0.9506  1.0898  2.5968
32641SOL     OW 1710   3.238   0.426   4.204 -0.0149 -0.3628  0.0642
32641SOL    HW1 1711   3.208   0.439   4.114  0.7359 -0.3431 -0.1886
32641SOL    HW2 1712   3.161   0.445   4.258 -1.1414 -2.5546 -0.6495
32642SOL     OW 1713   3.241   9.309   1.580 -0.0708 -0.9581  0.4794
32642SOL    HW1 1714   3.262   9.319   1.487 -0.2675  1.3621  0.6210
32642SOL    HW2 1715   3.222   9.216   1.591  1.5884 -1.6003 -1.4376
32643SOL     OW 1716   5.297   5.420   9.523 -0.5085  0.2953 -0.4281
32643SOL    HW1 1717   5.389   5.404   9.504 -0.1448 -1.0859  2.1133
32643SOL    HW2 1718   5.250   5.355   9.470  0.1330 -0.3961 -0.1599
32644SOL     OW 1719   7.663   4.910   9.347 -0.0967  0.1658 -0.0935
32644SOL    HW1 1720   7.652   5.004   9.361 -0.6564 -0.2997  3.8935
32644SOL    HW2 1721   7.575   4.874   9.357  0.3792 -0.9113  0.4074
32645SOL     OW 1722   5.861   2.675   6.518  0.0411  0.0527 -0.4361
32645SOL    HW1 1723   5.892   2.755   6.560 -0.2373  1.2394 -2.3765
32645SOL    HW2 1724   5.768   2.672   6.539  0.1718 -0.1060  0.1431
32646SOL     OW 1725   4.893   4.405   3.638  0.4307 -0.2221 -0.7663
32646SOL    HW1 1726   4.944   4.476   3.678 -1.6945  1.4034 -0.7216
32646SOL    HW2 1727   4.915   4.328   3.690  2.7165  0.3943 -0.6987
32647SOL     OW 1728   6.096   5.260   4.760 -0.2261 -0.0179  0.0900
32647SOL    HW1 1729   6.118   5.194   4.694 -1.0294 -0.3872  0.1775
32647SOL    HW2 1730   6.169   5.257   4.822 -1.0327 -2.0724  1.0265
32648SOL     OW 1731   1.369   4.382   4.999 -0.2880  0.7115 -0.1586
32648SOL    HW1 1732   1.385   4.389   4.905  0.8549  0.2755 -0.0167
32648SOL    HW2 1733   1.289   4.434   5.014 -0.6058  0.6054 -1.3874
32649SOL     OW 1734   9.005   4.234   9.486  0.3013  0.3388  0.0568
32649SOL    HW1 1735   9.021   4.307   9.426 -4.2874  0.4230 -1.4440
32649SOL    HW2 1736   9.030   4.157   9.435  0.3285  0.6279 -0.3786
32650SOL     OW 1737   7.900   9.405   8.682  0.1211 -0.1047 -0.4181
32650SOL    HW1 1738   7.857   9.361   8.609 -1.1006  1.2962 -0.5850
32650SOL    HW2 1739   7.838   9.399   8.755  1.6090 -2.0979  0.7865
32651SOL     OW 1740   5.749   1.384   8.879 -0.2348 -0.1772 -0.0400
32651SOL    HW1 1741   5.753   1.289   8.870  1.6058 -0.2454  0.9277
32651SOL    HW2 1742   5.727   1.398   8.971 -0.6494  0.3342 -0.2160
32652SOL     OW 1743   1.458   9.659   6.551 -0.5793 -0.4569  0.1771
32652SOL    HW1 1744   1.374   9.634   6.588 -1.5938  0.3703 -1.4426
32652SOL    HW2 1745   1.461   9.615   6.466 -0.5574  1.5001 -0.9022
32653SOL     OW 1746   6.768   8.794   5.103 -0.0741 -0.0900  0.1632
32653SOL    HW1 1747   6.748   8.819   5.194 -1.0402 -0.5753  0.0972
32653SOL    HW2 1748   6.739   8.703   5.096  3.1313 -1.2519  0.3235
32654SOL     OW 1749  10.208   3.939   6.198 -0.6423 -0.2196  0.4372
32654SOL    HW1 1750  10.169   4.024   6.175 -0.4259  0.0053  0.8776
32654SOL    HW2 1751  10.199   3.886   6.119 -0.7907  0.2105  0.1598
32655SOL     OW 1752   1.061   9.105   1.871  0.2808  0.5323 -0.0718
32655SOL    HW1 1753   1.094   9.105   1.961  1.4102 -0.4807 -0.4505
32655SOL    HW2 1754   1.002   9.029   1.867  0.3741  0.4669 -0.2318
32656SOL     OW 1755   6.275   1.583   8.097  0.2166 -0.0881  0.2128
32656SOL    HW1 1756   6.211   1.535   8.150  0.0994  1.0088  1.1025
32656SOL    HW2 1757   6.313   1.647   8.158  2.3597 -0.8778 -0.2154
32657SOL     OW 1758   5.655   4.976   4.512 -0.1544  0.1811  0.2120
32657SOL    HW1 1759   5.728   5.021   4.555  0.6716 -1.7541  0.9958
32657SOL    HW2 1760   5.614   4.925   4.582 -1.3662  0.1238 -0.5150
32658SOL     OW 1761   7.262   4.708   6.963 -0.5730  0.6923 -0.2179
32658SOL    HW1 1762   7.317   4.785   6.978 -0.0911  0.1687  0.8711
32658SOL    HW2 1763   7.175   4.736   6.991 -0.2877  0.6876  0.7298
32659SOL     OW 1764   7.588   0.688   8.734  0.1920 -0.1069  0.1230
32659SOL    HW1 1765   7.555   0.690   8.644 -1.3682 -1.7627  0.5817
32659SOL    HW2 1766   7.599   0.780   8.758 -0.7847  0.4114 -1.2745
32660SOL     OW 1767   9.635   4.349   3.192 -0.6177 -0.0227 -0.4078
32660SOL    HW1 1768   9.685   4.394   3.124 -0.8454 -0.9701 -1.2124
32660SOL    HW2 1769   9.658   4.396   3.273 -0.1010  0.9159 -1.0736
32661SOL     OW 1770   2.043   5.748   7.745 -0.2481  0.1108 -0.1103
32661SOL    HW1 1771   2.095   5.683   7.697 -1.8375  0.9117 -3.1736
32661SOL    HW2 1772   1.974   5.697   7.787  0.4311 -0.5040  0.2792
32662SOL     OW 1773  10.202   1.459   2.499 -0.4381  0.1385 -0.3543
32662SOL    HW1 1774  10.128   1.518   2.514  0.5841  1.1251  1.1460
32662SOL    HW2 1775  10.264   1.510   2.447  1.5407  1.5076  2.9762
32663SOL     OW 1776   6.856   9.024   9.704  0.0313 -0.5077 -0.2257
32663SOL    HW1 1777   6.872   9.112   9.738  0.0592 -0.9151  0.8646
32663SOL    HW2 1778   6.806   8.980   9.774 -1.1484 -0.9440 -1.3153
32664SOL     OW 1779   7.047   0.294   8.724 -0.4550 -0.5822 -0.1350
32664SOL    HW1 1780   6.960   0.274   8.689  0.1533  1.3993 -3.2024
32664SOL    HW2 1781   7.044   0.387   8.748  0.7127 -0.5558  0.0056
32665SOL     OW 1782   1.386   8.061   5.314  0.1193  0.3936  0.3301
32665SOL    HW1 1783   1.365   8.155   5.312 -0.0523  0.4300  2.4685
32665SOL    HW2 1784   1.316   8.020   5.262  0.3967  1.4433 -0.9437
32666SOL     OW 1785   6.470   3.490   9.837  0.1369  0.0824 -0.0450
32666SOL    HW1 1786   6.464   3.394   9.839  0.5059  0.0480 -0.4761
32666SOL    HW2 1787   6.419   3.516   9.761 -2.1236  0.4288  1.4733
32667SOL     OW 1788   1.717   1.224   5.077 -0.0740  0.2341  0.0983
32667SOL    HW1 1789   1.706   1.317   5.096 -1.7780  0.3440 -1.1189
32667SOL    HW2 1790   1.678   1.213   4.990 -0.2161 -1.6722  0.3548
32668SOL     OW 1791   1.189   6.366   4.977 -0.5128  0.2503 -0.6056
32668SOL    HW1 1792   1.163   6.274   4.969 -0.4263  0.1363  0.3025
32668SOL    HW2 1793   1.234   6.370   5.061 -1.5595  1.3668 -0.0754
32669SOL     OW 1794   7.826   7.234  10.060 -0.6601 -0.1376 -0.7000
32669SOL    HW1 1795   7.876   7.155  10.081 -0.3818  0.3797  0.6783
32669SOL    HW2 1796   7.740   7.220  10.100  0.0556  1.0981  1.3760
32670SOL     OW 1797   5.436   0.189   6.337  0.5598 -0.1393  0.1542
32670SOL    HW1 1798   5.350   0.154   6.358  1.0419 -1.3228  0.2432
32670SOL    HW2 1799   5.466   0.137   6.262  0.3213  1.7018 -1.3062
32671SOL     OW 1800   7.439   2.364   1.138  0.1939  0.1836  0.8425
32671SOL    HW1 1801   7.392   2.377   1.220  0.4690 -1.4590  1.3070
32671SOL    HW2 1802   7.530   2.384   1.159 -0.0771  2.4415  0.1833
32672SOL     OW 1803   9.898   2.976   9.484  0.3703 -0.3495  0.4483
32672SOL    HW1 1804   9.986   2.966   9.521  0.2604 -1.5521  0.4054
32672SOL    HW2 1805   9.901   2.930   9.400  0.3588  1.6121 -0.6975
32673SOL     OW 1806   5.124   3.999   1.679  0.0304  0.2493  0.5723
32673SOL    HW1 1807   5.195   3.956   1.631  0.9799  2.2751  0.0376
32673SOL    HW2 1808   5.132   3.967   1.769  1.5322  0.2951  0.4773
32674SOL     OW 1809   8.698   3.492   1.315 -0.2104 -0.5793 -0.7793
32674SOL    HW1 1810   8.610   3.459   1.335 -0.6252  0.1473 -1.3423
32674SOL    HW2 1811   8.756   3.420   1.336 -0.9789 -1.2096 -0.7729
32675SOL     OW 1812   4.365   0.112   8.079  0.3414  0.2730 -0.1691
32675SOL    HW1 1813   4.434   0.164   8.122 -0.1830  0.4966  0.4267
32675SOL    HW2 1814   4.355   0.035   8.136 -1.1994  1.1562  0.8107
32676SOL     OW 1815   5.079   3.759   1.407 -0.3716  0.6753  0.0074
32676SOL    HW1 1816   5.042   3.790   1.324  0.6074 -0.5552 -0.9272
32676SOL    HW2 1817   5.004   3.757   1.467 -1.4767 -0.0340 -1.3305
32677SOL     OW 1818   3.243   5.289   5.207 -0.4123  0.1035  0.0199
32677SOL    HW1 1819   3.186   5.224   5.166 -0.9024  0.2418  0.4833
32677SOL    HW2 1820   3.201   5.373   5.189 -0.0762  0.2507 -0.0906
32678SOL     OW 1821   5.810   8.045   8.542  0.3010  0.6461 -0.1439
32678SOL    HW1 1822   5.790   8.022   8.633  1.5086 -0.4546 -0.1225
32678SOL    HW2 1823   5.889   8.098   8.548 -0.2988  1.5973 -0.4838
32679SOL     OW 1824   8.079   5.599   5.662 -0.2016  0.5435 -0.2540
32679SOL    HW1 1825   8.145   5.650   5.615 -0.4598 -0.2103 -1.5073
32679SOL    HW2 1826   8.018   5.571   5.593 -1.5764  0.8483  0.8021
32680SOL     OW 1827   3.666   2.578   0.263 -0.6733  0.1722 -0.1229
32680SOL    HW1 1828   3.754   2.606   0.240 -0.8868  0.5809 -0.4419
32680SOL    HW2 1829   3.608   2.642   0.222 -1.0635  1.0065  1.6308
32681SOL     OW 1830   7.139   8.948   0.701  0.1292  0.2714  0.8503
32681SOL    HW1 1831   7.067   8.971   0.642  1.4062  0.7846 -0.5854
32681SOL    HW2 1832   7.162   9.031   0.743 -0.5451 -0.0251  1.8247
32682SOL     OW 1833   8.803   3.466   8.821 -0.1402 -0.4646  0.1933
32682SOL    HW1 1834   8.837   3.404   8.886 -0.0079  1.4973  2.1055
32682SOL    HW2 1835   8.708   3.460   8.830 -0.1547 -0.9404 -0.2089
32683SOL     OW 1836   0.036   0.592   5.469  0.8936  0.2387  0.3669
32683SOL    HW1 1837   0.057   0.517   5.413  1.7237  1.0466 -0.4455
32683SOL    HW2 1838  -0.025   0.557   5.533 -1.5821 -0.3194 -2.1118
32684SOL     OW 1839   0.330   1.198   8.520 -0.2270 -0.3206 -0.0252
32684SOL    HW1 1840   0.387   1.206   8.443 -3.1419 -0.7684 -2.4184
32684SOL    HW2 1841   0.375   1.135   8.577  2.8416  1.2509 -0.4541
32685SOL     OW 1842   7.253   1.264  10.228 -0.1511 -0.1188  0.0181
32685SOL    HW1 1843   7.200   1.342  10.242 -1.3805 -0.8534 -0.3791
32685SOL    HW2 1844   7.189   1.193  10.218  0.8999 -0.9796 -0.8591
32686SOL     OW 1845   4.486   6.935   3.325 -0.6405  0.1359 -0.0604
32686SOL    HW1 1846   4.495   6.965   3.415 -0.6849  0.8345 -0.2819
32686SOL    HW2 1847   4.465   6.842   3.333 -2.6588  0.5940  0.7190
32687SOL     OW 1848   2.692   0.284   3.348 -0.2724 -0.4949  0.1557
32687SOL    HW1 1849   2.695   0.379   3.341  0.6555 -0.2996  2.4864
32687SOL    HW2 1850   2.768   0.261   3.401 -2.8973 -2.0334  3.7042
32688SOL     OW 1851   7.104   2.485   8.228 -0.4977  0.2906  0.2194
32688SOL    HW1 1852   7.091   2.415   8.164 -0.0869  1.2135 -0.8959
32688SOL    HW2 1853   7.196   2.510   8.219 -0.5761  0.8148  0.7814
32689SOL     OW 1854   2.560   9.568   8.510  0.1239 -0.1932  0.8237
32689SOL    HW1 1855   2.573   9.621   8.431 -1.2143 -0.1388  0.6201
32689SOL    HW2 1856   2.649   9.548   8.539  0.6559 -0.2589 -0.7225
32690SOL     OW 1857   4.178   3.068   3.955  0.4830  0.1294  0.0265
32690SOL    HW1 1858   4.108   3.061   3.889  1.0371 -1.4899 -0.4330
32690SOL    HW2 1859   4.195   3.162   3.962 -0.2154  0.4013 -1.4831
32691SOL     OW 1860   8.097   6.354   3.949  0.3352  0.4298  0.1282
32691SOL    HW1 1861   8.037   6.289   3.985 -0.3188  0.7585 -0.3456
32691SOL    HW2 1862   8.045   6.434   3.941  1.1590  1.0500  0.8007
32692SOL     OW 1863   2.968   7.484   0.420 -0.1118  0.2520 -0.1126
32692SOL    HW1 1864   2.969   7.441   0.506  1.7185  2.6706  1.1973
32692SOL    HW2 1865   2.915   7.426   0.365 -3.6158 -0.1759  3.2649
32693SOL     OW 1866   7.486   5.687   5.169 -0.7816 -0.1362 -0.2016
32693SOL    HW1 1867   7.564   5.733   5.138  0.4409 -1.2530  1.0985
32693SOL    HW2 1868   7.417   5.713   5.108  0.7742  0.2752 -1.8590
32694SOL     OW 1869   6.171   8.669   1.723  0.1417  0.3597 -0.2803
32694SOL    HW1 1870   6.219   8.750   1.707  1.5289 -0.4316 -0.3248
32694SOL    HW2 1871   6.137   8.644   1.638 -0.4260  0.9602 -0.2395
32695SOL     OW 1872   8.937   5.263   4.074 -0.9155  0.2724  0.2593
32695SOL    HW1 1873   8.854   5.226   4.045 -1.3931  0.9303  0.7611
32695SOL    HW2 1874   9.003   5.220   4.020 -1.5745 -0.3148 -0.0866
32696SOL     OW 1875   3.778  10.033   8.661 -0.2085 -0.1139  0.2478
32696SOL    HW1 1876   3.745  10.073   8.580 -0.0211 -0.3817  0.0350
32696SOL    HW2 1877   3.703   9.986   8.697 -0.9249  1.7836  1.4005
32697SOL     OW 1878   9.169   8.772   5.915  0.0631 -0.1101  0.3181
32697SOL    HW1 1879   9.144   8.864   5.900  0.6741 -0.2641 -1.9599
32697SOL    HW2 1880   9.265   8.772   5.908 -0.0070 -1.0916 -0.9228
32698SOL     OW 1881   2.503  10.232   4.226 -0.0282 -0.2263  0.4400
32698SOL    HW1 1882   2.499  10.225   4.322  0.1788  0.3414  0.4935
32698SOL    HW2 1883   2.550  10.153   4.199 -0.9389 -0.8934  0.7209
32699SOL     OW 1884   9.665   2.758   1.300  0.5286 -1.0057  0.4355
32699SOL    HW1 1885   9.617   2.826   1.253  2.2443  0.2516  0.3869
32699SOL    HW2 1886   9.715   2.712   1.232 -0.1359 -1.9128  0.5478
32700SOL     OW 1887  10.269   9.990   1.948 -0.2026  0.2656  0.7087
32700SOL    HW1 1888  10.315   9.924   2.000  0.4593 -0.4606 -0.7448
32700SOL    HW2 1889  10.178   9.961   1.947 -0.5905  1.2150  2.8396
32701SOL     OW 1890   9.860   0.541   2.259  0.6238 -0.4935 -0.0239
32701SOL    HW1 1891   9.945   0.574   2.289  0.8459 -1.8168  0.8875
32701SOL    HW2 1892   9.864   0.447   2.276  0.2351 -1.1554 -3.0726
32702SOL     OW 1893   6.698   0.132   3.430 -0.1391 -0.3911  0.2780
32702SOL    HW1 1894   6.731   0.076   3.360 -0.5024 -1.8078  1.2051
32702SOL    HW2 1895   6.629   0.184   3.388 -1.9820 -2.8472 -0.0013
32703SOL     OW 1896   9.038   3.941   5.112 -0.8295 -0.4868  0.2879
32703SOL    HW1 1897   9.088   3.924   5.191  1.3711 -2.1221 -1.3106
32703SOL    HW2 1898   9.069   3.875   5.049 -2.5671  0.6170 -1.8893
32704SOL     OW 1899   4.750   0.554   3.277 -0.0647 -0.3664  0.2937
32704SOL    HW1 1900   4.844   0.566   3.282  0.2109 -2.1999  0.0854
32704SOL    HW2 1901   4.734   0.469   3.319 -1.3887 -0.9067 -1.1774
32705SOL     OW 1902   3.163   3.541   5.690 -0.2897 -0.2255  0.1456
32705SOL    HW1 1903   3.188   3.468   5.634  3.0388  0.9409 -0.0670
32705SOL    HW2 1904   3.099   3.590   5.638  1.0097 -0.4231 -1.7034
32706SOL     OW 1905   1.514   7.070   4.375 -0.4489  0.1654  0.4282
32706SOL    HW1 1906   1.487   7.027   4.456  0.5884  1.2107  1.3728
32706SOL    HW2 1907   1.602   7.037   4.359 -0.7786 -0.3020 -0.4967
32707SOL     OW 1908   1.112   8.283   8.588 -0.2538  0.1611 -0.0802
32707SOL    HW1 1909   1.066   8.244   8.513 -1.3502 -0.2964  0.7996
32707SOL    HW2 1910   1.111   8.215   8.654  0.8040  0.5278  0.3219
32708SOL     OW 1911   6.993   1.231   6.616 -0.3755 -0.5439 -0.6188
32708SOL    HW1 1912   6.941   1.256   6.692  0.6609 -0.6916  0.1701
32708SOL    HW2 1913   6.929   1.200   6.552 -1.2737 -0.3983  0.1816
32709SOL     OW 1914   8.655   0.877   3.365 -0.8923  0.1359  0.2133
32709SOL    HW1 1915   8.669   0.894   3.272 -1.1164  0.0463  0.1606
32709SOL    HW2 1916   8.725   0.924   3.410 -0.5290 -0.1683 -0.0268
32710SOL     OW 1917   3.977   2.273   7.384  0.0766  0.1279  0.0610
32710SOL    HW1 1918   4.032   2.229   7.319  0.3471  0.0514  0.3424
32710SOL    HW2 1919   4.031   2.345   7.417  0.8119 -1.1477  1.8140
32711SOL     OW 1920   7.762   2.997   3.655 -0.4413 -0.4874  0.2124
32711SOL    HW1 1921   7.710   3.021   3.732 -1.6123  0.1900 -0.7632
32711SOL    HW2 1922   7.744   2.903   3.644 -1.3969 -0.2911 -0.0426
32712SOL     OW 1923   1.370   0.166   1.590 -0.0221  0.1901 -0.0183
32712SOL    HW1 1924   1.301   0.173   1.656 -0.7712 -0.0279 -0.7609
32712SOL    HW2 1925   1.417   0.087   1.613 -0.4764 -0.0565  0.0824
32713SOL     OW 1926   5.971   2.409   0.976  0.2860  0.5849 -0.3100
32713SOL    HW1 1927   6.043   2.370   1.026 -1.3072  1.3243  2.8023
32713SOL    HW2 1928   6.004   2.495   0.951  0.9643  0.3919 -0.1151
32714SOL     OW 1929   7.858   8.753   2.099 -0.0692 -0.0330 -0.2745
32714SOL    HW1 1930   7.854   8.844   2.129  2.3288 -0.2880  1.1436
32714SOL    HW2 1931   7.893   8.759   2.010  0.3658  0.4334 -0.0780
32715SOL     OW 1932   6.316   3.412   1.891  0.2842  0.2499 -0.2466
32715SOL    HW1 1933   6.284   3.327   1.923 -0.7001  0.8482  0.4046
32715SOL    HW2 1934   6.386   3.436   1.952 -0.1349  0.3761  0.1958
32716SOL     OW 1935   2.705   1.591   3.193 -0.0030 -0.2892 -0.8358
32716SOL    HW1 1936   2.791   1.600   3.233 -0.2559 -1.1087 -0.0893
32716SOL    HW2 1937   2.687   1.497   3.195 -1.5546 -0.0030  0.3873
32717SOL     OW 1938   2.048   4.283   8.882  0.0110  0.0568 -0.0631
32717SOL    HW1 1939   2.044   4.235   8.799  0.0375  0.3616 -0.2430
32717SOL    HW2 1940   2.074   4.371   8.857  1.2730 -0.1632  0.3982
32718SOL     OW 1941   0.749   8.633   8.437  0.0142 -0.7558 -0.0129
32718SOL    HW1 1942   0.785   8.553   8.400  0.4284 -0.1846 -0.8808
32718SOL    HW2 1943   0.656   8.630   8.416  0.2864 -0.3217 -1.3507
32719SOL     OW 1944   7.152   5.202   8.737  0.0008 -0.4185 -0.0274
32719SOL    HW1 1945   7.121   5.204   8.828  0.3152 -0.2579  0.0739
32719SOL    HW2 1946   7.113   5.122   8.702 -2.1611  0.7427 -0.4790
32720SOL     OW 1947   0.614   4.239   9.744  0.0040  0.4893 -0.1057
32720SOL    HW1 1948   0.583   4.304   9.807 -0.7682  0.7842 -0.7748
32720SOL    HW2 1949   0.547   4.171   9.744 -0.1092  0.5928 -0.7545
32721SOL     OW 1950   9.430   2.578   4.975 -0.3557  0.1041  0.2203
32721SOL    HW1 1951   9.458   2.553   5.064 -1.8159 -0.2547  0.5994
32721SOL    HW2 1952   9.371   2.508   4.948  0.5481 -0.1122 -1.3122
32722SOL     OW 1953   3.735   2.748   3.755 -0.6471 -0.7907  0.0553
32722SOL    HW1 1954   3.733   2.800   3.675 -4.1820 -3.2845 -1.7756
32722SOL    HW2 1955   3.804   2.684   3.741  0.9092  0.7220  0.5086
32723SOL     OW 1956   5.162   3.666   8.335  0.0246  0.1855 -0.1273
32723SOL    HW1 1957   5.186   3.669   8.242  0.4915 -0.5157 -0.0404
32723SOL    HW2 1958   5.227   3.720   8.379  1.5089 -1.6876  0.1022
32724SOL     OW 1959   2.460   6.102   0.694  0.4965  0.3799 -0.0003
32724SOL    HW1 1960   2.510   6.053   0.760  1.3572 -1.0754 -1.6362
32724SOL    HW2 1961   2.369   6.085   0.716  0.7715 -1.3683 -0.0272
32725SOL     OW 1962   3.261   1.047   6.592  0.3300  0.1012 -0.3589
32725SOL    HW1 1963   3.196   1.058   6.522 -1.9663 -2.6992  1.1585
32725SOL    HW2 1964   3.233   1.107   6.661 -0.1914 -0.4992 -0.0386
32726SOL     OW 1965   5.143   2.670   6.360 -0.1411 -0.2210 -0.1534
32726SOL    HW1 1966   5.096   2.637   6.284 -1.4188  0.8348  0.1494
32726SOL    HW2 1967   5.076   2.708   6.416  1.0357  1.1626  0.3956
32727SOL     OW 1968   1.645   1.049   8.865 -0.3636  0.2452 -0.7117
32727SOL    HW1 1969   1.619   1.128   8.913  1.2243 -0.3180  1.2022
32727SOL    HW2 1970   1.737   1.036   8.889 -0.6663 -2.3448 -0.7533
32728SOL     OW 1971   5.475   4.035   0.437  0.0155 -0.5479  0.7518
32728SOL    HW1 1972   5.538   4.104   0.457 -0.5252  0.7787 -1.7650
32728SOL    HW2 1973   5.430   4.020   0.520  1.1710  1.0545  1.7296
32729SOL     OW 1974   0.098   6.193   4.391  0.0998 -0.3645 -0.1937
32729SOL    HW1 1975   0.088   6.188   4.486  0.0671  0.3411 -0.1531
32729SOL    HW2 1976   0.030   6.255   4.364 -0.0256 -0.7184 -0.7041
32730SOL     OW 1977   5.868   2.874   5.997 -0.3903  0.2055  0.1560
32730SOL    HW1 1978   5.918   2.812   5.943 -2.0088 -0.4921 -0.5969
32730SOL    HW2 1979   5.926   2.892   6.071  2.6169  2.4079 -2.4432
32731SOL     OW 1980   2.603   2.996   2.356 -0.1208 -0.2274  0.1961
32731SOL    HW1 1981   2.531   2.937   2.377  0.2436 -1.6144 -2.1288
32731SOL    HW2 1982   2.627   2.974   2.266  1.0370  2.4696 -0.2620
32732SOL     OW 1983   8.101   6.928   5.145  0.3727  0.3116 -0.3263
32732SOL    HW1 1984   8.123   6.925   5.238  0.0877  0.0429 -0.2654
32732SOL    HW2 1985   8.156   6.998   5.110  0.4506  0.4466  0.0529
32733SOL     OW 1986   1.583   0.404   0.014 -0.2371 -0.5320 -0.3157
32733SOL    HW1 1987   1.625   0.452  -0.057  0.2402 -0.4744  0.0047
32733SOL    HW2 1988   1.519   0.348  -0.031 -1.7220  1.2989 -0.6009
32734SOL     OW 1989   5.332   9.629   3.512 -0.1056 -0.4170  0.0891
32734SOL    HW1 1990   5.337   9.548   3.562  1.8214 -1.4713 -1.6490
32734SOL    HW2 1991   5.393   9.689   3.555  0.0022 -0.6031  0.1940
32735SOL     OW 1992   3.078   2.456   7.667  0.2898 -0.4803  0.3157
32735SOL    HW1 1993   3.130   2.479   7.590  0.1698 -1.0164  0.0689
32735SOL    HW2 1994   3.111   2.371   7.695 -0.7018 -1.0113 -0.0753
32736SOL     OW 1995   2.229   3.286   4.225 -0.4559 -0.1261 -0.3464
32736SOL    HW1 1996   2.152   3.232   4.239 -0.6583  0.5735  1.5131
32736SOL    HW2 1997   2.204   3.346   4.155 -1.5032 -0.0937  0.0403
32737SOL     OW 1998   3.204   1.885   5.292 -0.2808  0.3235 -0.0231
32737SOL    HW1 1999   3.281   1.939   5.275 -0.4335  0.7750  0.7326
32737SOL    HW2 2000   3.131   1.932   5.252 -0.2145  0.0087 -0.5345
32738SOL     OW 2001   0.010   8.951   0.250  0.2783  0.7074  0.4821
32738SOL    HW1 2002   0.048   8.871   0.285  2.4695  1.5586  0.1778
32738SOL    HW2 2003  -0.061   8.973   0.311  1.1228 -0.2213  1.8452
32739SOL     OW 2004   7.089   5.350   1.156  0.5102  0.0025 -0.1708
32739SOL    HW1 2005   7.101   5.429   1.209 -0.7802  1.1822 -1.5583
32739SOL    HW2 2006   7.128   5.280   1.209 -0.3105  1.1739  2.1379
32740SOL     OW 2007   1.883   3.004   9.021 -0.7460  0.1716 -0.8296
32740SOL    HW1 2008   1.886   3.100   9.025  0.9071  0.1399 -0.5737
32740SOL    HW2 2009   1.961   2.976   9.069 -1.6530 -1.3353 -0.1883
32741SOL     OW 2010   3.024   9.952   9.718  0.1969  0.1403  0.3955
32741SOL    HW1 2011   2.987   9.886   9.777  0.3036  0.4635  0.8282
32741SOL    HW2 2012   3.106   9.913   9.687 -0.6909 -0.7529 -0.8879
32742SOL     OW 2013   2.351   5.973   7.661 -0.4519 -0.0998  0.3162
32742SOL    HW1 2014   2.361   5.930   7.746  1.0641 -1.3677 -0.4506
32742SOL    HW2 2015   2.257   5.967   7.642 -0.7867  0.0405  1.7911
32743SOL     OW 2016  10.130   7.148   7.586 -0.1748  0.1315 -0.1208
32743SOL    HW1 2017  10.125   7.188   7.673  0.1504  0.3406 -0.1953
32743SOL    HW2 2018  10.116   7.054   7.602  2.6606 -0.2603  0.5428
32744SOL     OW 2019   2.286   2.958   8.159 -0.3797 -0.4293 -0.6374
32744SOL    HW1 2020   2.221   3.023   8.187 -0.5054 -0.4337 -0.9170
32744SOL    HW2 2021   2.241   2.874   8.170  0.2573 -0.5788  1.0646
32745SOL     OW 2022   5.277   4.739   1.833 -0.1537  0.2011 -0.3093
32745SOL    HW1 2023   5.185   4.752   1.811 -0.1552  0.2527 -0.2712
32745SOL    HW2 2024   5.309   4.826   1.856 -0.1173  0.1692 -0.2384
32746SOL     OW 2025   8.789   8.494   6.320  0.3960  0.1023 -0.3248
32746SOL    HW1 2026   8.758   8.546   6.246  0.1619 -0.1271 -0.3899
32746SOL    HW2 2027   8.728   8.421   6.325 -0.5243  0.9163  1.0434
32747SOL     OW 2028   8.046   9.983   3.284 -0.0568 -0.0440  0.2847
32747SOL    HW1 2029   8.071  10.068   3.320  0.9790 -0.3185  0.2405
32747SOL    HW2 2030   8.000  10.004   3.203  0.4155  0.4731  0.1423
32748SOL     OW 2031   9.418   3.277  10.108  0.0883  0.1450 -0.1085
32748SOL    HW1 2032   9.341   3.335  10.106 -0.3071 -0.3228  0.9083
32748SOL    HW2 2033   9.382   3.190  10.124  0.8628  0.0014  0.9405
32749SOL     OW 2034   6.596   0.777   2.482 -0.0830 -0.4685  0.6703
32749SOL    HW1 2035   6.648   0.853   2.454  0.6646 -0.7346  1.3115
32749SOL    HW2 2036   6.598   0.779   2.577 -0.9853 -0.6791  0.7065
32750SOL     OW 2037   6.242   3.875   5.334  0.0784  0.0547  0.4725
32750SOL    HW1 2038   6.151   3.904   5.330  0.5711  2.2327  2.6453
32750SOL    HW2 2039   6.253   3.840   5.422  0.8028 -2.4272 -0.5347
32751SOL     OW 2040   0.930   6.751   2.481 -0.0434  0.1247 -0.0240
32751SOL    HW1 2041   0.929   6.797   2.564 -3.6606 -1.0840  0.8011
32751SOL    HW2 2042   0.889   6.812   2.419 -0.9807 -0.3967  0.0675
32752SOL     OW 2043   1.159   2.692   7.937 -0.3562  0.3967 -0.4130
32752SOL    HW1 2044   1.204   2.750   7.875  0.1834 -0.4855 -0.8633
32752SOL    HW2 2045   1.098   2.750   7.984  0.7507  1.4803 -0.2675
32753SOL     OW 2046   5.825   3.384   4.848 -0.2368 -0.0061 -0.7863
32753SOL    HW1 2047   5.896   3.447   4.833  0.1165 -0.0903  0.4474
32753SOL    HW2 2048   5.865   3.299   4.832  0.1430 -0.0966  0.5472
32754SOL     OW 2049   6.255   8.049   9.247 -0.0358 -0.3039  0.0650
32754SOL    HW1 2050   6.315   8.105   9.198  0.4054 -0.4574  0.4212
32754SOL    HW2 2051   6.312   7.996   9.303 -0.4092 -1.3921 -0.5537
32755SOL     OW 2052   3.601   0.052   8.416 -0.3111 -0.3835  0.0756
32755SOL    HW1 2053   3.642   0.134   8.390 -1.0911 -0.0762 -0.2215
32755SOL    HW2 2054   3.551   0.074   8.495  1.9531 -1.2821  1.8783
32756SOL     OW 2055   6.577   2.257   8.672  0.0338  0.4722  0.3592
32756SOL    HW1 2056   6.552   2.251   8.580  0.1296 -2.1261  0.4242
32756SOL    HW2 2057   6.499   2.292   8.716 -1.1572 -1.2075 -0.3223
32757SOL     OW 2058   8.017   6.266   4.601  0.2731  0.6163  0.1500
32757SOL    HW1 2059   8.059   6.286   4.685  1.6943  1.2897 -0.6794
32757SOL    HW2 2060   8.082   6.292   4.536 -1.7010  2.3273 -1.2424
32758SOL     OW 2061   4.651   1.437   1.909 -0.8382  0.6322  0.2455
32758SOL    HW1 2062   4.582   1.503   1.902 -0.2051  1.2175 -0.7088
32758SOL    HW2 2063   4.720   1.468   1.850  0.8308  0.7600  2.1506
32759SOL     OW 2064   3.450   3.825   0.241 -0.6620  0.4255 -0.1077
32759SOL    HW1 2065   3.517   3.757   0.231 -0.0973  0.8921  0.4620
32759SOL    HW2 2066   3.488   3.902   0.199 -1.1575  0.5002 -0.4353
32760SOL     OW 2067   8.295   1.912   8.811  0.0730  1.1448  0.0108
32760SOL    HW1 2068   8.281   1.896   8.718 -0.1198  1.6996 -0.0536
32760SOL    HW2 2069   8.275   2.004   8.824 -1.1576  0.7903  0.8390
32761SOL     OW 2070   6.285   7.882   9.625 -0.1837 -0.1705  0.1455
32761SOL    HW1 2071   6.252   7.951   9.682  0.4376  1.3579 -1.2797
32761SOL    HW2 2072   6.207   7.833   9.599 -0.6671  0.1424  0.9677
32762SOL     OW 2073   1.639   9.831   1.027 -0.0053  0.0611 -0.2377
32762SOL    HW1 2074   1.648   9.737   1.015  1.0748  0.1192 -0.0446
32762SOL    HW2 2075   1.666   9.868   0.943  0.1954  0.2132 -0.1077
32763SOL     OW 2076   1.358   7.014   0.967  0.7040 -0.4684 -0.2554
32763SOL    HW1 2077   1.310   7.020   0.884 -0.2462 -0.5447  0.2715
32763SOL    HW2 2078   1.306   7.066   1.029  0.6860 -1.4706  0.6063
32764SOL     OW 2079   5.852   7.197   2.970  0.7389  0.0136 -0.1611
32764SOL    HW1 2080   5.811   7.150   3.042  1.6094  0.0765  0.3946
32764SOL    HW2 2081   5.917   7.136   2.935  1.1480  0.4181 -0.1169
32765SOL     OW 2082   6.370   5.899   8.628  0.0021  0.0519 -0.1462
32765SOL    HW1 2083   6.396   5.991   8.628 -1.2801  0.4318  0.5947
32765SOL    HW2 2084   6.440   5.854   8.580  0.9648  1.3149  0.0416
32766SOL     OW 2085   7.894   7.907   2.000 -0.4355  0.5712 -0.5669
32766SOL    HW1 2086   7.945   7.829   1.978 -0.3416  0.1153  1.1460
32766SOL    HW2 2087   7.952   7.960   2.054 -1.5910  0.2637  1.0394
32767SOL     OW 2088   6.152   0.524   3.549 -0.4820 -0.3039 -0.6690
32767SOL    HW1 2089   6.077   0.576   3.522 -0.3686  0.4491  0.4048
32767SOL    HW2 2090   6.114   0.456   3.605 -0.2339  1.1079  1.3104
32768SOL     OW 2091   6.049   8.289   4.486 -0.3304  0.2721  0.2946
32768SOL    HW1 2092   6.071   8.199   4.509 -2.6048 -0.3090  0.4681
32768SOL    HW2 2093   6.110   8.312   4.417 -0.8673 -2.0837 -1.0819
32769SOL     OW 2094   1.877   8.479   2.970 -0.9149 -0.1397 -0.0703
32769SOL    HW1 2095   1.898   8.411   3.035 -0.9708 -0.3399 -0.2598
32769SOL    HW2 2096   1.812   8.437   2.913  1.1002 -0.9398 -1.9200
32770SOL     OW 2097   7.179   8.771   2.142  0.2247  0.1258  0.3227
32770SOL    HW1 2098   7.177   8.680   2.174  0.7057  0.0442  0.1423
32770SOL    HW2 2099   7.200   8.823   2.219 -1.3066  0.2271  0.6898
32771SOL     OW 2100   5.914   4.787   1.121  0.1665  0.2260  0.2550
32771SOL    HW1 2101   5.865   4.709   1.096  0.9906 -0.6978  1.4168
32771SOL    HW2 2102   5.849   4.845   1.161 -0.4682  0.1981 -0.7115
32772SOL     OW 2103   9.977   2.226   8.483  0.6343 -0.0134  0.2479
32772SOL    HW1 2104  10.072   2.228   8.483  0.6499  2.6591 -0.6090
32772SOL    HW2 2105   9.951   2.315   8.503 -1.6950 -0.4164 -0.6789
32773SOL     OW 2106   9.087   4.454   5.900  0.3658  0.2867  0.0113
32773SOL    HW1 2107   9.039   4.477   5.979 -0.3836  0.4702 -0.4884
32773SOL    HW2 2108   9.179   4.459   5.926  0.4023  4.6764 -0.2128
32774SOL     OW 2109  10.361  10.087   3.237 -0.4259 -0.5227  0.9664
32774SOL    HW1 2110  10.290  10.066   3.176 -0.4599 -0.3856  0.9588
32774SOL    HW2 2111  10.323  10.076   3.324 -0.7863  0.6576  0.9658
32775SOL     OW 2112   0.656   9.306   7.496  0.2667 -0.0913  0.3462
32775SOL    HW1 2113   0.673   9.226   7.446 -1.3238 -1.1378  1.3875
32775SOL    HW2 2114   0.649   9.277   7.587  1.2181  1.4953  0.9635
32776SOL     OW 2115   6.845   4.245   6.811  0.1122  0.3747  0.1294
32776SOL    HW1 2116   6.866   4.269   6.720 -1.4083  0.0324 -0.3426
32776SOL    HW2 2117   6.783   4.311   6.839  1.4052  1.1229  1.3398
32777SOL     OW 2118   8.191   7.075  10.301  0.3378  0.4561 -0.2383
32777SOL    HW1 2119   8.133   7.037  10.234 -1.2726  2.6702 -0.2071
32777SOL    HW2 2120   8.154   7.161  10.319  1.2590  0.3309  2.8741
32778SOL     OW 2121   8.386   3.038   6.653 -0.7426 -0.1031 -0.2814
32778SOL    HW1 2122   8.376   3.011   6.744  0.8895 -0.5535 -0.1930
32778SOL    HW2 2123   8.388   3.133   6.656  0.1310 -0.1238  0.2925
32779SOL     OW 2124   1.259   9.279   1.438 -0.3141 -0.2172  0.3631
32779SOL    HW1 2125   1.204   9.211   1.399 -0.0933  1.3619 -3.0577
32779SOL    HW2 2126   1.196   9.346   1.467 -0.3761 -0.3932  0.6395
32780SOL     OW 2127   5.132   7.455   8.657  0.0202 -0.0959  0.0735
32780SOL    HW1 2128   5.175   7.481   8.575  1.1820  0.9428  0.9625
32780SOL    HW2 2129   5.039   7.452   8.636  0.4168 -1.4144 -1.6700
32781SOL     OW 2130   5.805   3.980   8.269 -0.0367  0.0246 -0.2177
32781SOL    HW1 2131   5.891   3.942   8.252 -0.8749 -1.1308 -2.2291
32781SOL    HW2 2132   5.791   3.966   8.363  1.2876 -1.2409 -0.1691
32782SOL     OW 2133   8.766   8.552   3.384  0.4306 -0.0082  0.3144
32782SOL    HW1 2134   8.840   8.551   3.323 -0.2499  1.5052 -0.5861
32782SOL    HW2 2135   8.774   8.635   3.430 -1.0139  0.4346 -0.1928
32783SOL     OW 2136   7.267   5.295   9.119 -0.0183  0.3422  0.1947
32783SOL    HW1 2137   7.298   5.385   9.108  1.8265 -0.5160 -3.1026
32783SOL    HW2 2138   7.328   5.256   9.182  0.5336  0.8572 -0.0091
32784SOL     OW 2139   4.796   2.017   4.191 -0.4878  0.5548 -0.2759
32784SOL    HW1 2140   4.725   2.000   4.130 -1.1054 -1.2165  0.8522
32784SOL    HW2 2141   4.872   1.972   4.153 -0.3917  1.0088 -0.6314
32785SOL     OW 2142  10.079   2.382   4.946  0.6107 -0.0742  0.3970
32785SOL    HW1 2143  10.089   2.291   4.920  0.4294  0.2847 -1.0624
32785SOL    HW2 2144  10.094   2.383   5.040  2.4233 -1.3368  0.1727
32786SOL     OW 2145   3.745   7.789  10.358  0.2809  0.0789  0.2123
32786SOL    HW1 2146   3.653   7.817  10.359  0.1684 -0.2782  0.0727
32786SOL    HW2 2147   3.744   7.706  10.310  0.2914 -1.2398  2.3506
32787SOL     OW 2148   9.256   3.093   2.948 -0.2687 -0.1644 -0.2143
32787SOL    HW1 2149   9.199   3.144   2.890  0.4117  1.4091  0.4567
32787SOL    HW2 2150   9.207   3.085   3.030 -1.3217 -2.5708 -0.9555
32788SOL     OW 2151   5.588   4.506   5.362 -0.3828  0.1022  0.6007
32788SOL    HW1 2152   5.606   4.521   5.269 -1.5144  0.5613  0.4419
32788SOL    HW2 2153   5.604   4.591   5.404  3.7121 -0.8956  1.4872
32789SOL     OW 2154   9.185   6.125   8.054  0.3392 -1.1650 -0.2606
32789SOL    HW1 2155   9.183   6.055   7.989  1.6051 -1.1611 -0.3282
32789SOL    HW2 2156   9.234   6.196   8.012  1.3105 -1.2199  0.7408
32790SOL     OW 2157   9.847   9.720   6.291  0.3907  0.1597  0.1990
32790SOL    HW1 2158   9.885   9.708   6.378  1.6576 -0.7485 -0.4358
32790SOL    HW2 2159   9.871   9.809   6.266 -0.4559  0.6234  0.9804
32791SOL     OW 2160   8.517   5.293   7.667  0.7532  0.3486  0.4633
32791SOL    HW1 2161   8.596   5.257   7.627  0.5762  1.5656 -1.0792
32791SOL    HW2 2162   8.545   5.322   7.754  1.9432  0.5494  0.0292
32792SOL     OW 2163   0.743   0.526   1.337  0.2811  0.0881 -0.6672
32792SOL    HW1 2164   0.793   0.596   1.295  0.1172  0.9327  0.4957
32792SOL    HW2 2165   0.653   0.538   1.305  0.0726  0.9902  0.2226
32793SOL     OW 2166   1.540   1.437   9.169 -0.4860 -0.1061  0.0037
32793SOL    HW1 2167   1.478   1.510   9.163 -1.1091 -0.5671  0.7016
32793SOL    HW2 2168   1.569   1.422   9.079 -0.2033  1.1200 -0.1280
32794SOL     OW 2169   4.529   2.235   2.826  0.2927  0.3744 -0.0045
32794SOL    HW1 2170   4.623   2.239   2.843  0.1519  2.3469  0.5087
32794SOL    HW2 2171   4.522   2.246   2.731  0.5569  0.7994  0.0223
32795SOL     OW 2172   8.327   7.916   9.865 -0.0073  0.0320 -0.1336
32795SOL    HW1 2173   8.234   7.937   9.856  0.4578  2.1067 -0.6255
32795SOL    HW2 2174   8.362   7.925   9.776  0.5766 -1.3748 -0.0723
32796SOL     OW 2175   0.895   7.880   5.334  0.2273  0.0616 -0.5671
32796SOL    HW1 2176   0.936   7.800   5.368 -0.3057 -0.8064 -1.8817
32796SOL    HW2 2177   0.967   7.931   5.298  0.8851  1.2246  2.1246
32797SOL     OW 2178   8.720   5.523   7.295 -0.0803  0.2945  0.0297
32797SOL    HW1 2179   8.750   5.508   7.205  1.8060 -0.9811  0.7934
32797SOL    HW2 2180   8.671   5.605   7.291 -0.4288  0.0441 -2.2255
32798SOL     OW 2181   5.499   7.648   8.596 -0.1429  0.0071 -0.4354
32798SOL    HW1 2182   5.450   7.685   8.522 -0.5575 -0.1971 -0.2683
32798SOL    HW2 2183   5.583   7.621   8.559  0.4819  1.7772 -0.4248
32799SOL     OW 2184   8.160   4.895   7.544  0.3821  0.1103  0.3688
32799SOL    HW1 2185   8.158   4.930   7.456  2.7966 -0.2522  0.1024
32799SOL    HW2 2186   8.177   4.970   7.600  0.9744  0.0376  0.2894
32800SOL     OW 2187   5.000   4.533   3.942  0.5967  0.1879 -0.2735
32800SOL    HW1 2188   4.952   4.464   3.989 -1.2898  0.4125 -1.7474
32800SOL    HW2 2189   4.934   4.573   3.886  1.9066  2.4960 -0.2625
32801SOL     OW 2190   7.329   9.524   8.606  0.1237  0.0406 -0.2912
32801SOL    HW1 2191   7.304   9.431   8.603  0.0954  0.0526 -0.4066
32801SOL    HW2 2192   7.414   9.527   8.563 -0.0067  0.1143 -0.5397
32802SOL     OW 2193   5.140   2.312   2.381 -0.4850  0.5166  0.5972
32802SOL    HW1 2194   5.221   2.266   2.401 -0.7363 -0.3879 -0.3563
32802SOL    HW2 2195   5.082   2.294   2.455 -0.2896  0.0012  0.6242
32803SOL     OW 2196   6.308   8.737   9.542  0.2176  0.2826  0.0058
32803SOL    HW1 2197   6.350   8.812   9.500  2.0642 -1.1515 -0.8726
32803SOL    HW2 2198   6.344   8.736   9.631  3.0390 -1.4476 -0.9852
32804SOL     OW 2199   8.876   0.419   6.240  0.2078 -0.2454  0.1742
32804SOL    HW1 2200   8.857   0.385   6.152 -2.7308 -0.5240  0.7952
32804SOL    HW2 2201   8.849   0.349   6.299  2.8556 -0.3559  1.3586
32805SOL     OW 2202   6.755   7.617   6.403 -0.4965  0.2460 -0.8106
32805SOL    HW1 2203   6.730   7.531   6.369 -1.3809  0.9906 -2.1392
32805SOL    HW2 2204   6.698   7.678   6.357 -0.1702  1.5249  0.4072
32806SOL     OW 2205   4.469   3.277   4.937 -0.3140 -0.1015  0.0406
32806SOL    HW1 2206   4.545   3.280   4.879 -0.0811 -2.1228  0.1764
32806SOL    HW2 2207   4.472   3.360   4.986  2.6943 -0.7611  1.1476
32807SOL     OW 2208   2.172   5.456   9.706 -0.4117  0.0157  0.2968
32807SOL    HW1 2209   2.214   5.539   9.729 -1.1772  0.3544  0.4979
32807SOL    HW2 2210   2.132   5.426   9.788  0.6134 -1.0120  0.4551
32808SOL     OW 2211   6.117   7.283   9.512 -0.3422 -0.1041 -0.3069
32808SOL    HW1 2212   6.036   7.335   9.514 -1.2995 -1.5530  0.2112
32808SOL    HW2 2213   6.094   7.206   9.460  1.1098  0.0463 -1.2140
32809SOL     OW 2214   7.215   0.712   1.367 -0.7634 -0.0146 -0.0196
32809SOL    HW1 2215   7.217   0.632   1.316  1.8231  0.3916 -0.6894
32809SOL    HW2 2216   7.187   0.779   1.305 -0.8430 -0.0590 -0.0314
32810SOL     OW 2217   2.721   2.371   4.621  0.7934  0.3146 -0.9337
32810SOL    HW1 2218   2.629   2.389   4.645  1.0377  0.1183  0.2369
32810SOL    HW2 2219   2.718   2.287   4.577  0.6459 -0.8779  1.1960
32811SOL     OW 2220   2.635   4.697   4.071  0.5122  0.5307 -0.7010
32811SOL    HW1 2221   2.659   4.652   4.152 -1.3804 -1.7816 -1.3122
32811SOL    HW2 2222   2.709   4.681   4.012 -0.1738 -2.1363 -0.9661
32812SOL     OW 2223   2.372   6.278   0.195 -0.1294  0.0283 -0.9063
32812SOL    HW1 2224   2.430   6.260   0.121  0.9905 -0.6323  0.1028
32812SOL    HW2 2225   2.305   6.211   0.190  0.1883 -0.2804 -1.0734
32813SOL     OW 2226   7.204   0.372   9.228 -0.0809 -0.0489 -0.3101
32813SOL    HW1 2227   7.248   0.287   9.233 -1.1792 -0.6057  0.6461
32813SOL    HW2 2228   7.243   0.415   9.153  2.1649 -0.4363  0.5412
32814SOL     OW 2229   9.061   6.036   9.875 -0.3173  0.2410 -0.2341
32814SOL    HW1 2230   9.061   6.026   9.780  0.1723 -1.3736 -0.1000
32814SOL    HW2 2231   9.136   6.093   9.893 -1.7078  2.3835 -0.9276
32815SOL     OW 2232   1.121   1.371   9.804 -0.4304  0.0880 -0.0816
32815SOL    HW1 2233   1.127   1.430   9.879  1.0997 -1.7752  1.3916
32815SOL    HW2 2234   1.183   1.406   9.740  0.4936  0.0830  0.7930
32816SOL     OW 2235   6.003   4.778   4.143  0.1006  0.0825  0.0142
32816SOL    HW1 2236   6.043   4.849   4.094 -0.4585  0.6229  0.3251
32816SOL    HW2 2237   5.933   4.746   4.086 -0.1591  0.3131  0.1974
32817SOL     OW 2238  10.249   5.957   0.685  0.0769  0.2925  0.0744
32817SOL    HW1 2239  10.290   5.936   0.601 -0.7661  3.0305 -1.1406
32817SOL    HW2 2240  10.319   6.000   0.736  0.0916  0.3353  0.0177
32818SOL     OW 2241   6.030   7.670   2.659 -0.0113 -0.7959  0.4537
32818SOL    HW1 2242   6.085   7.747   2.674 -0.1346 -0.3312 -1.2781
32818SOL    HW2 2243   5.940   7.702   2.667 -0.0833 -0.5182 -1.1343
32819SOL     OW 2244   3.556   5.908  10.115 -0.5097 -0.2721 -0.0394
32819SOL    HW1 2245   3.479   5.898  10.060  0.1960  0.6669 -1.2359
32819SOL    HW2 2246   3.625   5.861  10.069  0.0757  0.4600  0.0774
32820SOL     OW 2247   9.228   6.142   3.266  0.2486  0.3460  0.3963
32820SOL    HW1 2248   9.299   6.079   3.280  0.5116 -0.1054 -2.4167
32820SOL    HW2 2249   9.157   6.110   3.322  0.8910 -1.5649  0.2128
32821SOL     OW 2250   1.214   8.492   7.461  0.5874  0.0889  0.5100
32821SOL    HW1 2251   1.179   8.476   7.548 -0.2365  0.9779  0.3593
32821SOL    HW2 2252   1.143   8.535   7.414  1.0564 -0.2742 -0.5724
32822SOL     OW 2253   9.087   1.787   0.691  0.5541  0.3992  0.1582
32822SOL    HW1 2254   9.085   1.827   0.604  1.5490 -0.3275 -0.2245
32822SOL    HW2 2255   9.025   1.714   0.685 -2.0983  2.3979  1.1875
32823SOL     OW 2256   8.741   7.534   6.582  0.4272 -0.4194  0.1922
32823SOL    HW1 2257   8.832   7.562   6.590  0.2885 -0.2129  1.1973
32823SOL    HW2 2258   8.733   7.502   6.492  1.5882 -0.8088  0.2178
32824SOL     OW 2259   1.467   8.316   1.926  0.2701  0.0058  0.4715
32824SOL    HW1 2260   1.548   8.266   1.917  0.0599 -0.5370  1.4574
32824SOL    HW2 2261   1.462   8.368   1.845  1.2346 -0.4719  0.0847
32825SOL     OW 2262   0.286   2.584   8.930  0.1092  0.6703  0.0219
32825SOL    HW1 2263   0.308   2.636   8.852  2.0894 -0.3546 -0.1786
32825SOL    HW2 2264   0.318   2.636   9.003 -0.5966  1.0534  0.0664
32826SOL     OW 2265   1.546   5.675   9.891  0.2290  0.7779  0.1561
32826SOL    HW1 2266   1.612   5.630   9.943 -0.0593  2.1331  1.7851
32826SOL    HW2 2267   1.491   5.720   9.955 -1.2821  1.0282 -1.2383
32827SOL     OW 2268   0.526   5.213   3.371 -0.8382  0.1248 -0.2324
32827SOL    HW1 2269   0.541   5.298   3.412 -0.7845 -0.0320  0.0782
32827SOL    HW2 2270   0.452   5.176   3.419  0.1855 -0.7147  0.7606
32828SOL     OW 2271   8.987   6.685   7.345  0.0861 -0.2208 -0.7478
32828SOL    HW1 2272   8.971   6.655   7.435 -0.1929  0.1246 -0.6781
32828SOL    HW2 2273   9.043   6.761   7.355 -1.1944  0.7604 -0.7521
32829SOL     OW 2274   6.575   8.123   4.454 -0.0829 -0.2210  0.4410
32829SOL    HW1 2275   6.568   8.214   4.426 -1.1273 -0.7463 -1.1168
32829SOL    HW2 2276   6.668   8.109   4.469  0.0475  1.2097  1.1324
32830SOL     OW 2277   3.988   8.922   5.942  0.5332 -0.1494 -0.7100
32830SOL    HW1 2278   3.924   8.854   5.920 -0.8357  0.6489  0.6608
32830SOL    HW2 2279   4.019   8.899   6.029  1.3293  0.0771 -0.9241
32831SOL     OW 2280   9.750   4.188   8.536 -0.2288 -0.6157 -0.3133
32831SOL    HW1 2281   9.683   4.257   8.535 -0.4889 -0.7705  1.5600
32831SOL    HW2 2282   9.706   4.112   8.498 -0.3300 -0.0943 -1.2797
32832SOL     OW 2283   7.875   3.729   7.345  0.7594 -0.0552  0.2380
32832SOL    HW1 2284   7.862   3.803   7.286  0.0243 -0.5271 -0.2106
32832SOL    HW2 2285   7.922   3.765   7.419  0.8927  0.7442 -0.2277
32833SOL     OW 2286   5.118   6.718   2.860 -1.1108  0.2816  0.2564
32833SOL    HW1 2287   5.189   6.737   2.799 -1.0752 -0.4476  0.0607
32833SOL    HW2 2288   5.045   6.690   2.805 -1.2282  0.0672  0.5179
32834SOL     OW 2289   7.404   2.715   2.671  0.3924  0.0640 -0.0660
32834SOL    HW1 2290   7.420   2.622   2.688  0.2622  0.3304  1.6909
32834SOL    HW2 2291   7.488   2.758   2.684  0.7742  0.0710 -2.2065
32835SOL     OW 2292   2.173   5.759   5.625  0.0338  0.2179 -0.0259
32835SOL    HW1 2293   2.149   5.795   5.540  1.5329 -1.9929 -1.5089
32835SOL    HW2 2294   2.175   5.664   5.611  0.1779 -0.2243  2.5321
32836SOL     OW 2295   9.747   7.178   8.825  0.0760  0.3935  0.1063
32836SOL    HW1 2296   9.823   7.223   8.862  1.3381 -0.6203 -1.1680
32836SOL    HW2 2297   9.713   7.126   8.898  0.5265  0.9444  0.7201
32837SOL     OW 2298   4.550   6.883   0.941  0.3445  0.0593  0.6017
32837SOL    HW1 2299   4.579   6.958   0.993 -0.2663 -0.3675  1.5657
32837SOL    HW2 2300   4.564   6.911   0.850  2.0721  0.5544  0.9727
32838SOL     OW 2301   3.248   9.803   2.025 -0.9602  0.5170  0.2737
32838SOL    HW1 2302   3.258   9.794   1.930 -0.8521  0.0155  0.3245
32838SOL    HW2 2303   3.310   9.871   2.049  0.0435 -0.3163  0.1515
32839SOL     OW 2304  10.055   0.162   9.587 -0.3303 -0.5033 -0.3412
32839SOL    HW1 2305  10.119   0.126   9.526 -0.1384 -0.9106  0.0980
32839SOL    HW2 2306   9.997   0.215   9.532  1.4348  1.3771 -0.4860
32840SOL     OW 2307   8.772   0.558   7.745 -0.1740 -0.4655 -0.1342
32840SOL    HW1 2308   8.709   0.495   7.781  0.4861 -0.1191  1.7543
32840SOL    HW2 2309   8.850   0.545   7.798  0.5910  0.6619 -0.9660
32841SOL     OW 2310   5.031   1.157   1.845 -0.0438 -0.1711  0.8337
32841SOL    HW1 2311   4.944   1.149   1.884 -1.3820  0.9895 -1.6114
32841SOL    HW2 2312   5.014   1.195   1.758  2.9878  0.7462  0.5372
32842SOL     OW 2313   6.312   0.871   3.575  1.0927 -0.2458  0.0819
32842SOL    HW1 2314   6.234   0.876   3.520  2.4728 -0.5244 -2.0156
32842SOL    HW2 2315   6.288   0.916   3.656 -0.4657  1.8902 -1.4632
32843SOL     OW 2316   7.702   2.028   7.079 -0.8104 -0.1103 -0.3112
32843SOL    HW1 2317   7.666   1.958   7.133  1.5778 -0.7164  0.6157
32843SOL    HW2 2318   7.742   1.984   7.005 -0.9410  0.4344 -0.7131
32844SOL     OW 2319   4.394   0.598   9.706 -0.0221  0.1270 -0.2284
32844SOL    HW1 2320   4.450   0.627   9.778 -1.2156 -1.0692  1.2446
32844SOL    HW2 2321   4.330   0.668   9.695 -0.2116  0.0334  0.2873
32845SOL     OW 2322   8.407  10.356   9.953 -0.0919  0.3708  0.5858
32845SOL    HW1 2323   8.390  10.262   9.949  1.1107  0.1672 -0.7524
32845SOL    HW2 2324   8.328  10.393   9.992 -0.1229 -1.2871  2.2285
32846SOL     OW 2325   0.467   8.446   8.814 -0.5275  0.2657  1.1942
32846SOL    HW1 2326   0.388   8.499   8.828 -0.2415  0.4181  2.3191
32846SOL    HW2 2327   0.481   8.449   8.719 -1.7934  0.3422  0.9920
32847SOL     OW 2328   9.692   8.503   0.246 -0.0856 -0.5708 -0.6450
32847SOL    HW1 2329   9.786   8.486   0.243 -0.1594 -1.1487 -0.0282
32847SOL    HW2 2330   9.661   8.484   0.158  0.3979 -0.2322 -0.8920
32848SOL     OW 2331   9.927   7.586   9.321 -0.1697  0.3438  0.8842
32848SOL    HW1 2332   9.977   7.635   9.386 -0.6263 -0.5166  1.9024
32848SOL    HW2 2333   9.989   7.523   9.285  0.0024  0.6176  0.6964
32849SOL     OW 2334   2.432   7.655   5.604 -0.4022  0.2937  0.1625
32849SOL    HW1 2335   2.492   7.592   5.563 -0.8177  0.5776 -0.9233
32849SOL    HW2 2336   2.458   7.657   5.696  0.9026  0.0151 -0.1836
32850SOL     OW 2337   0.302   4.054   1.569 -0.3836 -0.5267  0.4934
32850SOL    HW1 2338   0.322   4.088   1.656  0.1656  0.0403  0.1557
32850SOL    HW2 2339   0.208   4.036   1.571 -0.5060  0.1398  0.9824
32851SOL     OW 2340   1.131   3.931   2.201  0.0625 -0.2382  0.0259
32851SOL    HW1 2341   1.048   3.957   2.163  0.8143  1.9732 -0.2636
32851SOL    HW2 2342   1.131   3.971   2.288  0.7004 -0.4390  0.1221
32852SOL     OW 2343   6.229  10.068   6.325 -0.2085  0.1876 -0.8937
32852SOL    HW1 2344   6.182  10.050   6.244  0.5102  1.8656 -1.7481
32852SOL    HW2 2345   6.305  10.120   6.297  0.6436 -0.1038  0.7441
32853SOL     OW 2346  10.226   2.799   3.399  0.5538 -0.2932 -0.3351
32853SOL    HW1 2347  10.215   2.707   3.375  0.5308 -1.3942  3.2882
32853SOL    HW2 2348  10.296   2.831   3.342  2.1431 -3.2338 -0.1915
32854SOL     OW 2349   3.217   7.632   8.887  0.2669  0.1910  0.4703
32854SOL    HW1 2350   3.151   7.655   8.952  0.0556  1.0057 -0.0193
32854SOL    HW2 2351   3.292   7.602   8.939  0.3930  1.5708  1.1426
32855SOL     OW 2352   3.798   6.414  10.357 -0.1674 -0.0315  0.2087
32855SOL    HW1 2353   3.811   6.325  10.325 -2.1175 -0.4687  0.4988
32855SOL    HW2 2354   3.759   6.403  10.444 -0.9106  1.0934  0.0350
32856SOL     OW 2355   1.131   4.452   4.286 -0.6163  0.7201  0.3438
32856SOL    HW1 2356   1.117   4.433   4.379 -1.1169  0.3520  0.1975
32856SOL    HW2 2357   1.216   4.412   4.266 -0.5307  0.7569  0.6259
32857SOL     OW 2358   9.888   8.111   5.158  0.0208  0.0689  0.6335
32857SOL    HW1 2359   9.954   8.065   5.209  0.0931  0.0052  0.4833
32857SOL    HW2 2360   9.926   8.197   5.140  0.2509 -0.1228  0.1686
32858SOL     OW 2361   3.970   2.928   4.516  0.2739  0.5946 -0.1185
32858SOL    HW1 2362   3.965   2.875   4.437  1.5786  0.0427  0.1392
32858SOL    HW2 2363   4.062   2.923   4.543  0.3324  2.5774  0.2088
32859SOL     OW 2364   6.470   5.762   6.640  0.0421 -0.4523 -0.0286
32859SOL    HW1 2365   6.464   5.738   6.733 -0.4010 -0.6893 -0.1145
32859SOL    HW2 2366   6.401   5.829   6.629 -0.0902 -0.6236 -0.2458
32860SOL     OW 2367   0.226   1.620   2.490 -0.4332 -0.1270  0.1062
32860SOL    HW1 2368   0.227   1.528   2.516 -0.2252  0.3004  1.7590
32860SOL    HW2 2369   0.313   1.652   2.515 -1.2602  1.0286  1.7072
32861SOL     OW 2370   1.850   7.284   6.953  0.0440 -0.3406  0.0935
32861SOL    HW1 2371   1.862   7.189   6.956 -2.1886 -0.6523  1.9439
32861SOL    HW2 2372   1.779   7.298   6.890  1.0302  0.2318 -0.9265
32862SOL     OW 2373   4.047   5.128   9.065 -0.8138  0.5387  0.1495
32862SOL    HW1 2374   4.020   5.190   8.997  1.3070  1.5481  0.1472
32862SOL    HW2 2375   4.069   5.182   9.140  0.9017 -0.1894  0.2102
32863SOL     OW 2376   9.164   2.950   1.706 -0.1492  0.6499  0.3979
32863SOL    HW1 2377   9.225   2.975   1.776 -1.7554  1.3933  1.5809
32863SOL    HW2 2378   9.096   2.899   1.750 -1.0319  0.8700 -0.6728
32864SOL     OW 2379   2.919   7.071   3.299 -0.8077 -0.7560 -0.3131
32864SOL    HW1 2380   2.925   6.978   3.281  1.0207 -0.6138 -0.6969
32864SOL    HW2 2381   2.932   7.113   3.214  0.7917 -0.1618  0.1769
32865SOL     OW 2382   4.961   4.730   1.703  0.4300 -0.0114 -0.0339
32865SOL    HW1 2383   5.002   4.727   1.616  0.3426  0.1866 -0.0817
32865SOL    HW2 2384   4.867   4.732   1.685  0.4209  0.8545  0.0366
32866SOL     OW 2385   0.498   5.666   8.217  0.1777  0.0270 -0.1215
32866SOL    HW1 2386   0.437   5.663   8.291 -0.0653  0.0564 -0.3201
32866SOL    HW2 2387   0.580   5.699   8.255  0.5197 -1.4109  0.4474
32867SOL     OW 2388   9.117   0.666   1.675 -0.1482 -0.1610 -0.4468
32867SOL    HW1 2389   9.184   0.670   1.743 -0.4708  1.8711 -0.1854
32867SOL    HW2 2390   9.137   0.741   1.618 -1.1489 -0.5766 -1.3743
32868SOL     OW 2391   9.302   4.571   6.309 -0.3705  0.3074 -0.0744
32868SOL    HW1 2392   9.371   4.585   6.374 -1.0310  0.4870  0.6049
32868SOL    HW2 2393   9.302   4.476   6.294  2.0679  0.5699 -2.4032
32869SOL     OW 2394   0.266   7.342   4.736  0.0588 -0.2573 -0.0204
32869SOL    HW1 2395   0.340   7.284   4.751 -0.1288 -0.6585 -0.6239
32869SOL    HW2 2396   0.195   7.285   4.708 -0.4209  0.1485  0.3216
32870SOL     OW 2397   0.937   0.374   7.138  0.0284 -0.0570  0.4953
32870SOL    HW1 2398   0.935   0.308   7.207 -2.7508 -0.9163 -0.2744
32870SOL    HW2 2399   1.009   0.345   7.080 -1.2749 -2.6896  0.0140
32871SOL     OW 2400   8.967   9.850   1.558  0.2572  0.4374  0.2569
32871SOL    HW1 2401   9.029   9.808   1.499  2.2861  0.5735  2.1670
32871SOL    HW2 2402   8.910   9.780   1.588  1.3672 -0.2995  0.7039
32872SOL     OW 2403   9.345   8.330   8.697 -0.2173  0.1202 -0.1572
32872SOL    HW1 2404   9.351   8.405   8.637 -1.1357 -0.4591 -1.0117
32872SOL    HW2 2405   9.373   8.364   8.782 -1.5676  1.6843 -0.3078
32873SOL     OW 2406   8.531   4.256   1.952 -0.2063 -0.0555  0.2292
32873SOL    HW1 2407   8.524   4.337   1.900 -0.0880 -0.2423 -0.0782
32873SOL    HW2 2408   8.492   4.189   1.896  0.3788 -0.3532  0.1822
32874SOL     OW 2409   5.090   1.252   4.097 -0.0482  0.1382  0.3039
32874SOL    HW1 2410   5.065   1.264   4.005 -5.1482 -0.1618  1.3352
32874SOL    HW2 2411   5.070   1.160   4.115  0.7044  0.2385  1.8035
32875SOL     OW 2412   4.652   9.077   8.738  0.6343  0.4973  0.2913
32875SOL    HW1 2413   4.577   9.103   8.683  0.9354  2.6280  0.7906
32875SOL    HW2 2414   4.728   9.086   8.680  0.5362 -2.2034 -0.3850
32876SOL     OW 2415   0.593   4.173   2.696  0.3981 -0.3226 -0.1150
32876SOL    HW1 2416   0.642   4.247   2.731  2.4445 -1.7706  0.2837
32876SOL    HW2 2417   0.545   4.209   2.621  2.6139  1.0810 -0.9560
32877SOL     OW 2418   6.646   3.113   2.887 -0.3314 -0.2175  0.6993
32877SOL    HW1 2419   6.574   3.162   2.928 -2.8761 -2.2732 -0.9883
32877SOL    HW2 2420   6.640   3.137   2.794 -0.5169 -2.2980  0.1379
32878SOL     OW 2421   6.752   4.045   7.476 -0.7012 -0.0265  0.2459
32878SOL    HW1 2422   6.825   4.039   7.414 -0.4140  0.3679  0.5392
32878SOL    HW2 2423   6.699   3.968   7.458  1.0539 -1.6378  1.6613
32879SOL     OW 2424   3.308   6.639   0.556  0.0735 -0.0768  0.2597
32879SOL    HW1 2425   3.352   6.710   0.603  2.0682 -0.0991 -1.4417
32879SOL    HW2 2426   3.341   6.645   0.467 -1.6955 -1.5740 -0.5717
32880SOL     OW 2427   0.244   7.132   7.926  0.1119 -0.2908  0.0041
32880SOL    HW1 2428   0.185   7.063   7.896 -0.6320 -0.1966  1.1967
32880SOL    HW2 2429   0.269   7.179   7.847 -2.5086  0.5305 -0.4060
32881SOL     OW 2430   4.273   1.617   7.025 -0.0781  0.2590 -0.3402
32881SOL    HW1 2431   4.288   1.544   7.085 -0.2727 -0.3664 -1.0360
32881SOL    HW2 2432   4.182   1.643   7.041 -0.2935 -0.2439 -0.7126
32882SOL     OW 2433   9.909   8.920   1.235  0.0789 -0.2944  0.0193
32882SOL    HW1 2434   9.826   8.884   1.267 -0.9064 -0.8337 -2.8361
32882SOL    HW2 2435   9.917   8.885   1.146  1.4380  2.7539 -1.1941
32883SOL     OW 2436   2.848   2.878   2.755 -0.5730 -0.6882 -0.1609
32883SOL    HW1 2437   2.864   2.973   2.749  1.1248 -0.7242  2.3591
32883SOL    HW2 2438   2.927   2.839   2.718 -1.1572 -1.1528 -0.9461
32884SOL     OW 2439   8.721   0.841   0.300 -0.3600  0.7139 -0.6685
32884SOL    HW1 2440   8.683   0.837   0.388  1.1663 -2.0362 -0.0189
32884SOL    HW2 2441   8.814   0.823   0.313 -0.0738  0.3693 -2.8364
32885SOL     OW 2442   8.725   9.203   3.066 -0.1706  0.1118  0.6685
32885SOL    HW1 2443   8.727   9.205   2.970  1.5323  4.2530  0.5830
32885SOL    HW2 2444   8.633   9.217   3.088 -0.5438 -0.6366 -0.3481
32886SOL     OW 2445   1.210   6.335   6.892  0.7736 -0.8621 -0.0249
32886SOL    HW1 2446   1.125   6.332   6.936  0.7167 -1.7349 -0.1808
32886SOL    HW2 2447   1.235   6.244   6.881  0.7263 -0.6793 -1.9240
32887SOL     OW 2448   5.434   6.090   6.571  0.1621 -0.6834 -0.0799
32887SOL    HW1 2449   5.495   6.117   6.639  0.4187 -0.1651 -0.5030
32887SOL    HW2 2450   5.468   6.006   6.539  0.9343 -0.1706 -0.6402
32888SOL     OW 2451   7.805   4.797   6.581  0.4139 -0.0225  1.2064
32888SOL    HW1 2452   7.762   4.746   6.513  3.2660 -2.3122  0.8932
32888SOL    HW2 2453   7.831   4.878   6.537 -1.8318  0.6202  0.9491
32889SOL     OW 2454   2.618   7.191   1.217 -0.1751  0.5559 -0.3565
32889SOL    HW1 2455   2.583   7.212   1.131  1.0350  0.6388 -0.8472
32889SOL    HW2 2456   2.614   7.096   1.223  0.0832  0.5251 -0.6610
32890SOL     OW 2457   2.113   5.824   1.059  0.7343  0.1500  0.1517
32890SOL    HW1 2458   2.205   5.801   1.068  0.8084  0.6209  0.7073
32890SOL    HW2 2459   2.112   5.897   0.998  0.8168  0.6231  0.6991
32891SOL     OW 2460   8.878   4.167   4.420  0.1798 -0.0939 -0.2738
32891SOL    HW1 2461   8.916   4.215   4.346  2.4522  0.3161  1.0576
32891SOL    HW2 2462   8.876   4.230   4.491  0.1752 -1.0818  0.6255
32892SOL     OW 2463   3.243   4.357   7.189  0.1641 -0.2352  0.6960
32892SOL    HW1 2464   3.221   4.312   7.107  0.3022 -2.2061  1.6840
32892SOL    HW2 2465   3.165   4.349   7.243  0.1980  0.7459  0.9094
32893SOL     OW 2466   2.427   2.200   5.277  0.0150 -0.3581 -0.0985
32893SOL    HW1 2467   2.367   2.246   5.218  0.0908  0.3088  0.3328
32893SOL    HW2 2468   2.509   2.194   5.228  0.5015  1.4160  0.4091
32894SOL     OW 2469   6.151   8.791   3.497  0.3530  0.2062  0.4721
32894SOL    HW1 2470   6.138   8.725   3.428 -1.1606  1.6496 -0.6996
32894SOL    HW2 2471   6.065   8.828   3.511  0.5771 -0.1692  3.3947
32895SOL     OW 2472   3.392   9.893   1.432  0.0268  0.4375 -0.2042
32895SOL    HW1 2473   3.303   9.913   1.459 -0.4585  1.1043 -2.0735
32895SOL    HW2 2474   3.445   9.962   1.471 -0.1752 -0.2343  1.3111
32896SOL     OW 2475   4.587   0.344   0.448  0.0585 -0.7837 -0.0924
32896SOL    HW1 2476   4.591   0.379   0.359  0.9304  0.4098  0.3948
32896SOL    HW2 2477   4.678   0.331   0.474 -0.0182  1.5010  1.5906
32897SOL     OW 2478   9.688   9.218   3.100 -0.5264 -0.1261  0.2657
32897SOL    HW1 2479   9.718   9.143   3.151 -0.4212 -0.7195 -0.6612
32897SOL    HW2 2480   9.597   9.198   3.078 -0.7681  0.4139  0.7209
32898SOL     OW 2481   4.571   3.342   9.775 -0.5006 -0.1216  0.7626
32898SOL    HW1 2482   4.528   3.293   9.846  0.7870 -1.5688  0.6056
32898SOL    HW2 2483   4.500   3.365   9.715 -1.1026 -2.5702  0.4218
32899SOL     OW 2484   8.965   1.326   8.003 -0.7061  0.2422 -0.0051
32899SOL    HW1 2485   9.045   1.365   7.968  0.3262 -0.6979  1.1952
32899SOL    HW2 2486   8.940   1.261   7.938 -0.7993  0.9073 -0.6407
32900SOL     OW 2487   9.235   1.313   3.628  0.2579 -0.5099  0.3683
32900SOL    HW1 2488   9.157   1.355   3.665  0.3188  1.1683 -1.2444
32900SOL    HW2 2489   9.215   1.302   3.535  1.2610 -1.7508  0.2748
32901SOL     OW 2490   0.118   1.658   8.554  0.1093 -0.2077 -0.1481
32901SOL    HW1 2491   0.131   1.571   8.592 -1.1097 -0.4887 -0.3092
32901SOL    HW2 2492   0.108   1.715   8.630 -0.9442 -0.5415 -0.0055
32902SOL     OW 2493   9.671   5.958   5.139  0.0738  0.4343  0.1218
32902SOL    HW1 2494   9.755   5.965   5.185 -0.2323 -0.3830  0.8327
32902SOL    HW2 2495   9.669   5.869   5.107 -0.4031  0.5376 -0.1405
32903SOL     OW 2496   7.180   5.575   2.180 -0.1903  0.4716 -0.0645
32903SOL    HW1 2497   7.213   5.656   2.220  0.9865  0.5363 -1.1020
32903SOL    HW2 2498   7.207   5.581   2.088 -0.6570 -0.8069 -0.3082
32904SOL     OW 2499   8.057   3.107   5.309  0.7623 -0.5063  0.3473
32904SOL    HW1 2500   8.119   3.175   5.285 -1.6115  0.9237 -2.3130
32904SOL    HW2 2501   8.015   3.139   5.388  0.2022  0.7878 -0.4543
32905SOL     OW 2502   4.282   4.081   4.013 -0.9705  0.0106  0.3067
32905SOL    HW1 2503   4.192   4.049   4.010 -0.8477 -0.5257  1.6101
32905SOL    HW2 2504   4.328   4.019   4.069  0.4121 -0.1474 -0.9368
32906SOL     OW 2505   0.313   4.938   8.379  0.4252 -0.3802 -0.6404
32906SOL    HW1 2506   0.275   4.944   8.467  0.4975 -1.2339 -0.5434
32906SOL    HW2 2507   0.322   4.844   8.363  2.0838 -0.2110 -0.8429
32907SOL     OW 2508   7.195   6.921   9.355  0.2347 -0.5268  0.1624
32907SOL    HW1 2509   7.159   6.992   9.408  0.5983  0.2854 -0.6628
32907SOL    HW2 2510   7.119   6.873   9.323 -0.0558  0.2155 -0.2675
32908SOL     OW 2511   7.325   0.714   5.383  0.3360  0.8429 -0.4307
32908SOL    HW1 2512   7.308   0.806   5.362 -0.9010  0.7350  0.0273
32908SOL    HW2 2513   7.397   0.689   5.325  0.9804  2.2118 -0.2708
32909SOL     OW 2514   1.482   3.361   0.661  0.3332 -0.4815 -0.2892
32909SOL    HW1 2515   1.498   3.267   0.673  1.2566 -0.3035 -0.1243
32909SOL    HW2 2516   1.560   3.404   0.695  0.3573  0.3111 -1.3073
32910SOL     OW 2517   0.528   5.594   3.948 -0.7350  0.3713  0.2079
32910SOL    HW1 2518   0.584   5.601   4.026 -0.5413  1.8443 -0.0334
32910SOL    HW2 2519   0.439   5.597   3.983 -0.6506  0.8382  0.3885
32911SOL     OW 2520   5.899   4.076   7.877  0.1227  0.2965 -0.0721
32911SOL    HW1 2521   5.811   4.089   7.911  0.0806 -1.8757  0.8030
32911SOL    HW2 2522   5.889   4.079   7.781 -0.4834  2.2172  0.0110
32912SOL     OW 2523   0.408   0.822   5.289 -0.3614  0.2625 -0.2678
32912SOL    HW1 2524   0.315   0.832   5.271 -0.4069  0.1471 -0.1062
32912SOL    HW2 2525   0.414   0.825   5.385 -0.0853  1.1968 -0.3093
32913SOL     OW 2526   2.965   5.542   4.528  0.7051  0.0802  0.3558
32913SOL    HW1 2527   2.898   5.526   4.595  0.4630 -1.1827 -0.1534
32913SOL    HW2 2528   2.978   5.637   4.529 -1.0450  0.3553  0.5141
32914SOL     OW 2529   2.368   8.536   0.109 -0.1686 -0.0584  0.5498
32914SOL    HW1 2530   2.299   8.491   0.061  1.5424 -2.8450  0.4902
32914SOL    HW2 2531   2.417   8.584   0.042  0.0148 -0.9251  0.0542
32915SOL     OW 2532   2.496   3.233   3.187  0.0318  0.5881  0.3600
32915SOL    HW1 2533   2.511   3.310   3.242  1.2367  1.2107 -0.7981
32915SOL    HW2 2534   2.560   3.169   3.219 -0.6511  0.2153  1.0097
32916SOL     OW 2535   3.862   1.971   2.399  0.0597 -0.0529  0.3407
32916SOL    HW1 2536   3.772   1.942   2.410 -0.9030  2.5084  0.1014
32916SOL    HW2 2537   3.904   1.952   2.483  0.0412 -3.3547 -0.2762
32917SOL     OW 2538   6.572   6.416   2.027 -0.5798 -0.3051  0.0596
32917SOL    HW1 2539   6.482   6.414   1.997 -0.1628 -0.1618 -1.2481
32917SOL    HW2 2540   6.613   6.338   1.989 -0.4406 -1.0683  1.6670
32918SOL     OW 2541   9.282   7.133   1.787  0.1369 -0.0612 -0.0650
32918SOL    HW1 2542   9.252   7.167   1.703  0.0883  0.9886  0.3568
32918SOL    HW2 2543   9.353   7.073   1.765 -1.2709 -1.4595 -0.9844
32919SOL     OW 2544   0.328   7.999   7.062  0.1215  0.1002 -0.4046
32919SOL    HW1 2545   0.336   7.961   6.974  0.7787  0.4422 -0.4965
32919SOL    HW2 2546   0.267   7.942   7.107 -1.5083  0.8060 -1.5875
32920SOL     OW 2547   6.569   4.447   5.069 -0.5128 -0.7336  0.0008
32920SOL    HW1 2548   6.541   4.539   5.071  2.7362  0.3896  0.3091
32920SOL    HW2 2549   6.527   4.411   4.991 -2.1928  0.8516  0.0861
32921SOL     OW 2550   2.473   7.003   8.492 -0.0889  0.8514 -0.2130
32921SOL    HW1 2551   2.448   6.974   8.404 -0.0937  1.3730 -0.3872
32921SOL    HW2 2552   2.391   7.007   8.541 -0.0510  0.2701 -0.0922
32922SOL     OW 2553   9.118   1.301   3.367  0.0361 -0.6240  0.2481
32922SOL    HW1 2554   9.106   1.393   3.347  1.5128 -0.8707 -2.2977
32922SOL    HW2 2555   9.063   1.255   3.304  1.4234 -1.4708 -0.4006
32923SOL     OW 2556   5.316   6.901   0.614 -0.4613 -0.1039  0.2242
32923SOL    HW1 2557   5.379   6.921   0.683  0.1914 -0.4273 -0.2735
32923SOL    HW2 2558   5.364   6.847   0.552 -1.0557  0.1436 -0.4637
32924SOL     OW 2559   2.623  10.090   3.555  0.3018 -0.7250 -0.1597
32924SOL    HW1 2560   2.699  10.036   3.579 -0.0228 -0.8889  0.5166
32924SOL    HW2 2561   2.559  10.074   3.625  0.1026  0.3479 -0.0794
32925SOL     OW 2562   5.941   4.685   5.242 -0.2488 -0.4623  0.1922
32925SOL    HW1 2563   5.925   4.656   5.152  1.3429 -1.1028  0.0934
32925SOL    HW2 2564   5.902   4.772   5.247  2.0048  0.7647 -1.9544
32926SOL     OW 2565   0.707   5.638   5.809 -0.4639 -0.2719  0.0165
32926SOL    HW1 2566   0.618   5.626   5.842 -0.1850 -0.9422  0.5280
32926SOL    HW2 2567   0.748   5.698   5.872  0.9610 -3.6906  2.6347
32927SOL     OW 2568   5.338   7.010   3.677 -0.4100 -0.1636 -0.1237
32927SOL    HW1 2569   5.306   7.100   3.665 -0.1263 -0.3792 -3.3468
32927SOL    HW2 2570   5.405   7.017   3.745  0.8463  2.4518 -1.4814
32928SOL     OW 2571   6.245   5.933   6.927  0.0855  0.0215 -0.8624
32928SOL    HW1 2572   6.226   5.960   7.017  0.3753 -0.3725 -0.6796
32928SOL    HW2 2573   6.340   5.926   6.924  0.0708 -0.0272 -1.1843
32929SOL     OW 2574   9.017   1.580   9.221  0.0511 -0.0576  0.1987
32929SOL    HW1 2575   9.005   1.673   9.203  1.3243  0.0454 -0.2038
32929SOL    HW2 2576   8.930   1.542   9.210 -0.7166  1.2425  1.4744
32930SOL     OW 2577   5.799   0.143   3.014  0.2994  0.1296  0.0417
32930SOL    HW1 2578   5.809   0.194   2.933 -1.4879 -0.4478 -0.5942
32930SOL    HW2 2579   5.849   0.063   2.998  1.9865  1.0289  0.5172
32931SOL     OW 2580   5.462   0.761   3.854  0.4898 -0.4687 -0.1444
32931SOL    HW1 2581   5.502   0.752   3.767 -1.4484 -0.2243 -1.1049
32931SOL    HW2 2582   5.424   0.675   3.872 -0.5951 -0.0450 -0.3309
32932SOL     OW 2583   1.853   2.185   0.230 -0.0108 -0.7678 -0.0859
32932SOL    HW1 2584   1.763   2.210   0.212 -0.2184 -1.5213 -0.1437
32932SOL    HW2 2585   1.848   2.129   0.307  0.3903 -0.9199 -0.1647
32933SOL     OW 2586   0.731   6.241   1.321  0.0831  0.2972  0.1576
32933SOL    HW1 2587   0.770   6.161   1.286  1.4523  1.3170 -0.7403
32933SOL    HW2 2588   0.800   6.282   1.373 -1.1755  0.0321  2.1667
32934SOL     OW 2589   0.476   1.291   6.777  0.6051 -0.4393 -0.6834
32934SOL    HW1 2590   0.444   1.294   6.687  0.7293  0.1971 -0.7070
32934SOL    HW2 2591   0.398   1.271   6.829  0.4028 -0.1277 -0.8663
32935SOL     OW 2592   7.551   9.954   2.227  0.3315 -0.2228 -0.5517
32935SOL    HW1 2593   7.557   9.950   2.323 -0.1029  0.0382 -0.5123
32935SOL    HW2 2594   7.538  10.047   2.208 -1.0870 -0.4521 -0.7679
32936SOL     OW 2595   3.635   8.164   8.474 -0.4669 -0.1904  0.3021
32936SOL    HW1 2596   3.699   8.205   8.532  1.2606 -0.9011 -1.0309
32936SOL    HW2 2597   3.589   8.101   8.529  1.3604 -1.1004  0.8629
32937SOL     OW 2598   8.552   5.942   3.041  0.0173 -0.0859 -0.0822
32937SOL    HW1 2599   8.615   5.897   2.984  0.9282 -0.5584  1.2395
32937SOL    HW2 2600   8.522   6.016   2.989 -0.6967 -1.5610 -1.9136
32938SOL     OW 2601   8.261   2.679   0.698  0.1316  0.3240 -0.1568
32938SOL    HW1 2602   8.323   2.711   0.763 -1.0805  2.5718  0.0395
32938SOL    HW2 2603   8.297   2.596   0.667  1.8905  0.3173  1.7313
32939SOL     OW 2604   8.957  10.190   1.227  0.9230 -0.0741 -0.2212
32939SOL    HW1 2605   8.905  10.270   1.236  1.6005  0.3800 -0.3598
32939SOL    HW2 2606   8.896  10.120   1.251 -0.8093  0.1239 -3.5280
32940SOL     OW 2607   2.745   9.245   7.029  0.1085  0.1196 -0.0039
32940SOL    HW1 2608   2.770   9.329   6.991 -0.0079  0.5349  0.8018
32940SOL    HW2 2609   2.812   9.184   6.999 -0.6442  0.1459 -1.8534
32941SOL     OW 2610   6.278   4.197  10.335 -0.8246  0.0263  0.3812
32941SOL    HW1 2611   6.335   4.120  10.341  0.1316  0.5583 -1.1598
32941SOL    HW2 2612   6.286   4.240  10.420 -1.0798 -1.3577  1.1273
32942SOL     OW 2613   5.793   2.009   4.299 -0.3082 -0.1022 -0.8131
32942SOL    HW1 2614   5.858   1.986   4.366 -0.0009  2.1392 -0.2460
32942SOL    HW2 2615   5.752   2.089   4.332 -1.3361  0.1303 -2.5326
32943SOL     OW 2616   5.898   1.507  10.209 -0.2650 -0.0266 -0.0268
32943SOL    HW1 2617   5.830   1.569  10.236 -0.1137 -0.2469  0.8786
32943SOL    HW2 2618   5.931   1.471  10.291  1.7861  0.9510 -0.3592
32944SOL     OW 2619   5.473   6.929   0.332  0.0919 -0.4827  0.4145
32944SOL    HW1 2620   5.509   6.957   0.248  0.3638 -0.2585  0.6044
32944SOL    HW2 2621   5.548   6.893   0.379 -0.0012 -0.3346  0.6787
32945SOL     OW 2622   0.007   1.007   8.166  0.6052 -0.0327  0.3928
32945SOL    HW1 2623   0.054   1.005   8.250  2.8494 -1.9099 -0.8000
32945SOL    HW2 2624   0.004   1.100   8.144  0.8087  0.4220  2.0922
32946SOL     OW 2625   3.105   7.879  10.083 -0.8256 -0.2352 -0.1735
32946SOL    HW1 2626   3.183   7.827  10.061 -1.4405 -0.9562 -0.7081
32946SOL    HW2 2627   3.045   7.863  10.010 -0.7526  1.8426 -0.7494
32947SOL     OW 2628   4.489   5.867   2.293 -0.7731  0.5035 -0.1856
32947SOL    HW1 2629   4.505   5.862   2.387  1.1801 -1.3019 -0.5329
32947SOL    HW2 2630   4.563   5.917   2.259  0.2063 -1.3906 -1.0221
32948SOL     OW 2631   9.660   1.718   1.111 -0.0036 -0.0753 -0.1230
32948SOL    HW1 2632   9.705   1.802   1.108 -0.6206  0.4879  2.8366
32948SOL    HW2 2633   9.568   1.740   1.119 -0.2938 -1.0722 -0.6341
32949SOL     OW 2634   9.983   1.367   7.876  0.0589  0.3625  0.3758
32949SOL    HW1 2635  10.011   1.403   7.792 -0.2981 -0.7359 -0.2431
32949SOL    HW2 2636  10.042   1.292   7.890  0.4134  0.8117  1.3345
32950SOL     OW 2637   7.952   6.819   4.742 -0.0995 -0.6384 -0.0487
32950SOL    HW1 2638   7.970   6.725   4.742 -0.5797 -0.7534 -1.2374
32950SOL    HW2 2639   8.023   6.857   4.691  1.2176 -0.0680  2.0765
32951SOL     OW 2640   8.105   4.252   6.271  0.5488  0.3619  0.4262
32951SOL    HW1 2641   8.173   4.300   6.318 -0.0974  0.6197  1.1184
32951SOL    HW2 2642   8.081   4.180   6.331 -0.6283  0.9825  0.7274
32952SOL     OW 2643   8.885   2.205   6.848 -0.3457 -0.0021 -0.0492
32952SOL    HW1 2644   8.881   2.137   6.781 -2.5766  1.6441 -1.7453
32952SOL    HW2 2645   8.900   2.286   6.799 -0.8697  1.1078  1.5450
32953SOL     OW 2646   8.891   9.759   0.102  0.0215 -0.1449  0.7517
32953SOL    HW1 2647   8.986   9.768   0.099 -0.0576  0.7076  0.7380
32953SOL    HW2 2648   8.865   9.803   0.183 -0.4239  0.2490  0.4028
32954SOL     OW 2649   7.340   4.775   7.639  0.6218 -0.1156 -0.6155
32954SOL    HW1 2650   7.355   4.869   7.636  1.4489 -0.2172 -0.0396
32954SOL    HW2 2651   7.426   4.737   7.618  0.7746 -0.7306  0.9792
32955SOL     OW 2652   4.193   4.728   1.939 -0.0217  0.2281  0.6840
32955SOL    HW1 2653   4.152   4.810   1.912 -2.0065 -0.5217  1.2062
32955SOL    HW2 2654   4.227   4.746   2.027  0.8212  0.8789  0.2314
32956SOL     OW 2655   7.791   1.257   5.496 -0.9254  0.3488  0.7583
32956SOL    HW1 2656   7.738   1.265   5.575 -0.9451 -1.4435  0.9565
32956SOL    HW2 2657   7.772   1.170   5.462 -0.3339  0.7925 -0.8120
32957SOL     OW 2658   2.709   4.009   8.429  0.0866  0.0758 -0.2800
32957SOL    HW1 2659   2.686   4.052   8.346 -0.1969  0.0216 -0.2281
32957SOL    HW2 2660   2.721   4.081   8.490 -0.1515  0.0956 -0.2547
32958SOL     OW 2661   9.464   3.347   1.219 -0.6476  0.1865  0.1830
32958SOL    HW1 2662   9.502   3.273   1.173  0.4232  0.3989  0.6959
32958SOL    HW2 2663   9.497   3.339   1.309 -0.3371  1.3901  0.1994
32959SOL     OW 2664   3.744   1.505   6.342  0.0597 -0.0295 -0.4998
32959SOL    HW1 2665   3.650   1.518   6.353  0.4295  1.5422  1.2877
32959SOL    HW2 2666   3.776   1.589   6.310  0.8649 -0.5408 -1.0456
32960SOL     OW 2667   1.674   0.517   3.277 -0.0809  0.0889  0.1988
32960SOL    HW1 2668   1.610   0.451   3.251 -0.6379  0.2712  1.0771
32960SOL    HW2 2669   1.759   0.478   3.253 -0.4830 -0.2807 -0.6832
32961SOL     OW 2670   4.303   3.193   1.702 -0.2963  0.2247  0.2262
32961SOL    HW1 2671   4.314   3.287   1.689  2.0059  0.0855  0.6133
32961SOL    HW2 2672   4.260   3.162   1.623  2.4335  1.1004 -1.7325
32962SOL     OW 2673   8.522   7.547   9.011 -0.0571  0.0608  0.3571
32962SOL    HW1 2674   8.509   7.554   8.916  0.3512 -0.0386  0.2922
32962SOL    HW2 2675   8.483   7.463   9.034 -1.0789  0.5500  0.4440
32963SOL     OW 2676   0.461   6.709   6.092 -0.3385 -0.2361  0.5202
32963SOL    HW1 2677   0.520   6.783   6.109 -1.2808  0.6239  0.1934
32963SOL    HW2 2678   0.390   6.720   6.156 -2.0088  0.8898 -1.3704
32964SOL     OW 2679   4.790   5.564  10.218 -0.1059 -0.2381 -0.2120
32964SOL    HW1 2680   4.790   5.491  10.279 -1.7310 -0.7300 -0.7584
32964SOL    HW2 2681   4.838   5.532  10.142  0.1092 -0.3497 -0.0296
32965SOL     OW 2682   7.211   6.722   9.009 -0.6279  0.1711 -0.1074
32965SOL    HW1 2683   7.216   6.657   8.939  0.1499 -0.1646  0.2541
32965SOL    HW2 2684   7.301   6.748   9.025 -0.7910  0.2069  0.8183
32966SOL     OW 2685   7.121   2.183   6.539  0.1238  0.4824 -0.0591
32966SOL    HW1 2686   7.149   2.182   6.630 -0.1766 -0.5900  0.0334
32966SOL    HW2 2687   7.037   2.227   6.540  0.9983  2.2275 -0.1085
32967SOL     OW 2688   5.164   2.455   3.704 -0.6245 -0.9349  0.1185
32967SOL    HW1 2689   5.239   2.434   3.759 -0.0165 -1.9842 -1.0534
32967SOL    HW2 2690   5.160   2.551   3.705 -0.2639 -0.9111  1.4629
32968SOL     OW 2691   2.762   5.924   8.663 -0.1569  0.3958  0.2581
32968SOL    HW1 2692   2.798   5.883   8.741 -0.4259  0.2029  0.2858
32968SOL    HW2 2693   2.766   6.018   8.680  2.1183  0.4965 -0.5300
32969SOL     OW 2694   8.654   3.229   5.678 -0.4621  0.3352  0.2471
32969SOL    HW1 2695   8.580   3.280   5.645 -2.8272 -1.4538  2.3884
32969SOL    HW2 2696   8.652   3.148   5.626  0.7257  0.7353 -0.4397
32970SOL     OW 2697   3.061   0.803   5.033  0.3502  1.0404  0.5690
32970SOL    HW1 2698   2.970   0.807   5.061  0.0614 -1.0206  0.1203
32970SOL    HW2 2699   3.105   0.751   5.100  0.8007  0.5956 -0.0473
32971SOL     OW 2700   5.259   6.224   4.625  0.0957  0.4091  0.3133
32971SOL    HW1 2701   5.257   6.142   4.674  1.6792 -0.9862 -1.7849
32971SOL    HW2 2702   5.351   6.237   4.603 -0.4710  1.0493 -2.0436
32972SOL     OW 2703   6.427   9.940   1.238 -0.3649  0.4059  0.1624
32972SOL    HW1 2704   6.480   9.977   1.309 -1.1701 -0.8100  1.4398
32972SOL    HW2 2705   6.428   9.846   1.254 -1.3011  0.1977 -0.9245
32973SOL     OW 2706   6.848   4.806   9.039  0.3497  0.2086 -0.7484
32973SOL    HW1 2707   6.931   4.820   8.994  0.9443 -1.9903 -0.4642
32973SOL    HW2 2708   6.871   4.755   9.116 -1.1490  0.4176 -0.1321
32974SOL     OW 2709   2.336   4.387   8.470  0.5211 -0.1725 -0.4294
32974SOL    HW1 2710   2.386   4.310   8.442 -0.0568 -2.1863  3.4233
32974SOL    HW2 2711   2.246   4.369   8.444  0.3408 -1.0450  0.6896
32975SOL     OW 2712   3.029   5.286   0.038 -0.2840  0.7495 -0.3487
32975SOL    HW1 2713   3.052   5.262   0.128 -1.1605  0.1015 -0.2886
32975SOL    HW2 2714   3.113   5.310  -0.002  0.0645  1.3718  0.7308
32976SOL     OW 2715   0.118   2.121   7.463 -0.2478  0.6289  0.1428
32976SOL    HW1 2716   0.199   2.079   7.492  0.6378  0.4660 -2.3659
32976SOL    HW2 2717   0.074   2.056   7.409 -2.6061  0.3851  2.1685
32977SOL     OW 2718   1.267   0.106   8.538 -0.2883 -0.1084  0.2658
32977SOL    HW1 2719   1.359   0.080   8.549 -0.3511  0.0969  1.4076
32977SOL    HW2 2720   1.271   0.202   8.528 -0.4887  0.1366  2.1953
32978SOL     OW 2721   7.613   3.772   7.408 -0.2222  0.2327 -0.0320
32978SOL    HW1 2722   7.567   3.727   7.337 -0.1414 -1.3290  0.8650
32978SOL    HW2 2723   7.703   3.740   7.402 -0.1524  0.3052  0.5967
32979SOL     OW 2724   1.685   3.733   7.521  0.0685 -0.0109  0.2783
32979SOL    HW1 2725   1.758   3.726   7.458 -1.2331  0.5550 -1.3766
32979SOL    HW2 2726   1.629   3.659   7.500 -1.3225  1.2205 -0.5650
32980SOL     OW 2727   2.800   2.928   1.036 -0.1931 -0.0746 -0.6222
32980SOL    HW1 2728   2.806   2.964   1.125 -1.6878 -1.3645  0.0551
32980SOL    HW2 2729   2.889   2.899   1.016 -0.1994 -1.7760  1.3966
32981SOL     OW 2730   8.792   9.591   5.145  1.1211 -0.0291 -0.1355
32981SOL    HW1 2731   8.743   9.644   5.082 -0.4472  2.3092  2.8280
32981SOL    HW2 2732   8.727   9.532   5.183  1.6628 -0.2476  0.4772
32982SOL     OW 2733   8.106   8.749   7.685  0.0204 -0.1980 -0.1811
32982SOL    HW1 2734   8.084   8.673   7.631  0.8128  0.0629 -0.9065
32982SOL    HW2 2735   8.173   8.718   7.745 -1.4878 -0.7240  1.3230
32983SOL     OW 2736   0.250   3.023   8.633 -0.4591  0.1385 -0.3511
32983SOL    HW1 2737   0.277   3.050   8.545 -1.4172  1.5793 -0.2261
32983SOL    HW2 2738   0.314   3.064   8.691  1.3400 -2.3797 -0.4257
32984SOL     OW 2739   0.426   8.307   7.696 -0.3492  0.5458 -0.1059
32984SOL    HW1 2740   0.408   8.242   7.764  0.0099  0.0536 -0.4789
32984SOL    HW2 2741   0.340   8.324   7.657 -1.1048  2.9409  2.2969
32985SOL     OW 2742   4.920   0.391   7.507 -0.5824  0.2767  0.0414
32985SOL    HW1 2743   4.990   0.432   7.558  0.4488  0.3632 -1.3695
32985SOL    HW2 2744   4.881   0.328   7.567  1.1581 -0.2622  0.6906
32986SOL     OW 2745   0.875   9.870  10.331 -0.3100 -0.3711 -0.2261
32986SOL    HW1 2746   0.966   9.858  10.306 -0.6310 -0.1365 -1.5757
32986SOL    HW2 2747   0.876   9.867  10.427  1.1315 -0.1574 -0.2126
32987SOL     OW 2748   1.562   3.324   8.635 -0.1459 -0.1823  0.0138
32987SOL    HW1 2749   1.553   3.270   8.714  0.2507 -1.2005 -0.6200
32987SOL    HW2 2750   1.645   3.370   8.647  1.5862 -2.7740 -1.1959
32988SOL     OW 2751   8.985   2.596   1.470  0.5275 -0.1306  0.1119
32988SOL    HW1 2752   8.937   2.516   1.450 -0.4586  0.5991 -0.5304
32988SOL    HW2 2753   9.074   2.579   1.440  0.2301 -0.8463 -0.3836
32989SOL     OW 2754   6.864   8.307   3.811  0.0183  0.2767 -0.0708
32989SOL    HW1 2755   6.806   8.316   3.735  0.3169 -0.2423 -0.3608
32989SOL    HW2 2756   6.855   8.216   3.838 -0.0821  0.4539  0.5225
32990SOL     OW 2757   2.814   6.255   2.746 -0.2482 -0.1835  0.0502
32990SOL    HW1 2758   2.793   6.182   2.687  0.8802 -0.2549 -0.2910
32990SOL    HW2 2759   2.757   6.326   2.717  0.1305 -0.2908 -0.9958
32991SOL     OW 2760   5.832   9.236   2.696 -0.8180 -1.2186  0.2872
32991SOL    HW1 2761   5.855   9.152   2.735  1.6159 -0.8519 -0.1295
32991SOL    HW2 2762   5.784   9.283   2.764 -1.7465 -2.7224  0.7063
32992SOL     OW 2763   7.528   4.422   4.411  0.0484 -0.1575 -0.0391
32992SOL    HW1 2764   7.527   4.518   4.413  0.7128 -0.1191  2.0330
32992SOL    HW2 2765   7.450   4.396   4.459  0.9070 -0.5669  1.2048
32993SOL     OW 2766   3.448   0.825   1.510  0.1427 -0.2455  0.5382
32993SOL    HW1 2767   3.389   0.892   1.542 -1.1491 -1.2564  0.3507
32993SOL    HW2 2768   3.530   0.840   1.558 -0.2894  1.0955  0.8862
32994SOL     OW 2769   3.430   5.470   0.151 -0.0876  0.6068 -0.4692
32994SOL    HW1 2770   3.501   5.527   0.122 -0.5752  1.0264 -0.8671
32994SOL    HW2 2771   3.398   5.510   0.232  0.3848  0.1962 -0.0760
32995SOL     OW 2772   0.168   1.806   0.854 -0.5793 -0.4238  0.3682
32995SOL    HW1 2773   0.222   1.759   0.789 -1.0765 -1.9035  0.9792
32995SOL    HW2 2774   0.078   1.793   0.824 -0.7008  0.9400  0.0654
32996SOL     OW 2775   9.946   1.546   2.549 -0.0574 -0.2801  0.0100
32996SOL    HW1 2776   9.879   1.490   2.588  0.9038 -0.5837  1.2746
32996SOL    HW2 2777   9.908   1.634   2.554 -1.0424 -0.6395 -0.8290
32997SOL     OW 2778   9.212   1.715  10.255  0.1723  0.0533  0.3183
32997SOL    HW1 2779   9.240   1.776  10.323 -1.0769  1.5416 -0.4364
32997SOL    HW2 2780   9.133   1.675  10.290 -1.0775  1.5905 -0.5907
32998SOL     OW 2781   1.183   2.499   7.648 -0.0817  0.5126 -0.1440
32998SOL    HW1 2782   1.258   2.451   7.614 -0.9441 -1.2475  0.2951
32998SOL    HW2 2783   1.114   2.484   7.583 -0.6986  0.1254  0.5786
32999SOL     OW 2784   7.323   6.472   0.275 -0.4534 -0.4830  0.2772
32999SOL    HW1 2785   7.241   6.462   0.228  0.2724 -0.9221 -0.9351
32999SOL    HW2 2786   7.386   6.499   0.208  0.0014  1.7521  1.4926
33000SOL     OW 2787   9.047   9.371   9.886  0.3267  0.1752  0.0859
33000SOL    HW1 2788   8.976   9.342   9.829  1.5448  0.5877 -1.7591
33000SOL    HW2 2789   9.071   9.293   9.936  0.2936 -0.6889 -1.1903
33001SOL     OW 2790   8.059   0.827   9.606 -0.1954 -0.0058  0.3701
33001SOL    HW1 2791   8.092   0.757   9.549  0.0427  1.5159 -1.4313
33001SOL    HW2 2792   8.038   0.782   9.688  2.8461 -1.6897  0.3847
33002SOL     OW 2793   4.384   1.121   0.588  0.0799  0.3711 -0.5565
33002SOL    HW1 2794   4.331   1.101   0.511  0.7914 -2.6280 -0.4129
33002SOL    HW2 2795   4.474   1.127   0.554  0.2477  0.2254 -0.1455
33003SOL     OW 2796   9.572   0.881  10.177  0.7513  0.4172 -0.3815
33003SOL    HW1 2797   9.620   0.881  10.094  0.1339  1.0828 -0.7574
33003SOL    HW2 2798   9.596   0.964  10.218  0.6722  0.3109 -0.1198
33004SOL     OW 2799   7.090   7.652   5.083  0.3223  0.0066  0.1525
33004SOL    HW1 2800   7.115   7.723   5.142 -0.2164  0.9351 -0.7034
33004SOL    HW2 2801   6.995   7.654   5.083  0.3014 -0.8807  0.2973
33005SOL     OW 2802   2.766   9.447   8.185  0.0204 -0.1868 -0.6477
33005SOL    HW1 2803   2.791   9.509   8.254  0.2429  0.4560 -1.2909
33005SOL    HW2 2804   2.718   9.379   8.231  0.7582 -0.1331  0.2549
33006SOL     OW 2805   2.398   2.118   5.542 -0.4915  0.0401  0.2036
33006SOL    HW1 2806   2.407   2.135   5.448  0.7825  1.6771  0.5680
33006SOL    HW2 2807   2.417   2.025   5.552  0.6853  0.1201 -1.0144
33007SOL     OW 2808   7.080   5.177   4.204  1.3422  0.3012 -0.3182
33007SOL    HW1 2809   7.065   5.083   4.216 -1.8124  0.9301  1.6932
33007SOL    HW2 2810   6.995   5.212   4.176  1.7065  2.9110  1.5000
33008SOL     OW 2811   5.006   3.854   7.335 -0.2614 -0.5705  0.0023
33008SOL    HW1 2812   5.076   3.792   7.317 -1.0781 -1.2333 -1.0533
33008SOL    HW2 2813   4.974   3.831   7.422  0.6163 -0.4510  0.3641
33009SOL     OW 2814   1.878   3.103   2.530  0.1001 -0.5578  0.3698
33009SOL    HW1 2815   1.877   3.145   2.616 -2.3600 -1.8310  1.0694
33009SOL    HW2 2816   1.957   3.136   2.488 -1.6926  5.1139  0.6099
33010SOL     OW 2817   1.110   5.991   2.287 -0.1044  0.3283  0.3411
33010SOL    HW1 2818   1.084   5.911   2.332 -1.5407  2.0875  2.9200
33010SOL    HW2 2819   1.142   5.962   2.201 -1.3811 -2.8710  0.8266
33011SOL     OW 2820   0.114   3.263   3.590  0.6882  0.1378  0.1834
33011SOL    HW1 2821   0.182   3.201   3.617  1.6841 -0.3084 -2.9649
33011SOL    HW2 2822   0.161   3.346   3.578 -0.1484  0.8992  1.7896
33012SOL     OW 2823   9.771   8.535   8.105 -0.1359  0.1360  0.1571
33012SOL    HW1 2824   9.690   8.584   8.094  0.2100  0.4482 -1.1478
33012SOL    HW2 2825   9.840   8.602   8.107  0.1425 -0.1591  0.7421
33013SOL     OW 2826   2.910   7.265   4.814  0.5981 -0.2591 -0.1148
33013SOL    HW1 2827   2.852   7.206   4.765 -0.0038  0.9135 -0.8653
33013SOL    HW2 2828   2.851   7.314   4.871  1.2555 -1.3807  1.6282
33014SOL     OW 2829   0.814   3.442   0.775 -0.3952  0.4605  0.0458
33014SOL    HW1 2830   0.868   3.374   0.817 -1.0024  0.3793  0.7136
33014SOL    HW2 2831   0.855   3.455   0.689  1.7430  1.6199  1.1464
33015SOL     OW 2832   9.061   7.320   3.779  0.1328  0.1006 -0.7737
33015SOL    HW1 2833   8.973   7.333   3.814  0.8973  0.5695  1.1063
33015SOL    HW2 2834   9.064   7.228   3.754 -0.9154  0.1104 -0.9659
33016SOL     OW 2835   6.853   4.648   4.580  0.4188  0.4885  0.5246
33016SOL    HW1 2836   6.944   4.675   4.566 -0.5211  2.9951 -1.7270
33016SOL    HW2 2837   6.810   4.727   4.614 -0.9840 -0.6218  1.4453
33017SOL     OW 2838   5.460   8.344   1.014 -0.2510  0.4288  0.0659
33017SOL    HW1 2839   5.530   8.335   0.950 -1.9660 -0.4743 -1.8090
33017SOL    HW2 2840   5.387   8.382   0.964 -1.9003 -1.0291  1.2345
33018SOL     OW 2841   8.371   3.805   5.300  0.1605 -0.3284  0.1327
33018SOL    HW1 2842   8.466   3.803   5.314  0.2511  0.3166 -0.3305
33018SOL    HW2 2843   8.349   3.898   5.301 -0.6655 -0.5167  1.4700
33019SOL     OW 2844   1.361   2.121   7.608 -0.5523  0.0071 -0.3508
33019SOL    HW1 2845   1.281   2.112   7.556 -1.3301 -1.4259  1.0336
33019SOL    HW2 2846   1.367   2.040   7.658  1.6481  0.1965 -0.2092
33020SOL     OW 2847   5.499   7.666   4.115 -0.1435  0.5878 -0.0995
33020SOL    HW1 2848   5.567   7.641   4.052 -0.2254 -0.2332  0.1193
33020SOL    HW2 2849   5.422   7.614   4.089 -0.4605  0.9496  0.1058
33021SOL     OW 2850   2.103   4.225   5.567 -0.1450 -0.0736  0.2040
33021SOL    HW1 2851   2.082   4.315   5.543 -1.9984 -0.5715 -0.1355
33021SOL    HW2 2852   2.098   4.176   5.485 -0.7579 -0.7568  0.6366
33022SOL     OW 2853   6.636   7.204   3.219  0.5140 -0.8671  0.2712
33022SOL    HW1 2854   6.656   7.203   3.313  1.3931 -0.0610  0.1068
33022SOL    HW2 2855   6.545   7.235   3.214  0.4850 -0.8535  0.8444
33023SOL     OW 2856   9.436   0.662   8.461 -0.5812  0.3399  0.4739
33023SOL    HW1 2857   9.471   0.723   8.396  1.4329 -3.3934 -2.2649
33023SOL    HW2 2858   9.344   0.650   8.436 -0.7350  1.4283  0.4578
33024SOL     OW 2859   0.599   0.970   7.854  0.7587  0.2082 -0.4638
33024SOL    HW1 2860   0.533   0.905   7.830  0.1630  0.7405 -0.3158
33024SOL    HW2 2861   0.672   0.919   7.888  0.3675 -0.3918 -0.5073
33025SOL     OW 2862   5.625   2.492   4.398 -0.7170 -0.1314 -0.3228
33025SOL    HW1 2863   5.559   2.453   4.455  0.7380 -1.7432  0.3322
33025SOL    HW2 2864   5.653   2.421   4.341  1.4314  0.0929  0.3685
33026SOL     OW 2865   8.418   5.925   6.910  0.3954 -0.0584 -0.2284
33026SOL    HW1 2866   8.437   5.904   6.818 -3.3871 -1.8713 -0.7950
33026SOL    HW2 2867   8.407   5.839   6.952 -0.4033  0.7435  1.2816
33027SOL     OW 2868   5.550   5.323   8.898 -0.4664 -0.2635 -0.1821
33027SOL    HW1 2869   5.558   5.255   8.831 -1.6104  0.7588 -1.4095
33027SOL    HW2 2870   5.633   5.371   8.894 -0.4898 -0.2738 -0.7963
33028SOL     OW 2871   8.614   7.299   8.386 -0.3384  0.6826  0.0852
33028SOL    HW1 2872   8.544   7.241   8.356 -1.1901  1.4788  0.4521
33028SOL    HW2 2873   8.695   7.255   8.361 -0.9783 -0.0340 -0.7901
33029SOL     OW 2874   6.814   2.860   8.688  0.0672  0.3430 -0.2455
33029SOL    HW1 2875   6.849   2.905   8.612 -3.2672  1.8738 -1.0409
33029SOL    HW2 2876   6.826   2.921   8.760 -0.9310  0.8862 -0.5266
33030SOL     OW 2877   7.400   1.976   6.868 -0.4150  0.1503 -0.2171
33030SOL    HW1 2878   7.421   1.884   6.852  2.3448  0.6715 -0.0422
33030SOL    HW2 2879   7.376   1.979   6.961  1.9854 -0.0996  0.4885
33031SOL     OW 2880  10.007   2.412   6.874 -0.0419 -0.2291 -0.8289
33031SOL    HW1 2881   9.965   2.364   6.803  0.6589 -0.1623 -1.2913
33031SOL    HW2 2882  10.019   2.348   6.943  1.8633 -1.0120 -1.8347
33032SOL     OW 2883   1.352   3.107   7.247 -0.1187  0.1975 -0.0601
33032SOL    HW1 2884   1.331   3.108   7.341 -0.7129  2.2348 -0.1730
33032SOL    HW2 2885   1.309   3.028   7.214  0.4175 -0.7712  1.4310
33033SOL     OW 2886   1.784   0.879   0.275  0.4234  0.4375 -0.0395
33033SOL    HW1 2887   1.728   0.887   0.197 -0.7795  0.4584  0.8023
33033SOL    HW2 2888   1.845   0.809   0.253 -0.5632 -0.2782 -0.6247
33034SOL     OW 2889   7.576   3.458   7.201 -0.5102 -0.2201  0.0380
33034SOL    HW1 2890   7.604   3.386   7.144  0.9236  0.3862 -0.0741
33034SOL    HW2 2891   7.562   3.531   7.141  1.0755  0.4412  0.4163
33035SOL     OW 2892   8.727   5.188   2.141  0.3100  0.4023 -0.0216
33035SOL    HW1 2893   8.701   5.278   2.119  0.1716  0.3479 -0.0767
33035SOL    HW2 2894   8.782   5.161   2.067 -0.0823  0.2510 -0.2577
33036SOL     OW 2895   8.065   5.766   7.803 -0.1070  0.6986  0.7291
33036SOL    HW1 2896   7.982   5.720   7.790  0.9376 -0.9747 -0.3392
33036SOL    HW2 2897   8.061   5.797   7.894 -2.3947  1.7735  0.3304
33037SOL     OW 2898  10.103   2.221   7.058  0.2161 -0.5005  0.1303
33037SOL    HW1 2899  10.134   2.215   7.148  0.1408 -1.8792  0.0885
33037SOL    HW2 2900  10.174   2.265   7.011  0.6605 -0.6123  0.6829
33038SOL     OW 2901   3.000   2.451   5.298  0.9636 -0.1119 -0.0533
33038SOL    HW1 2902   3.087   2.486   5.315  1.1386 -0.3167 -0.5008
33038SOL    HW2 2903   2.987   2.463   5.204  0.9779 -1.1244 -0.1962
33039SOL     OW 2904   2.445   3.824   6.534 -0.5668 -0.5426 -0.0642
33039SOL    HW1 2905   2.412   3.869   6.456  0.3746 -1.4298 -1.0045
33039SOL    HW2 2906   2.418   3.733   6.523 -0.0601 -0.7577  0.4295
33040SOL     OW 2907   1.295   4.168   0.983  0.1770  0.2182  0.0965
33040SOL    HW1 2908   1.222   4.109   1.003 -0.2243  0.4581 -0.6265
33040SOL    HW2 2909   1.276   4.201   0.895  0.9159  0.6530  0.0904
33041SOL     OW 2910   6.917   5.914   5.057  0.5904 -0.1970  0.8568
33041SOL    HW1 2911   6.971   5.883   5.129  0.0122 -1.7681  0.6476
33041SOL    HW2 2912   6.829   5.918   5.093  0.2701 -1.1446  0.2180
33042SOL     OW 2913   3.808   9.623   0.584  0.1619 -0.1985  0.3437
33042SOL    HW1 2914   3.867   9.601   0.657 -0.2098  0.3192  0.8091
33042SOL    HW2 2915   3.824   9.716   0.568 -1.3937  0.2674  1.3009
33043SOL     OW 2916   0.862   8.243   5.668  0.3272  0.5150  0.4329
33043SOL    HW1 2917   0.788   8.295   5.638 -1.0220 -0.7911  1.3011
33043SOL    HW2 2918   0.847   8.234   5.762  0.2896 -1.6663  0.2709
33044SOL     OW 2919   6.521   7.809   4.032 -0.2999 -0.1929 -0.0273
33044SOL    HW1 2920   6.587   7.861   4.078 -1.2419  0.2675  0.8457
33044SOL    HW2 2921   6.480   7.871   3.971 -0.3918 -0.3100 -0.0842
33045SOL     OW 2922   4.471   1.624   3.282  0.1377  0.1981 -0.3198
33045SOL    HW1 2923   4.503   1.605   3.194  1.3389  4.7072 -1.1165
33045SOL    HW2 2924   4.399   1.687   3.267 -1.5074 -1.0381  1.8948
33046SOL     OW 2925   7.490   5.059   4.191 -0.4044 -0.1839 -0.3073
33046SOL    HW1 2926   7.569   5.068   4.245  0.9416  0.9800 -2.3522
33046SOL    HW2 2927   7.502   4.977   4.143 -1.9523 -1.6160  1.5448
33047SOL     OW 2928   0.384   2.337   2.491  0.0265 -0.1349 -0.0986
33047SOL    HW1 2929   0.453   2.366   2.551 -0.7240 -0.4698  0.9376
33047SOL    HW2 2930   0.335   2.272   2.540  1.2750 -2.8043 -2.1379
33048SOL     OW 2931   3.251   2.967   7.596  0.8932  0.4120  0.3857
33048SOL    HW1 2932   3.295   2.883   7.612  0.8338  0.3746  0.3519
33048SOL    HW2 2933   3.319   3.024   7.560  1.1972  0.6914  1.3521
33049SOL     OW 2934   6.353   1.363   1.126  0.4078 -0.1972  0.7369
33049SOL    HW1 2935   6.422   1.308   1.090 -0.6254 -1.6449  0.8880
33049SOL    HW2 2936   6.303   1.392   1.051 -0.7462 -1.8519  0.8069
33050SOL     OW 2937   4.577   3.283   1.829  0.2839  0.1506  0.6497
33050SOL    HW1 2938   4.623   3.221   1.773 -0.9237  0.2495 -0.4944
33050SOL    HW2 2939   4.506   3.317   1.774 -1.0933  0.0922  2.3100
33051SOL     OW 2940   4.516   6.080   1.082 -0.1718  0.4333 -0.2157
33051SOL    HW1 2941   4.490   6.171   1.091  1.0627  0.7675  0.1899
33051SOL    HW2 2942   4.563   6.060   1.162 -0.5078 -0.6034 -0.2530
33052SOL     OW 2943   6.098   4.168   4.857 -0.4327  0.2427 -0.3614
33052SOL    HW1 2944   6.024   4.180   4.797  1.2463  1.3314 -2.4004
33052SOL    HW2 2945   6.142   4.254   4.857  0.1748 -0.0237  1.7152
33053SOL     OW 2946  10.186   0.228   7.294 -0.2980  0.6278  0.1871
33053SOL    HW1 2947  10.190   0.223   7.199  0.7956 -1.2691  0.2906
33053SOL    HW2 2948  10.121   0.296   7.312 -1.8066 -0.1631 -1.8981
33054SOL     OW 2949   7.666   4.182   1.234 -0.0973  0.2548 -0.0514
33054SOL    HW1 2950   7.723   4.107   1.217 -0.0011  0.0515  1.0505
33054SOL    HW2 2951   7.578   4.144   1.242 -0.3445  0.5224 -1.4043
33055SOL     OW 2952   8.728   0.211   6.351  0.2490 -0.3667 -0.6162
33055SOL    HW1 2953   8.638   0.237   6.332  0.1858 -1.3408 -1.7581
33055SOL    HW2 2954   8.729   0.116   6.336  1.6818 -0.2361 -1.4789
33056SOL     OW 2955   1.867   6.884   1.418 -0.0686 -0.3938 -0.4602
33056SOL    HW1 2956   1.914   6.888   1.501 -1.2834 -0.5150  0.2518
33056SOL    HW2 2957   1.775   6.902   1.441 -0.5470 -1.1638 -1.6691
33057SOL     OW 2958   8.342   8.283   6.747  0.9074 -0.2398  0.1531
33057SOL    HW1 2959   8.374   8.371   6.729  1.2136 -0.3457  0.1769
33057SOL    HW2 2960   8.372   8.264   6.836  1.0661 -0.4693  0.0518
33058SOL     OW 2961   4.782   3.701   1.293 -0.8032 -0.5257 -0.4628
33058SOL    HW1 2962   4.796   3.780   1.241  1.2266  0.3562  1.2574
33058SOL    HW2 2963   4.797   3.728   1.384 -0.8184 -2.7189  0.2731
33059SOL     OW 2964   3.170   6.215   9.368 -0.2998 -0.0645  0.2984
33059SOL    HW1 2965   3.160   6.270   9.290 -0.5929  0.9599  1.0367
33059SOL    HW2 2966   3.236   6.150   9.344 -0.2092  0.3865 -0.7141
33060SOL     OW 2967   2.760   3.276   8.547 -0.3297  0.6551 -0.1319
33060SOL    HW1 2968   2.684   3.236   8.504 -0.6352 -0.6847  1.5522
33060SOL    HW2 2969   2.724   3.320   8.624  0.6876 -1.2724  1.5434
33061SOL     OW 2970   5.363  10.311  10.272 -0.8393 -0.1870 -0.3263
33061SOL    HW1 2971   5.342  10.223  10.240 -0.4495 -0.9461  1.4343
33061SOL    HW2 2972   5.458  10.312  10.279 -0.9341 -0.2160  1.2313
33062SOL     OW 2973   0.333   4.492   6.365 -0.0316 -0.5694 -0.3712
33062SOL    HW1 2974   0.410   4.510   6.420  0.8009  1.0452 -1.9381
33062SOL    HW2 2975   0.340   4.399   6.343  1.1580 -0.5813 -0.0086
33063SOL     OW 2976   8.769   5.620   4.795  0.6956  0.4638 -0.1526
33063SOL    HW1 2977   8.726   5.592   4.714 -1.8538  2.1024  0.5028
33063SOL    HW2 2978   8.696   5.644   4.853  2.4956  1.1506  1.9563
33064SOL     OW 2979   1.270   8.509   4.546  0.5722  0.0675 -0.2796
33064SOL    HW1 2980   1.199   8.450   4.522 -0.7365  1.7073 -0.6188
33064SOL    HW2 2981   1.289   8.558   4.466 -0.8395  2.5606  0.7938
33065SOL     OW 2982   0.165   0.336   0.027  0.2822 -0.8939  0.1914
33065SOL    HW1 2983   0.158   0.261   0.086  0.1289 -0.5866  0.5696
33065SOL    HW2 2984   0.177   0.411   0.085 -0.6803 -0.4784 -0.1127
33066SOL     OW 2985   9.074   0.218   5.270 -0.1082  0.2462 -0.1892
33066SOL    HW1 2986   9.061   0.290   5.332  1.2676 -0.2220  0.6885
33066SOL    HW2 2987   9.153   0.242   5.222 -0.4554 -0.0125 -0.9022
33067SOL     OW 2988   5.989   9.924   4.067 -0.5150 -0.7360  0.0413
33067SOL    HW1 2989   5.956  10.010   4.094 -0.0387 -0.3282 -0.6651
33067SOL    HW2 2990   5.996   9.875   4.149 -2.0741 -0.5649  0.3069
33068SOL     OW 2991   5.021   7.322   1.370  0.0388 -0.1012  0.4734
33068SOL    HW1 2992   4.950   7.384   1.385  0.6629  0.7391  0.0538
33068SOL    HW2 2993   4.988   7.238   1.404 -0.7427  0.4990  1.2375
33069SOL     OW 2994   4.432   6.535   6.642  0.1317 -0.1151 -0.1871
33069SOL    HW1 2995   4.525   6.537   6.665 -0.1283 -0.9318  1.0156
33069SOL    HW2 2996   4.404   6.446   6.664 -1.0259  0.2428 -0.1773
33070SOL     OW 2997   6.147   4.774   2.212 -0.5109  0.1848  0.0123
33070SOL    HW1 2998   6.112   4.690   2.242 -1.7882  0.0422 -1.7139
33070SOL    HW2 2999   6.097   4.839   2.261 -0.1684 -0.0493  0.6817
33071SOL     OW 3000   7.044   3.030   3.441  0.6138  0.1803 -0.1709
33071SOL    HW1 3001   6.990   2.977   3.383  0.9199 -0.3173 -0.0071
33071SOL    HW2 3002   6.982   3.073   3.500  0.3744 -0.1051 -0.2146
33072SOL     OW 3003   7.867   6.739   1.816  0.2512 -0.2966  0.5969
33072SOL    HW1 3004   7.932   6.809   1.812 -0.5005  0.4849  1.3929
33072SOL    HW2 3005   7.914   6.660   1.791  1.4784  0.2718  1.0458
33073SOL     OW 3006   2.052   3.081   8.262  0.3144 -0.2938  0.3753
33073SOL    HW1 3007   2.000   3.125   8.194  1.5873 -1.8686 -1.7326
33073SOL    HW2 3008   2.030   3.128   8.342 -3.0601  0.1984 -0.6521
33074SOL     OW 3009   1.339   0.961   1.920  0.0368 -0.0226  0.0677
33074SOL    HW1 3010   1.394   0.885   1.940 -0.9351 -1.1045 -1.1348
33074SOL    HW2 3011   1.360   0.981   1.829 -1.0972 -0.0897 -0.2267
33075SOL     OW 3012   3.341  10.126   3.922  0.5475  0.5087  0.1700
33075SOL    HW1 3013   3.430  10.099   3.901  0.5708  1.4458 -0.9890
33075SOL    HW2 3014   3.285  10.064   3.874  0.6018  1.7132 -1.5244
33076SOL     OW 3015   1.728  10.313   8.937  0.0322  0.3070  0.0171
33076SOL    HW1 3016   1.750  10.286   8.847  0.4797 -1.2259  0.5617
33076SOL    HW2 3017   1.633  10.312   8.940  0.0251 -0.4943 -0.2073
33077SOL     OW 3018   1.613  10.144   1.798 -0.3179  1.1258 -0.0924
33077SOL    HW1 3019   1.674  10.100   1.738 -2.7669 -0.5144 -1.5639
33077SOL    HW2 3020   1.635  10.237   1.791  0.3576  0.8538 -2.5795
33078SOL     OW 3021   3.878   2.149   6.516  0.0354 -0.2301 -0.4245
33078SOL    HW1 3022   3.899   2.236   6.484 -0.8638  0.7102  1.4243
33078SOL    HW2 3023   3.954   2.124   6.570  0.3833 -0.6981 -1.1158
33079SOL     OW 3024   9.078   8.293   9.296 -0.0880 -0.5038  0.1050
33079SOL    HW1 3025   9.027   8.216   9.323 -1.5235 -0.2619 -1.7249
33079SOL    HW2 3026   9.087   8.284   9.201 -0.2979  1.5777 -0.1601
33080SOL     OW 3027  10.091   2.723   9.750 -0.3844 -0.0430 -0.9402
33080SOL    HW1 3028  10.011   2.674   9.768 -0.0336 -0.5914 -0.8293
33080SOL    HW2 3029  10.061   2.803   9.707 -0.9087 -0.8568 -2.1605
33081SOL     OW 3030   1.124   0.217   4.310  0.0639 -0.1530  0.4119
33081SOL    HW1 3031   1.116   0.226   4.405  1.9180 -1.6216  0.7697
33081SOL    HW2 3032   1.188   0.147   4.298 -1.9658 -1.7999 -1.9364
33082SOL     OW 3033   6.792   6.363   3.062 -0.9546 -0.3409  0.1841
33082SOL    HW1 3034   6.779   6.387   2.971  1.9618 -1.5218 -0.6619
33082SOL    HW2 3035   6.813   6.445   3.106  0.0147 -0.0781 -0.7392
33083SOL     OW 3036   9.657   8.790   1.311 -0.0481  0.5880  0.2130
33083SOL    HW1 3037   9.634   8.767   1.401  1.3375 -1.0247  0.2081
33083SOL    HW2 3038   9.604   8.733   1.256 -0.5599  1.2539 -0.0019
33084SOL     OW 3039   4.460   9.304   0.785  0.5840  0.2446 -0.3011
33084SOL    HW1 3040   4.433   9.214   0.800  0.8619  0.2086  0.0064
33084SOL    HW2 3041   4.495   9.333   0.870  0.5161  0.6313 -0.4024
33085SOL     OW 3042  10.159   6.225   7.821 -0.2517  0.1620  0.1608
33085SOL    HW1 3043  10.205   6.296   7.778  0.0372 -0.3047 -0.3057
33085SOL    HW2 3044  10.077   6.217   7.773  0.3857 -0.8448 -0.7903
33086SOL     OW 3045   8.927   4.943   2.626  0.1299  0.1492  0.6090
33086SOL    HW1 3046   8.935   4.999   2.703  1.1414 -2.3790  2.5047
33086SOL    HW2 3047   9.017   4.918   2.605 -0.1335  0.8022 -1.4497
33087SOL     OW 3048   8.717   9.906   6.761  0.0723  0.8075 -0.2138
33087SOL    HW1 3049   8.655   9.864   6.700 -2.2182  2.8670  0.5383
33087SOL    HW2 3050   8.757   9.976   6.710 -0.6125  1.4745  0.1400
33088SOL     OW 3051   1.385   3.179   1.755 -0.8482  0.2489 -0.1620
33088SOL    HW1 3052   1.368   3.137   1.839 -2.1437  0.2080 -0.4248
33088SOL    HW2 3053   1.456   3.127   1.717 -0.0458  0.4436  1.0021
33089SOL     OW 3054   8.234   6.628   7.507  0.3362  0.2112 -0.3093
33089SOL    HW1 3055   8.172   6.701   7.508 -0.2454 -0.2707  0.4821
33089SOL    HW2 3056   8.319   6.669   7.492 -0.0704  0.9774 -0.5786
33090SOL     OW 3057  10.250   8.186   5.128 -0.0725 -0.0208  0.8003
33090SOL    HW1 3058  10.335   8.154   5.098  0.2884  1.4363  0.1809
33090SOL    HW2 3059  10.187   8.122   5.095  0.7692 -1.0253  1.1198
33091SOL     OW 3060   7.025   8.897   4.140 -0.4095  0.1841  0.9608
33091SOL    HW1 3061   7.107   8.893   4.090 -1.1442 -0.2149 -0.2489
33091SOL    HW2 3062   7.018   8.989   4.166 -0.7109  0.7545 -0.9525
33092SOL     OW 3063   3.127   6.064   0.429  0.1140 -0.2444 -0.6194
33092SOL    HW1 3064   3.168   5.995   0.481  0.5072  1.0074  0.7916
33092SOL    HW2 3065   3.034   6.046   0.435 -0.0422  1.0480  2.3653
33093SOL     OW 3066   7.604   1.526   8.062  0.0012 -0.2299 -0.1881
33093SOL    HW1 3067   7.698   1.541   8.066  0.1476 -0.9188 -0.7120
33093SOL    HW2 3068   7.588   1.494   7.973 -0.8337  0.5212 -0.3260
33094SOL     OW 3069   8.614   8.768   2.103 -0.4163  0.3257 -0.0280
33094SOL    HW1 3070   8.615   8.703   2.033 -2.5077  0.6000 -0.3744
33094SOL    HW2 3071   8.523   8.770   2.132  0.1696  1.0954  1.8914
33095SOL     OW 3072   6.211   7.498   4.482 -0.7106 -0.2900  0.1405
33095SOL    HW1 3073   6.266   7.421   4.473 -0.9562 -0.4850  0.2847
33095SOL    HW2 3074   6.189   7.501   4.575  1.1099  1.2209  0.5696
33096SOL     OW 3075   3.598   1.115   2.858  0.0295 -0.4232  0.0324
33096SOL    HW1 3076   3.518   1.082   2.818 -0.1955 -2.7723  2.1263
33096SOL    HW2 3077   3.668   1.064   2.817  0.1203 -0.5651  0.3580
33097SOL     OW 3078   4.564   7.375   0.440 -0.4136  0.3225  0.4876
33097SOL    HW1 3079   4.629   7.396   0.373  0.0560 -0.5112  0.6736
33097SOL    HW2 3080   4.558   7.454   0.493  0.0126  0.6065  0.1189
33098SOL     OW 3081   9.289   7.771   2.919  0.3876  0.4390  0.0808
33098SOL    HW1 3082   9.360   7.708   2.920 -0.5073 -0.6254 -0.8615
33098SOL    HW2 3083   9.333   7.856   2.906  1.5199 -0.0988  0.2701
33099SOL     OW 3084   4.569   5.670   2.091 -0.2328  0.0397  0.3170
33099SOL    HW1 3085   4.610   5.681   2.006 -0.7624  0.5413  0.1196
33099SOL    HW2 3086   4.481   5.706   2.081 -0.7911 -1.1563  0.6885
33100SOL     OW 3087   7.029   0.333   1.473  0.4531 -0.1497 -0.0308
33100SOL    HW1 3088   7.025   0.242   1.502  0.1734  0.2042  1.0729
33100SOL    HW2 3089   6.950   0.344   1.418  0.3109 -0.4782  0.1073
33101SOL     OW 3090   0.994   0.139   5.531  0.1789 -0.0346  0.2229
33101SOL    HW1 3091   0.959   0.134   5.442  0.2623  0.1158  0.1802
33101SOL    HW2 3092   1.065   0.203   5.525  0.8819 -0.8101  0.1767
33102SOL     OW 3093   1.847   3.242   3.985 -0.3878  0.3330  0.5682
33102SOL    HW1 3094   1.859   3.309   3.918 -0.4905 -2.4862 -2.4895
33102SOL    HW2 3095   1.767   3.269   4.031 -0.8118  1.9109 -0.9812
33103SOL     OW 3096   0.397   5.325   2.201 -0.2058  0.0672  0.0997
33103SOL    HW1 3097   0.381   5.311   2.294  1.2704  1.1786  0.5606
33103SOL    HW2 3098   0.309   5.325   2.162 -0.8742 -0.0971  1.5244
33104SOL     OW 3099   6.280   5.057   0.653  0.1422  0.2694  0.2312
33104SOL    HW1 3100   6.281   5.027   0.744  1.4141 -0.7043 -0.0856
33104SOL    HW2 3101   6.296   5.151   0.658 -0.9881  0.4309  1.0726
33105SOL     OW 3102   6.646   4.314   8.084 -0.0133  0.1776 -0.1065
33105SOL    HW1 3103   6.640   4.252   8.011 -1.6120  0.5265 -0.3120
33105SOL    HW2 3104   6.569   4.370   8.075  0.0031  0.5440  1.5720
33106SOL     OW 3105   4.571   8.080   4.130  0.1017  0.4373  0.5745
33106SOL    HW1 3106   4.641   8.021   4.155  0.2102  0.1769 -0.2931
33106SOL    HW2 3107   4.610   8.168   4.132  0.3195  0.3396  0.5429
33107SOL     OW 3108   0.366   1.734   3.559 -0.0349  0.1008  0.0247
33107SOL    HW1 3109   0.314   1.686   3.494 -2.1202 -0.7216  2.1923
33107SOL    HW2 3110   0.404   1.666   3.615 -1.1920  0.8331  1.7808
33108SOL     OW 3111   2.168   7.954   4.060  0.3330  0.0612 -0.1245
33108SOL    HW1 3112   2.248   7.945   4.008  0.1103  0.4187 -0.5404
33108SOL    HW2 3113   2.198   7.960   4.150  0.6845 -1.3157 -0.1328
33109SOL     OW 3114   9.810   1.356   3.099  0.2627  0.0308  0.0167
33109SOL    HW1 3115   9.870   1.362   3.173 -1.1552 -0.5233  1.2779
33109SOL    HW2 3116   9.793   1.263   3.088 -0.0819  0.1520 -0.5469
33110SOL     OW 3117   5.871   0.813   6.457  0.0867  0.1774 -0.0362
33110SOL    HW1 3118   5.830   0.809   6.370  0.9932  0.1339 -0.4723
33110SOL    HW2 3119   5.939   0.881   6.449 -0.0817  0.4505  0.7555
33111SOL     OW 3120   8.779   3.448   5.241 -0.4749  0.1151  0.4498
33111SOL    HW1 3121   8.843   3.396   5.193 -1.1128  0.5124 -0.8817
33111SOL    HW2 3122   8.831   3.500   5.302  0.3304 -0.6374  0.4207
33112SOL     OW 3123   2.456   2.466   4.665  0.4382 -0.0711 -0.1263
33112SOL    HW1 3124   2.423   2.511   4.742 -0.6815 -0.6541 -0.2472
33112SOL    HW2 3125   2.380   2.421   4.629  0.6592  1.0896 -2.2174
33113SOL     OW 3126   9.460   2.811   4.784 -0.3760  0.0905  0.2279
33113SOL    HW1 3127   9.466   2.719   4.811 -3.7242 -0.1169  0.7358
33113SOL    HW2 3128   9.442   2.806   4.690 -0.2510  0.2355  0.1969
33114SOL     OW 3129   6.369   9.547   1.542 -0.1149  0.2520 -0.6635
33114SOL    HW1 3130   6.453   9.537   1.497  0.3293  0.9269 -0.0194
33114SOL    HW2 3131   6.390   9.601   1.618 -0.7345 -1.3307  0.6862
33115SOL     OW 3132   1.348   4.232   1.480 -0.0302 -0.0272  0.1323
33115SOL    HW1 3133   1.364   4.205   1.390 -1.0935 -0.5509  0.0902
33115SOL    HW2 3134   1.263   4.276   1.477  0.1545  0.3836  0.7957
33116SOL     OW 3135   1.555   5.666   0.304 -0.6408 -0.0288  0.0455
33116SOL    HW1 3136   1.503   5.709   0.372 -1.3648  0.2354 -0.6697
33116SOL    HW2 3137   1.491   5.633   0.242 -0.0196 -0.9583 -0.1163
33117SOL     OW 3138   0.693   3.912   5.342  0.7556 -0.8473 -0.0739
33117SOL    HW1 3139   0.676   3.886   5.433  0.7056 -0.4205  0.0401
33117SOL    HW2 3140   0.782   3.948   5.344  0.0090  1.1167  0.2423
33118SOL     OW 3141   3.990   4.879   3.026 -0.0909  0.8252  0.3423
33118SOL    HW1 3142   3.989   4.891   2.931 -0.9332 -1.0414  0.0804
33118SOL    HW2 3143   3.917   4.931   3.058 -0.1942  0.9584 -0.1075
33119SOL     OW 3144   6.476   5.541   7.834 -0.0464 -0.5552  0.7614
33119SOL    HW1 3145   6.393   5.576   7.800  1.2257  2.0773  0.1362
33119SOL    HW2 3146   6.449   5.470   7.892 -2.7426  0.1873  0.5712
33120SOL     OW 3147   6.795   5.336   4.809  0.7536  0.3405 -0.5091
33120SOL    HW1 3148   6.781   5.251   4.851  2.5598  0.1374 -0.2371
33120SOL    HW2 3149   6.825   5.393   4.880  3.0035  0.2285 -1.2750
33121SOL     OW 3150   6.250   4.653   7.403 -0.6382 -0.2044 -0.0345
33121SOL    HW1 3151   6.170   4.690   7.440 -1.6951 -2.2262 -0.1808
33121SOL    HW2 3152   6.272   4.580   7.462  0.0566 -0.7976 -1.0006
33122SOL     OW 3153   2.515   2.128   7.758 -0.7190 -0.1085  0.2360
33122SOL    HW1 3154   2.543   2.056   7.701  2.3093 -0.7251  2.2565
33122SOL    HW2 3155   2.518   2.205   7.701  1.1770 -0.8511 -0.7969
33123SOL     OW 3156  10.155   1.591   9.728 -0.2257 -0.1840 -0.7011
33123SOL    HW1 3157  10.107   1.617   9.649 -0.9641 -0.1064 -0.2341
33123SOL    HW2 3158  10.112   1.639   9.799  1.0983  0.5463 -0.3783
33124SOL     OW 3159   1.065   8.173   0.076 -0.7985 -0.0465  0.0656
33124SOL    HW1 3160   1.034   8.263   0.069  0.0951  0.3562  0.9785
33124SOL    HW2 3161   1.044   8.133  -0.008 -1.7002  0.8522 -0.1505
33125SOL     OW 3162   4.727   9.250   0.651  0.1779 -0.0871 -0.4553
33125SOL    HW1 3163   4.796   9.313   0.670  0.0621 -0.3266  0.8156
33125SOL    HW2 3164   4.653   9.277   0.705 -0.1462 -0.8224 -0.5118
33126SOL     OW 3165   7.884   6.400   6.069  0.5397 -0.0128  0.5500
33126SOL    HW1 3166   7.877   6.331   6.003 -0.9603  0.8028 -0.1951
33126SOL    HW2 3167   7.910   6.354   6.148  0.9389 -1.2319 -0.2539
33127SOL     OW 3168   7.523   7.470   9.439  0.1514  0.2839 -0.4003
33127SOL    HW1 3169   7.578   7.437   9.510 -0.4263  0.3319  0.0682
33127SOL    HW2 3170   7.561   7.556   9.418  1.0967 -0.2604 -1.0161
33128SOL     OW 3171   5.555  10.362   8.181  0.3971 -0.5319 -0.4405
33128SOL    HW1 3172   5.568  10.269   8.201 -0.3938 -0.2239  1.7090
33128SOL    HW2 3173   5.461  10.374   8.183  0.4834  0.2968 -0.9171
33129SOL     OW 3174   8.579  10.115   0.636 -0.3762  0.2852  0.0545
33129SOL    HW1 3175   8.566  10.161   0.719 -2.0533  0.5073 -0.3047
33129SOL    HW2 3176   8.492  10.086   0.610  0.0883  0.3591 -1.7186
33130SOL     OW 3177   3.217   3.593   2.827  0.4354  0.2975  0.9375
33130SOL    HW1 3178   3.277   3.658   2.789  0.6763  0.0875  0.9526
33130SOL    HW2 3179   3.273   3.517   2.844 -0.2013 -0.5803 -0.7793
33131SOL     OW 3180   9.369   7.562   4.299 -0.2616  0.1441 -0.2475
33131SOL    HW1 3181   9.337   7.511   4.373  1.8761 -1.9463 -0.6499
33131SOL    HW2 3182   9.430   7.625   4.339 -0.2705  0.0605 -0.1000
33132SOL     OW 3183   7.906   3.140   3.318  0.1944 -0.4155 -0.1768
33132SOL    HW1 3184   7.847   3.082   3.270  0.6880 -0.4751 -0.7273
33132SOL    HW2 3185   7.872   3.228   3.301 -0.7252 -0.5448  0.8933
33133SOL     OW 3186   7.120   5.410   6.039  0.0596 -0.7673 -0.3433
33133SOL    HW1 3187   7.170   5.402   6.120  0.4379 -1.2058 -0.6090
33133SOL    HW2 3188   7.129   5.324   5.998 -0.3855 -0.6441 -0.7008
33134SOL     OW 3189   2.566   7.238  10.076 -0.4437 -0.1133  0.8477
33134SOL    HW1 3190   2.570   7.146  10.047 -0.1380 -0.4820  1.9978
33134SOL    HW2 3191   2.658   7.262  10.089 -0.5320  0.3286  0.6529
33135SOL     OW 3192   4.555   4.910   2.692  0.0147  0.1024 -0.4641
33135SOL    HW1 3193   4.479   4.909   2.750 -0.1162  1.4433 -0.5690
33135SOL    HW2 3194   4.519   4.897   2.604  0.0512 -0.5373 -0.3825
33136SOL     OW 3195   7.006   0.668   3.117  0.1985 -0.2480 -0.5477
33136SOL    HW1 3196   7.024   0.690   3.025 -0.5731  2.2966 -0.1676
33136SOL    HW2 3197   7.091   0.678   3.160  0.1206  0.8619 -0.6198
33137SOL     OW 3198   7.626   9.818   3.690  0.1029 -0.0630  0.2414
33137SOL    HW1 3199   7.580   9.749   3.643  0.8213 -0.5350  0.2322
33137SOL    HW2 3200   7.661   9.875   3.622 -1.4378  0.9564  0.2579
33138SOL     OW 3201   1.481   1.222   4.617  0.4061  0.2237 -0.2721
33138SOL    HW1 3202   1.431   1.233   4.698  0.6354 -0.0473 -0.0914
33138SOL    HW2 3203   1.430   1.159   4.566 -0.4897  1.4704 -0.9634
33139SOL     OW 3204   4.172   0.787   6.224  0.4759  0.5504 -0.0198
33139SOL    HW1 3205   4.186   0.798   6.318 -0.9306  1.5566  0.1068
33139SOL    HW2 3206   4.260   0.774   6.188  0.9331 -1.2453  1.5672
33140SOL     OW 3207   8.105   2.682   5.739  0.1984 -0.4638 -0.5505
33140SOL    HW1 3208   8.108   2.647   5.650  0.7261 -2.3215  0.1633
33140SOL    HW2 3209   8.016   2.665   5.769  0.5841 -1.6656 -0.0431
33141SOL     OW 3210   5.823   4.913   5.376  0.5061  0.0297 -0.4662
33141SOL    HW1 3211   5.793   4.991   5.329 -3.2179  0.1539  1.7267
33141SOL    HW2 3212   5.906   4.940   5.416  0.9394  1.7242 -2.3166
33142SOL     OW 3213   5.716   3.960   1.364  0.2977 -0.0379  0.0936
33142SOL    HW1 3214   5.641   3.984   1.418 -0.8071 -1.6675 -0.6388
33142SOL    HW2 3215   5.787   3.944   1.426 -0.4526 -0.1837  0.9323
33143SOL     OW 3216   3.112   5.106   5.052  0.3903  0.1408  0.3729
33143SOL    HW1 3217   3.121   5.016   5.021 -3.4939  0.1476 -1.3889
33143SOL    HW2 3218   3.121   5.159   4.974  3.5910  1.5620  1.5294
33144SOL     OW 3219   7.396   5.146   9.327  0.3634  0.0851  0.1734
33144SOL    HW1 3220   7.451   5.212   9.369  0.0233 -0.6082  1.8026
33144SOL    HW2 3221   7.308   5.162   9.362  0.3085 -1.3318  0.7728
33145SOL     OW 3222   8.710   0.310   8.280 -0.0424 -0.2612 -0.6125
33145SOL    HW1 3223   8.696   0.273   8.367  0.6391  2.9289  0.9969
33145SOL    HW2 3224   8.622   0.332   8.249 -0.2262 -0.6052 -0.3354
33146SOL     OW 3225   4.941   9.415   1.827 -0.0320 -0.4009 -0.1962
33146SOL    HW1 3226   4.931   9.354   1.755 -1.2902 -0.2948 -0.1373
33146SOL    HW2 3227   4.869   9.394   1.887  0.2549  0.3162  0.4202
33147SOL     OW 3228   2.400   3.404   4.379  0.6655  0.1285 -0.1523
33147SOL    HW1 3229   2.455   3.331   4.408 -1.9834 -1.5155  1.0417
33147SOL    HW2 3230   2.323   3.363   4.340 -0.1780  2.3241 -0.9639
33148SOL     OW 3231   8.775   4.002   4.713  0.4265 -0.0173 -0.2914
33148SOL    HW1 3232   8.795   3.991   4.620  0.0272 -0.9542 -0.2901
33148SOL    HW2 3233   8.711   3.932   4.731 -2.8059  2.6761 -0.3102
33149SOL     OW 3234   2.795  10.030   1.766 -0.1820 -0.2256  0.0020
33149SOL    HW1 3235   2.749  10.066   1.690 -1.0465  0.0491  0.6412
33149SOL    HW2 3236   2.821   9.941   1.738 -0.3092 -0.0592 -0.6760
33150SOL     OW 3237   8.711   7.183   3.901  0.5247 -0.6347  0.5584
33150SOL    HW1 3238   8.641   7.174   3.836 -0.1845  1.8264  0.8702
33150SOL    HW2 3239   8.755   7.265   3.878  1.8409 -0.9728  1.7278
33151SOL     OW 3240   7.837   3.311   7.118 -0.4445  0.6607  0.1813
33151SOL    HW1 3241   7.788   3.299   7.200  0.7676  0.6423  0.9147
33151SOL    HW2 3242   7.777   3.278   7.050 -1.4821  0.7153  1.0440
33152SOL     OW 3243   5.494   5.112   3.392  0.4950 -0.7390 -0.1338
33152SOL    HW1 3244   5.462   5.202   3.383  2.9845  0.1497 -1.1832
33152SOL    HW2 3245   5.442   5.074   3.463 -1.8506  0.9172 -0.8689
33153SOL     OW 3246   0.356   9.463   6.366  0.4363  0.3576 -0.0867
33153SOL    HW1 3247   0.436   9.423   6.401  1.4463  1.8038 -0.6578
33153SOL    HW2 3248   0.292   9.454   6.436  0.9502 -1.2336  0.2218
33154SOL     OW 3249   5.175   4.407   2.082  0.0424 -0.0366  0.2025
33154SOL    HW1 3250   5.137   4.415   2.170 -0.1662  1.9989 -0.0026
33154SOL    HW2 3251   5.112   4.453   2.026  1.5061  1.1546 -0.5428
33155SOL     OW 3252   2.666   8.959   8.152 -0.3382 -0.0104 -1.0935
33155SOL    HW1 3253   2.708   8.873   8.149  0.9713  0.6353 -2.3388
33155SOL    HW2 3254   2.650   8.982   8.060 -4.6832 -0.7374 -0.7540
33156SOL     OW 3255   6.384   4.276   0.307  0.0739  0.2217  0.6934
33156SOL    HW1 3256   6.297   4.297   0.340  0.4828  1.8983  0.8142
33156SOL    HW2 3257   6.427   4.229   0.378 -0.3035  0.5270  1.1251
33157SOL     OW 3258  10.218   4.421   5.365  0.4625 -0.0951  0.0600
33157SOL    HW1 3259  10.217   4.517   5.367  0.6937 -0.0750 -0.4818
33157SOL    HW2 3260  10.295   4.397   5.416  1.4265  0.0801 -1.2459
33158SOL     OW 3261   0.550   6.725   2.145  0.0120  0.1739  0.2630
33158SOL    HW1 3262   0.601   6.757   2.070 -1.8634  1.1046 -0.6858
33158SOL    HW2 3263   0.522   6.637   2.118 -0.3169  0.3464  0.0305
33159SOL     OW 3264   9.647   2.035   6.284  0.2291  0.3313 -0.6286
33159SOL    HW1 3265   9.604   2.097   6.225  0.9556 -0.1296 -1.6951
33159SOL    HW2 3266   9.578   2.003   6.340 -0.4188  1.0981 -0.9634
33160SOL     OW 3267   1.107   3.679   2.415 -0.0966 -0.0960 -0.0731
33160SOL    HW1 3268   1.156   3.758   2.440  1.6309 -0.8152 -0.9732
33160SOL    HW2 3269   1.148   3.609   2.466  0.6330 -0.8957 -1.6747
33161SOL     OW 3270   5.216   3.634   5.805  0.1543  0.0396 -0.3432
33161SOL    HW1 3271   5.215   3.619   5.900  0.5968 -1.6496 -0.5884
33161SOL    HW2 3272   5.150   3.574   5.770 -1.2694  1.8722 -0.9799
33162SOL     OW 3273   0.582   2.428   2.634 -0.2333  0.1110 -0.1973
33162SOL    HW1 3274   0.671   2.460   2.647  0.3166 -1.3606 -0.1278
33162SOL    HW2 3275   0.540   2.441   2.719  0.4993 -0.8819  0.3373
33163SOL     OW 3276   2.374   5.447   4.287 -0.7206  0.0355  0.1403
33163SOL    HW1 3277   2.374   5.460   4.382 -0.2887 -0.3427  0.1944
33163SOL    HW2 3278   2.320   5.369   4.273  2.0393 -2.0932  0.4124
33164SOL     OW 3279   1.537   1.388   9.461 -0.3413  0.0481 -0.0100
33164SOL    HW1 3280   1.448   1.379   9.495 -1.1891 -0.2505 -2.1289
33164SOL    HW2 3281   1.535   1.471   9.412  0.5559  0.0731 -0.0134
33165SOL     OW 3282   0.609   9.854   0.323 -0.6438 -0.0706 -0.3255
33165SOL    HW1 3283   0.569   9.805   0.395 -0.1965 -0.1535 -0.1305
33165SOL    HW2 3284   0.570   9.941   0.328 -0.5580 -0.0522  0.0687
33166SOL     OW 3285   5.062   4.801   0.841  0.2100  0.5558  0.0276
33166SOL    HW1 3286   5.038   4.824   0.931 -0.5542  1.6902 -0.4419
33166SOL    HW2 3287   5.119   4.872   0.813  0.5282  0.1515 -0.3477
33167SOL     OW 3288   0.794   1.429   8.291  0.7645 -0.0142  0.8857
33167SOL    HW1 3289   0.707   1.391   8.301  0.4994 -0.7442 -2.8454
33167SOL    HW2 3290   0.779   1.523   8.288 -0.2501 -0.1810 -1.4166
33168SOL     OW 3291   1.605   6.241   1.580 -0.2724 -0.4870 -0.6645
33168SOL    HW1 3292   1.516   6.243   1.615  0.6991  2.0106  2.1481
33168SOL    HW2 3293   1.601   6.295   1.501 -0.9073  1.6120  0.7140
33169SOL     OW 3294   9.864   5.953   7.064  1.2250  0.0987  0.0822
33169SOL    HW1 3295   9.937   5.939   7.004 -0.2294 -1.6423 -1.4231
33169SOL    HW2 3296   9.854   5.869   7.109  0.1550  0.3010  0.2548
33170SOL     OW 3297   2.874   9.775   4.710  0.2302 -0.1612  0.3488
33170SOL    HW1 3298   2.797   9.822   4.741 -0.0122  0.2444 -0.8282
33170SOL    HW2 3299   2.947   9.833   4.730  0.1517 -0.2088  0.7767
33171SOL     OW 3300   3.195   9.752   4.033 -0.3992 -0.2400  0.0474
33171SOL    HW1 3301   3.242   9.731   4.113 -0.2335 -0.0149  0.0118
33171SOL    HW2 3302   3.112   9.789   4.063 -0.2167  0.1165  0.1211
33172SOL     OW 3303   0.567   2.716   3.738  0.4796 -0.3303  0.0466
33172SOL    HW1 3304   0.523   2.684   3.816  2.4892 -2.8943  0.2580
33172SOL    HW2 3305   0.505   2.700   3.667  0.0135 -1.3772  0.6666
33173SOL     OW 3306   6.099   0.945  10.330  0.5722  0.4936  0.2303
33173SOL    HW1 3307   6.109   0.903  10.416  1.2801 -0.9127 -0.5282
33173SOL    HW2 3308   6.130   0.881  10.267 -0.1562  1.4214 -1.1240
33174SOL     OW 3309   2.160   5.484   1.837 -0.7483 -0.3527  0.1076
33174SOL    HW1 3310   2.156   5.499   1.931 -0.7466  1.6983 -0.1564
33174SOL    HW2 3311   2.153   5.572   1.799  1.5676 -0.8826 -1.7543
33175SOL     OW 3312   8.101   9.370   0.817  0.4275  0.5460 -0.0411
33175SOL    HW1 3313   8.111   9.459   0.785 -0.3804 -0.1173 -2.3875
33175SOL    HW2 3314   8.137   9.315   0.747 -0.3835 -1.0125  0.7056
33176SOL     OW 3315   3.754   5.328   3.810  0.3513 -0.3780  0.2328
33176SOL    HW1 3316   3.775   5.267   3.881  0.9562 -0.5729 -0.1057
33176SOL    HW2 3317   3.693   5.391   3.850 -0.5550 -1.3985  0.4858
33177SOL     OW 3318   6.350   2.485   0.874 -0.0975  0.2977  0.5822
33177SOL    HW1 3319   6.292   2.456   0.944  0.9672  2.6444  2.5628
33177SOL    HW2 3320   6.314   2.569   0.847  0.5699  0.2740 -0.4336
33178SOL     OW 3321   2.426   8.546   8.864 -0.1475  0.3743 -0.1629
33178SOL    HW1 3322   2.467   8.470   8.823  0.2034  0.9040 -0.8007
33178SOL    HW2 3323   2.332   8.533   8.851 -0.0286  0.6459 -1.3393
33179SOL     OW 3324   7.922   5.516   2.883 -0.1950  0.0904  0.4768
33179SOL    HW1 3325   7.942   5.506   2.790 -1.2635  0.2610  0.2236
33179SOL    HW2 3326   7.830   5.491   2.891 -0.2244  0.4669  1.4238
33180SOL     OW 3327   4.144   2.424   5.022 -0.5197 -0.2137 -0.1298
33180SOL    HW1 3328   4.199   2.422   4.943 -2.6116 -1.8175 -1.6686
33180SOL    HW2 3329   4.102   2.338   5.024  0.6885 -0.9000  3.7507
33181SOL     OW 3330   0.700   5.145   0.134 -0.3152 -0.5826  0.2400
33181SOL    HW1 3331   0.663   5.060   0.112 -0.4697 -0.7060  0.9654
33181SOL    HW2 3332   0.656   5.170   0.216  0.3849 -0.2210  0.5101
33182SOL     OW 3333  10.177   9.299   0.793  0.5061 -0.2857 -0.1010
33182SOL    HW1 3334  10.132   9.375   0.757 -1.1638 -0.5135  1.3703
33182SOL    HW2 3335  10.107   9.237   0.814  1.8458 -2.7113 -2.1891
33183SOL     OW 3336   2.941   0.839   5.945 -0.5341  0.5293  0.2133
33183SOL    HW1 3337   2.953   0.756   5.899  1.4040 -0.3747  2.1440
33183SOL    HW2 3338   2.921   0.902   5.877  0.4909 -1.0343 -1.6438
33184SOL     OW 3339   3.144   0.318   1.169 -0.4274 -0.3456 -0.0250
33184SOL    HW1 3340   3.089   0.241   1.159  2.2304 -2.2301 -1.1812
33184SOL    HW2 3341   3.171   0.341   1.080 -1.4238  2.2242  0.2431
33185SOL     OW 3342   8.543   6.862   0.480 -0.2966 -0.4952  0.6360
33185SOL    HW1 3343   8.500   6.948   0.486  0.5461 -0.0460  0.4000
33185SOL    HW2 3344   8.603   6.871   0.406 -0.3098 -1.3432  0.5150
33186SOL     OW 3345   7.285   3.979   5.852 -0.1140  0.3033  0.3074
33186SOL    HW1 3346   7.314   4.023   5.773  0.7495 -2.7459 -1.2315
33186SOL    HW2 3347   7.190   3.974   5.844  0.0182 -0.7192 -1.0519
33187SOL     OW 3348   2.202   7.120   5.835  0.6686 -0.0671  0.5354
33187SOL    HW1 3349   2.174   7.056   5.769  1.7502 -0.1310  0.1178
33187SOL    HW2 3350   2.124   7.174   5.850  0.8104  1.0432 -2.0621
33188SOL     OW 3351  10.059   1.645   8.603 -0.2323  0.1612  0.2910
33188SOL    HW1 3352  10.114   1.639   8.681  0.7191 -1.1052 -0.4483
33188SOL    HW2 3353  10.005   1.566   8.606  0.9727 -0.7824 -1.1502
33189SOL     OW 3354   1.412   2.029   9.505  0.0176  0.0463  0.0537
33189SOL    HW1 3355   1.441   2.067   9.423  0.0458 -0.0830  0.0034
33189SOL    HW2 3356   1.330   1.984   9.483  0.9405 -1.5448 -0.3116
33190SOL     OW 3357   9.757   6.116   7.781  0.4203 -0.0479  0.2790
33190SOL    HW1 3358   9.692   6.071   7.727  0.9343 -0.0670 -0.3407
33190SOL    HW2 3359   9.730   6.098   7.871  0.6164 -1.6126  0.0485
33191SOL     OW 3360   9.439   3.335   4.851  0.7114 -0.2384 -0.1530
33191SOL    HW1 3361   9.529   3.352   4.821  0.5852 -0.5269 -0.7280
33191SOL    HW2 3362   9.438   3.240   4.869  0.9186  0.0091  1.2751
33192SOL     OW 3363   9.129   6.129   9.093 -0.0466 -0.4465 -0.3888
33192SOL    HW1 3364   9.034   6.119   9.100  0.0219 -1.9777 -1.3797
33192SOL    HW2 3365   9.146   6.135   8.999  0.7865  0.6095 -0.1935
33193SOL     OW 3366   5.430   7.604   9.215  0.0288 -0.7860 -0.1938
33193SOL    HW1 3367   5.387   7.535   9.264 -0.0966 -0.8362 -0.3766
33193SOL    HW2 3368   5.362   7.641   9.160  0.0891 -0.5016 -0.0823
33194SOL     OW 3369   2.094   1.911   4.567 -0.1613 -0.1551 -0.1337
33194SOL    HW1 3370   2.111   1.849   4.638 -0.0900  1.4894  1.3527
33194SOL    HW2 3371   2.055   1.987   4.611  0.4179  1.1513 -1.7789
33195SOL     OW 3372   9.791   5.564   9.675  0.4481  0.1383  0.1140
33195SOL    HW1 3373   9.760   5.495   9.734 -1.1048  0.5250 -0.2032
33195SOL    HW2 3374   9.780   5.645   9.725 -0.8172  0.4640 -0.6374
33196SOL     OW 3375   9.841   4.629  10.231  0.0522  0.5564  0.0309
33196SOL    HW1 3376   9.816   4.721  10.226  1.0226  0.8074 -0.3988
33196SOL    HW2 3377   9.816   4.603  10.320 -0.6572  1.0916  0.0024
33197SOL     OW 3378   2.154   0.981   6.845  0.0671 -0.1467 -0.0254
33197SOL    HW1 3379   2.192   1.040   6.781  1.0045  1.2729  1.7476
33197SOL    HW2 3380   2.226   0.923   6.870  0.1557  0.2955  0.8019
33198SOL     OW 3381   7.583   1.334   9.810 -0.0188  0.1518  1.1355
33198SOL    HW1 3382   7.636   1.287   9.745 -1.0739 -0.5199  0.7239
33198SOL    HW2 3383   7.640   1.403   9.843  0.5147  0.6232 -0.6422
33199SOL     OW 3384   0.496   8.419   1.488  0.0393 -0.1483 -0.3102
33199SOL    HW1 3385   0.405   8.447   1.490  0.3678  0.9659 -0.4069
33199SOL    HW2 3386   0.517   8.412   1.395  0.3358  0.5583 -0.2977
33200SOL     OW 3387   6.449   1.533   0.493 -0.0083 -0.2849 -0.4974
33200SOL    HW1 3388   6.355   1.514   0.490 -0.1704  0.1905  1.0530
33200SOL    HW2 3389   6.456   1.613   0.544  1.3290 -1.0207  0.5403
33201SOL     OW 3390   8.490   6.379   3.067  0.8308 -0.1312  0.2366
33201SOL    HW1 3391   8.435   6.338   3.134 -2.0273  2.3873 -0.3216
33201SOL    HW2 3392   8.466   6.335   2.985 -0.9343  1.3045 -0.0900
33202SOL     OW 3393   3.802   5.765   9.649 -0.0683 -0.1719  0.2571
33202SOL    HW1 3394   3.843   5.690   9.605 -0.3879  0.0601 -0.4579
33202SOL    HW2 3395   3.821   5.839   9.591 -0.1230  0.2221  0.7392
33203SOL     OW 3396   9.086   2.696   7.849 -0.2534  0.2373  0.4946
33203SOL    HW1 3397   9.063   2.657   7.933  1.2491 -0.9856  0.4087
33203SOL    HW2 3398   9.108   2.620   7.794 -0.2634  1.0702 -0.6901
33204SOL     OW 3399   2.658   8.367   9.956 -0.1787  0.2265 -0.6306
33204SOL    HW1 3400   2.684   8.454   9.984  0.5046 -0.3258  0.4928
33204SOL    HW2 3401   2.590   8.383   9.889 -1.0754  1.5923  0.5456
33205SOL     OW 3402   5.970   2.272   3.786  0.7885  0.1344  0.2692
33205SOL    HW1 3403   5.987   2.198   3.845 -2.3106  0.8837  2.3065
33205SOL    HW2 3404   5.945   2.230   3.703  2.0473 -0.9934  0.4100
33206SOL     OW 3405   4.570   2.189   8.141 -0.2674 -0.5823  0.0010
33206SOL    HW1 3406   4.622   2.149   8.211 -1.6866 -0.9770  0.8580
33206SOL    HW2 3407   4.625   2.262   8.110  2.5178 -3.1899 -1.7769
33207SOL     OW 3408   7.757   1.897   6.592  0.4672  0.2180 -0.0540
33207SOL    HW1 3409   7.717   1.968   6.543 -1.4760 -1.5649 -1.2229
33207SOL    HW2 3410   7.850   1.900   6.569  0.2559  1.7564 -0.7961
33208SOL     OW 3411   2.855   0.745   0.499  0.4669 -0.0229 -0.1694
33208SOL    HW1 3412   2.891   0.689   0.567 -1.4873 -3.0606 -1.3902
33208SOL    HW2 3413   2.789   0.798   0.543  1.2836  0.2067  0.7857
33209SOL     OW 3414   1.925   5.153   3.371 -0.2131  0.3424  0.2593
33209SOL    HW1 3415   1.921   5.106   3.288  0.6812  1.2075 -0.2888
33209SOL    HW2 3416   1.928   5.246   3.347 -0.3153  0.6244  1.2650
33210SOL     OW 3417   3.548   1.987   2.190 -0.1487 -0.0614 -0.6386
33210SOL    HW1 3418   3.485   2.056   2.172 -1.4006 -1.8317 -3.7659
33210SOL    HW2 3419   3.621   2.004   2.132  1.3329  0.6665  1.3171
33211SOL     OW 3420   8.331   5.645   6.799  0.1282  0.1749 -0.0982
33211SOL    HW1 3421   8.334   5.643   6.895  0.6207 -0.6440 -0.1196
33211SOL    HW2 3422   8.264   5.581   6.776  1.7453 -1.5026 -0.3454
33212SOL     OW 3423   3.065   3.888   6.093 -0.1208 -0.0949  0.0034
33212SOL    HW1 3424   3.015   3.842   6.161  0.2843 -0.2197  0.2188
33212SOL    HW2 3425   3.025   3.860   6.011 -1.1067  0.6416  0.2155
33213SOL     OW 3426   2.515   0.798   7.061 -0.9576 -0.2344 -0.1994
33213SOL    HW1 3427   2.497   0.876   7.008 -0.6943  0.6610  0.9824
33213SOL    HW2 3428   2.593   0.820   7.110 -1.3935 -0.8993  0.8236
33214SOL     OW 3429   9.348  10.144   7.711  0.6324 -0.3679  0.0662
33214SOL    HW1 3430   9.348  10.169   7.803  2.9079  3.6966 -0.7867
33214SOL    HW2 3431   9.295  10.210   7.667 -1.1661 -2.7062 -1.5874
33215SOL     OW 3432   2.544   8.207   5.920  0.5217  0.3361  0.0370
33215SOL    HW1 3433   2.561   8.284   5.975 -1.8491  0.9443 -0.0014
33215SOL    HW2 3434   2.529   8.136   5.982 -0.2265  0.5840  0.1449
33216SOL     OW 3435   2.393   4.818  10.076 -0.1728  0.4609 -0.5295
33216SOL    HW1 3436   2.428   4.906  10.060 -0.2518  0.8274  1.1055
33216SOL    HW2 3437   2.303   4.823  10.046 -0.2405  1.0197 -0.2585
33217SOL     OW 3438   5.202   4.519   6.441 -0.0352 -0.5322 -0.0864
33217SOL    HW1 3439   5.127   4.466   6.466  0.0069 -0.6746 -0.2575
33217SOL    HW2 3440   5.248   4.537   6.524 -0.8687  0.5090  0.1693
33218SOL     OW 3441   1.143  10.126   5.537  0.6122  0.6183  0.4355
33218SOL    HW1 3442   1.085  10.190   5.578 -0.8584  0.0071 -0.5853
33218SOL    HW2 3443   1.161  10.062   5.606  0.4432  1.0751  0.9046
33219SOL     OW 3444   4.922   3.553   4.812 -0.7337 -0.8113 -0.0855
33219SOL    HW1 3445   4.970   3.635   4.820 -1.4043 -0.5417  1.8784
33219SOL    HW2 3446   4.962   3.508   4.738  0.7621  0.5351 -0.1439
33220SOL     OW 3447   2.452  10.275   8.550  0.1019  0.0825  0.1042
33220SOL    HW1 3448   2.466  10.258   8.457 -1.0214 -1.8650  0.2357
33220SOL    HW2 3449   2.377  10.220   8.573  1.6101 -1.0842  2.6042
33221SOL     OW 3450   9.855   2.853   4.851 -0.0200 -0.9902 -0.2264
33221SOL    HW1 3451   9.928   2.862   4.790 -0.3315 -0.4626 -0.5342
33221SOL    HW2 3452   9.778   2.878   4.800 -0.3344 -0.9356  0.2690
33222SOL     OW 3453   7.149   6.782   1.796  0.0823  0.3762 -0.4412
33222SOL    HW1 3454   7.058   6.792   1.823 -0.2115 -0.2094 -1.1791
33222SOL    HW2 3455   7.182   6.872   1.787 -0.6033  0.5998 -0.7547
33223SOL     OW 3456   3.596   0.521   0.361 -0.0984 -0.1777  0.0652
33223SOL    HW1 3457   3.608   0.523   0.456 -1.0202 -1.3114  0.2211
33223SOL    HW2 3458   3.575   0.430   0.341  1.0012 -0.1416 -1.3563
33224SOL     OW 3459   2.594   3.808   9.593 -0.1244 -0.1558 -0.1638
33224SOL    HW1 3460   2.569   3.718   9.615  1.3361 -0.5238  0.0661
33224SOL    HW2 3461   2.538   3.830   9.518  0.3400 -1.7051 -1.0208
33225SOL     OW 3462   2.829   3.024   5.300  0.2389 -0.2115 -0.2404
33225SOL    HW1 3463   2.801   2.987   5.216 -0.7220 -1.3113  0.5196
33225SOL    HW2 3464   2.786   2.968   5.366  1.7582  0.0016  0.9942
33226SOL     OW 3465   1.937   4.472   3.689 -1.1516  0.1255  0.6819
33226SOL    HW1 3466   2.021   4.487   3.645 -1.5747  1.7955  0.3839
33226SOL    HW2 3467   1.871   4.493   3.622 -1.8027  0.7807  1.5098
33227SOL     OW 3468   0.063   6.630   3.737 -0.7734 -0.2032 -0.2468
33227SOL    HW1 3469   0.101   6.627   3.649 -2.1639 -1.1579 -0.8489
33227SOL    HW2 3470   0.130   6.590   3.793  0.0101  0.1511 -0.9120
33228SOL     OW 3471   7.254   7.525   1.486  0.4135  0.0891  0.2603
33228SOL    HW1 3472   7.203   7.574   1.421  0.2403  0.7422  0.8805
33228SOL    HW2 3473   7.218   7.553   1.570  0.1402 -1.2987  0.6253
33229SOL     OW 3474   4.561   4.329   0.548  0.5766  0.3325 -0.0461
33229SOL    HW1 3475   4.614   4.408   0.542 -2.1163  2.2856  0.1650
33229SOL    HW2 3476   4.473   4.360   0.565 -0.2650 -2.8336  2.4450
33230SOL     OW 3477   6.843   8.465   8.547 -1.2754 -0.5955  0.1749
33230SOL    HW1 3478   6.890   8.387   8.577 -2.4115 -0.4347  2.5285
33230SOL    HW2 3479   6.838   8.522   8.623 -1.9948  1.0331 -1.0316
33231SOL     OW 3480   7.087   5.985   5.537 -0.4522  0.6436 -0.2795
33231SOL    HW1 3481   7.105   6.041   5.611 -1.8803  0.3004  0.3762
33231SOL    HW2 3482   7.127   5.901   5.559  0.9223  1.1100 -0.8683
33232SOL     OW 3483   6.110   5.214   6.807  0.2823  0.4633  0.3522
33232SOL    HW1 3484   6.125   5.308   6.799 -0.0619  0.6291  1.5111
33232SOL    HW2 3485   6.161   5.188   6.884  0.4375 -0.3161 -0.0051
33233SOL     OW 3486   1.802   5.230   9.942 -0.7154 -0.0494 -0.2213
33233SOL    HW1 3487   1.769   5.188  10.022 -0.0555  0.6840  0.4457
33233SOL    HW2 3488   1.882   5.182   9.921 -0.8632 -0.2108 -0.4234
33234SOL     OW 3489   0.387   7.424   5.208 -0.3380  0.3165 -0.1213
33234SOL    HW1 3490   0.305   7.425   5.258 -2.3674 -2.2854 -3.0136
33234SOL    HW2 3491   0.385   7.341   5.160  1.8321  2.0664 -3.6951
33235SOL     OW 3492   3.911   4.093   8.990  0.4516  0.1150  0.2037
33235SOL    HW1 3493   3.852   4.133   8.926 -1.0885 -0.3928  1.2356
33235SOL    HW2 3494   3.996   4.089   8.946  0.1560  2.4649 -0.7244
33236SOL     OW 3495  10.340   1.336   0.145  0.0373  0.9654 -0.1177
33236SOL    HW1 3496  10.317   1.257   0.095  0.7244 -0.2292  1.3620
33236SOL    HW2 3497  10.256   1.367   0.179 -0.1890  0.6281 -0.3529
33237SOL     OW 3498   2.430   4.429  10.182  0.0218 -0.1098 -0.5304
33237SOL    HW1 3499   2.498   4.370  10.215  0.3290 -0.0873 -1.1105
33237SOL    HW2 3500   2.456   4.515  10.217  1.8983  0.4326 -2.9744
33238SOL     OW 3501   9.725   3.529   3.846 -0.2605  0.4818 -0.2868
33238SOL    HW1 3502   9.768   3.488   3.771 -1.1883 -2.6035  0.7105
33238SOL    HW2 3503   9.792   3.529   3.914 -0.7439 -1.2527  0.2590
33239SOL     OW 3504   8.713   6.757   4.702 -0.0691 -0.2506 -0.2008
33239SOL    HW1 3505   8.686   6.746   4.793 -1.3636 -3.3990 -0.8184
33239SOL    HW2 3506   8.802   6.792   4.708 -0.9413  1.8064  2.1566
33240SOL     OW 3507   7.851   8.737   7.397 -0.7230  0.6412 -0.1718
33240SOL    HW1 3508   7.923   8.779   7.350 -0.7288 -1.1487 -1.9194
33240SOL    HW2 3509   7.774   8.757   7.344 -0.7856 -1.1563 -0.8186
33241SOL     OW 3510   1.982   5.744   2.086  0.2412  0.3604 -0.0010
33241SOL    HW1 3511   1.975   5.816   2.024 -0.6159 -0.9316 -1.4663
33241SOL    HW2 3512   1.930   5.674   2.048  1.8890 -1.4163  0.8531
33242SOL     OW 3513   9.417   2.292   4.387 -0.1512  0.2605 -0.0126
33242SOL    HW1 3514   9.471   2.256   4.457  1.9727 -0.1784 -1.7834
33242SOL    HW2 3515   9.467   2.365   4.352 -0.9332  0.1978 -1.3516
33243SOL     OW 3516   9.434   1.722   6.655  0.2621 -0.0159 -0.2519
33243SOL    HW1 3517   9.407   1.632   6.636  2.0717 -0.3026 -1.9061
33243SOL    HW2 3518   9.374   1.752   6.722 -1.0414 -2.1154 -0.3855
33244SOL     OW 3519   2.155   1.501   2.837  0.5798 -0.5519 -0.3317
33244SOL    HW1 3520   2.169   1.577   2.780 -2.1123  0.8948  0.7556
33244SOL    HW2 3521   2.087   1.450   2.792  0.0528 -0.5819  0.4810
33245SOL     OW 3522   7.643  10.316   3.646  0.3022 -0.1812 -0.2187
33245SOL    HW1 3523   7.678  10.271   3.569 -2.2574  1.2609 -2.4195
33245SOL    HW2 3524   7.664  10.408   3.631 -1.0347  0.2359  0.2818
33246SOL     OW 3525   3.741   4.949   6.509  0.1717  0.2237  0.2530
33246SOL    HW1 3526   3.650   4.975   6.501 -0.2247 -1.0257  0.5327
33246SOL    HW2 3527   3.783   5.021   6.555 -1.2003 -0.2576  2.3829
33247SOL     OW 3528   0.687   2.307   1.090 -0.5285  0.5959  0.2041
33247SOL    HW1 3529   0.664   2.279   1.178 -0.3028  1.1165  0.4319
33247SOL    HW2 3530   0.745   2.238   1.057 -0.1686  0.6721  0.6676
33248SOL     OW 3531   3.053   5.695   3.709  0.2240  0.6255  0.0860
33248SOL    HW1 3532   2.995   5.687   3.785 -0.0494  2.4114  0.1064
33248SOL    HW2 3533   3.045   5.611   3.664 -2.4329  0.8271  0.0386
33249SOL     OW 3534   6.834   5.489   6.858  0.1611 -0.5008  0.0684
33249SOL    HW1 3535   6.744   5.502   6.828 -0.2190 -1.4835  0.7171
33249SOL    HW2 3536   6.853   5.566   6.911 -0.0693  0.0112 -0.5778
33250SOL     OW 3537   4.055   2.918   4.832  0.0790 -0.1768  0.6200
33250SOL    HW1 3538   4.070   2.841   4.777 -1.3417  0.1037 -0.2130
33250SOL    HW2 3539   4.107   2.987   4.791 -2.1040  0.4179 -1.3586
33251SOL     OW 3540  10.173   2.656   5.182  0.3178 -0.1996  0.1532
33251SOL    HW1 3541  10.151   2.563   5.190 -2.4894  0.2612 -0.9557
33251SOL    HW2 3542  10.111   2.699   5.241 -2.0236  1.2287 -3.0378
33252SOL     OW 3543   2.445   7.344   5.363 -0.4658  0.2514 -0.2289
33252SOL    HW1 3544   2.463   7.250   5.371  1.3443  0.5239 -0.7037
33252SOL    HW2 3545   2.354   7.353   5.390 -0.2996 -1.4640  1.0630
33253SOL     OW 3546   5.983   3.128  10.098 -0.3883 -0.4569 -0.7621
33253SOL    HW1 3547   6.014   3.181  10.024 -0.4457 -0.4923 -0.8106
33253SOL    HW2 3548   5.890   3.116  10.082 -0.6047  0.3296 -0.2048
33254SOL     OW 3549   9.613   8.137   2.702 -0.0411 -0.3673  0.2837
33254SOL    HW1 3550   9.577   8.130   2.614  0.6319  1.1244 -0.1387
33254SOL    HW2 3551   9.707   8.122   2.692  0.4346  2.1859  0.3142
33255SOL     OW 3552   1.259   2.444   1.856  0.4203 -0.7502  0.3812
33255SOL    HW1 3553   1.164   2.437   1.850  0.1307  0.2552  2.5665
33255SOL    HW2 3554   1.287   2.356   1.882 -0.0713 -0.7442  0.9652
33256SOL     OW 3555   3.506  10.273   9.339 -0.3544  0.3713  0.0592
33256SOL    HW1 3556   3.464  10.187   9.330 -0.3491  0.3633  0.1160
33256SOL    HW2 3557   3.454  10.331   9.283 -0.0464  0.2174 -0.3914
33257SOL     OW 3558   7.352   6.617   8.016  0.4596 -0.6669  0.1080
33257SOL    HW1 3559   7.418   6.665   7.966 -2.1249  1.9372 -1.1440
33257SOL    HW2 3560   7.398   6.587   8.094  3.1981  0.5776 -0.8988
33258SOL     OW 3561   4.004   5.145   9.911  0.4070  0.4728 -0.3442
33258SOL    HW1 3562   4.041   5.060   9.936  1.4890  0.7133 -1.0582
33258SOL    HW2 3563   3.953   5.127   9.833 -0.4989  0.2517  0.2845
33259SOL     OW 3564   7.708   1.917   9.829 -0.2391  0.0980 -0.7366
33259SOL    HW1 3565   7.700   1.836   9.778 -0.9882  0.4501 -1.1902
33259SOL    HW2 3566   7.692   1.890   9.920 -2.5459  0.0290 -1.0990
33260SOL     OW 3567   6.109   7.244   1.220 -0.0173 -0.1551  0.1549
33260SOL    HW1 3568   6.147   7.228   1.306  0.3796 -1.0820 -0.1848
33260SOL    HW2 3569   6.014   7.240   1.234 -0.0309  1.6434  0.9013
33261SOL     OW 3570   9.014   5.103   5.274 -0.2033  0.1123 -0.4563
33261SOL    HW1 3571   8.992   5.194   5.253 -1.1139 -0.4798 -2.2823
33261SOL    HW2 3572   9.099   5.109   5.318 -0.7646  1.9234  0.4754
33262SOL     OW 3573   4.833   7.021   0.795 -0.1564  0.2498 -0.0734
33262SOL    HW1 3574   4.907   6.985   0.746  0.2372  0.5228  0.3009
33262SOL    HW2 3575   4.756   6.975   0.762  0.2323 -0.3149 -0.2020
33263SOL     OW 3576  10.130   7.866   5.691  0.1394 -0.4378  0.8983
33263SOL    HW1 3577  10.088   7.820   5.618  0.2432 -0.9428  1.1504
33263SOL    HW2 3578  10.107   7.958   5.678  0.2881 -0.5000  0.1388
33264SOL     OW 3579   3.126   6.936   3.753 -0.2432 -0.9002  0.0248
33264SOL    HW1 3580   3.104   6.954   3.661  1.1553  0.3277 -0.1119
33264SOL    HW2 3581   3.085   7.007   3.802  0.8877 -0.2643  0.0799
33265SOL     OW 3582   2.250   2.560   1.609  0.2920 -0.0946 -0.1612
33265SOL    HW1 3583   2.284   2.552   1.698  0.4011 -1.0891 -0.2863
33265SOL    HW2 3584   2.155   2.566   1.619  0.2527 -0.9314 -0.0188
33266SOL     OW 3585   9.391   4.549   7.466 -0.3418 -0.1735  0.4647
33266SOL    HW1 3586   9.378   4.455   7.461  1.8221 -0.6562  2.2149
33266SOL    HW2 3587   9.380   4.569   7.559 -2.1302  1.5728 -0.0615
33267SOL     OW 3588   4.171   4.467   9.751 -0.1668  0.1509  0.4569
33267SOL    HW1 3589   4.190   4.560   9.761 -1.2293  0.3606  0.6255
33267SOL    HW2 3590   4.144   4.457   9.659  0.1338 -0.0226  0.3867
33268SOL     OW 3591   5.007   8.259   9.565 -0.5962  0.3120 -0.1248
33268SOL    HW1 3592   5.072   8.189   9.563 -0.1627  0.7173 -1.2625
33268SOL    HW2 3593   4.923   8.214   9.576 -0.3339 -0.3973 -0.9204
33269SOL     OW 3594   1.415   8.201   2.930 -0.0099 -0.1818 -0.2048
33269SOL    HW1 3595   1.356   8.237   2.863 -0.4944  0.3704  0.5075
33269SOL    HW2 3596   1.357   8.161   2.994  0.3618  0.5430  0.6080
33270SOL     OW 3597   5.288   3.874   7.665  0.1846 -0.1106 -0.1279
33270SOL    HW1 3598   5.260   3.932   7.594  0.3130  0.0288 -0.0655
33270SOL    HW2 3599   5.208   3.828   7.691  0.0525  0.1403 -0.0851
33271SOL     OW 3600   8.282   8.470   7.597 -0.5085  0.0363 -0.6771
33271SOL    HW1 3601   8.202   8.417   7.601 -0.4262 -0.0814  2.3637
33271SOL    HW2 3602   8.348   8.411   7.561 -0.7167 -1.6358  1.4352
33272SOL     OW 3603   2.389   5.894   2.791 -0.0102 -0.4153  0.0240
33272SOL    HW1 3604   2.336   5.862   2.718 -0.6653 -0.5784  0.5650
33272SOL    HW2 3605   2.406   5.986   2.770  0.8064 -0.7653 -0.9141
33273SOL     OW 3606   0.821   1.660   7.097  0.3064  0.0965 -0.2019
33273SOL    HW1 3607   0.820   1.613   7.180  0.6069 -0.7075 -0.6367
33273SOL    HW2 3608   0.738   1.707   7.095 -0.8440 -1.8221 -0.5067
33274SOL     OW 3609   0.406   1.523   8.623  0.0581  0.3189 -0.0153
33274SOL    HW1 3610   0.418   1.532   8.718  1.7968 -1.1469 -0.0341
33274SOL    HW2 3611   0.348   1.448   8.613  0.8661 -0.3192 -0.0872
33275SOL     OW 3612   7.944  10.357   8.821 -0.1833  0.2919  0.1908
33275SOL    HW1 3613   7.924  10.394   8.907 -0.8480 -0.0954  0.2048
33275SOL    HW2 3614   7.942  10.262   8.834  0.1420  0.2336 -0.1590
33276SOL     OW 3615   7.725   3.231   7.347  0.3049  0.5015 -0.4035
33276SOL    HW1 3616   7.682   3.262   7.427  0.3580 -1.3582  0.3997
33276SOL    HW2 3617   7.701   3.139   7.341  1.5804  0.2173 -1.6874
33277SOL     OW 3618   1.477   8.776  10.194 -0.3657  0.2992  0.7151
33277SOL    HW1 3619   1.426   8.740  10.266  0.5314 -0.0769  1.1789
33277SOL    HW2 3620   1.555   8.813  10.236  0.5788 -0.6648 -0.1231
33278SOL     OW 3621   6.054   5.648   9.502  0.1500  0.0238 -0.3946
33278SOL    HW1 3622   6.061   5.729   9.552 -0.1303 -0.0437 -0.2408
33278SOL    HW2 3623   6.064   5.578   9.567  0.4916 -0.0660 -0.5406
33279SOL     OW 3624   7.560   1.236   6.276 -0.1907 -0.1211 -0.2845
33279SOL    HW1 3625   7.540   1.330   6.274 -1.3083 -0.3172  0.8985
33279SOL    HW2 3626   7.654   1.232   6.260 -0.3877  1.0717 -2.1383
33280SOL     OW 3627   5.952   1.542   1.503  0.5243 -0.3893 -0.4130
33280SOL    HW1 3628   5.895   1.482   1.551 -0.8079  1.1790  0.0730
33280SOL    HW2 3629   6.015   1.572   1.568  0.8080 -0.7862 -0.5018
33281SOL     OW 3630   9.355   9.075   1.328  0.6160  0.0213 -0.2603
33281SOL    HW1 3631   9.399   9.119   1.401 -1.1427 -0.4135  1.1391
33281SOL    HW2 3632   9.373   9.130   1.252  0.4758  1.8815  0.9865
33282SOL     OW 3633   0.416   1.407   0.829  0.5486  0.0519  0.0054
33282SOL    HW1 3634   0.475   1.370   0.763  1.2760  1.1338  0.0320
33282SOL    HW2 3635   0.328   1.386   0.796  0.9132  0.0403 -0.9938
33283SOL     OW 3636   9.198   4.163   7.588  0.0245  0.1266 -0.0375
33283SOL    HW1 3637   9.290   4.187   7.592 -0.1631  1.4604 -2.1674
33283SOL    HW2 3638   9.162   4.193   7.671  1.2051  1.0194  0.1784
33284SOL     OW 3639   1.547   8.915   3.812 -0.0633 -0.1256 -0.7427
33284SOL    HW1 3640   1.494   8.965   3.749 -2.7294 -1.0113  0.6330
33284SOL    HW2 3641   1.559   8.975   3.886 -0.0229 -0.2785 -0.6269
33285SOL     OW 3642   8.588   6.770   5.246  0.7940  0.0874 -0.1956
33285SOL    HW1 3643   8.543   6.693   5.210 -0.7278  0.8927 -0.0833
33285SOL    HW2 3644   8.648   6.734   5.312  1.0903 -1.1015 -1.0841
33286SOL     OW 3645   9.484   8.559   0.590  0.0020 -0.1332 -0.4133
33286SOL    HW1 3646   9.533   8.477   0.579 -0.0249 -0.4466  1.4533
33286SOL    HW2 3647   9.435   8.547   0.672  2.2636  2.7860  1.6101
33287SOL     OW 3648   7.657   1.808   9.510  0.3229  0.1227 -0.1275
33287SOL    HW1 3649   7.601   1.827   9.435 -0.0506  2.5883  0.6836
33287SOL    HW2 3650   7.746   1.828   9.480  0.2298  0.6024 -0.0970
33288SOL     OW 3651   7.020   4.442   2.283  0.2351  0.1254 -0.4738
33288SOL    HW1 3652   7.044   4.414   2.371 -1.6936 -1.7758 -0.4806
33288SOL    HW2 3653   7.065   4.526   2.272 -1.1079  1.5193  3.1182
33289SOL     OW 3654   1.424   5.287   3.442 -0.5948 -0.2229 -0.1641
33289SOL    HW1 3655   1.369   5.300   3.365 -0.6567  0.8489  0.0398
33289SOL    HW2 3656   1.514   5.296   3.408 -0.6431  2.2724  0.1669
33290SOL     OW 3657   8.928   4.691   6.325 -0.3888 -0.2845 -0.5697
33290SOL    HW1 3658   9.001   4.749   6.346 -1.7584  1.2673  0.0851
33290SOL    HW2 3659   8.905   4.650   6.409 -0.9259  0.0238 -0.5644
33291SOL     OW 3660   1.377   9.269   0.632  0.1544 -0.3547 -0.2199
33291SOL    HW1 3661   1.284   9.266   0.656  0.1287 -3.1248 -0.3067
33291SOL    HW2 3662   1.419   9.316   0.705 -1.2180  0.3844  0.1253
33292SOL     OW 3663   3.680   5.847   7.584  0.8872  0.4724  0.3874
33292SOL    HW1 3664   3.673   5.906   7.510 -0.5567  1.9735  1.6452
33292SOL    HW2 3665   3.770   5.858   7.616  0.4156  2.6823  1.0908
33293SOL     OW 3666   0.278   1.856   6.298 -0.3237  0.0391 -0.5716
33293SOL    HW1 3667   0.209   1.919   6.316 -0.8142  0.1718 -2.6941
33293SOL    HW2 3668   0.339   1.902   6.241 -0.3470 -1.1915 -1.6287
33294SOL     OW 3669   4.316   0.672   5.377 -0.0703  0.1238  0.2472
33294SOL    HW1 3670   4.346   0.710   5.295  0.0696  0.8418  0.6278
33294SOL    HW2 3671   4.386   0.613   5.404 -0.1893 -0.2392 -0.2289
33295SOL     OW 3672   7.102  10.155   0.724 -0.1683  0.5270  0.1578
33295SOL    HW1 3673   7.126  10.248   0.722  1.8463  0.0496  0.1447
33295SOL    HW2 3674   7.180  10.110   0.692 -0.3441 -1.3163  2.1500
33296SOL     OW 3675   9.605   0.314   8.853 -0.5018 -0.7079  0.2554
33296SOL    HW1 3676   9.633   0.264   8.930 -0.0810  0.2510  0.7366
33296SOL    HW2 3677   9.684   0.321   8.799 -0.9701 -2.0329 -0.6617
33297SOL     OW 3678   1.613   3.925   5.447 -0.0551  0.1308  0.0293
33297SOL    HW1 3679   1.638   3.834   5.436  0.4486  0.4068 -1.3239
33297SOL    HW2 3680   1.608   3.938   5.542 -0.4959 -1.3869  0.2313
33298SOL     OW 3681   1.424   6.163   6.760  0.7631 -0.0488 -0.6313
33298SOL    HW1 3682   1.422   6.115   6.677  1.9052 -2.0657  0.4019
33298SOL    HW2 3683   1.384   6.102   6.823  2.6234  0.1398  0.8180
33299SOL     OW 3684   0.637   8.727   1.881 -0.3089  0.0922  0.1669
33299SOL    HW1 3685   0.552   8.771   1.884 -1.0181 -1.1976 -0.3417
33299SOL    HW2 3686   0.634   8.674   1.802  0.6230 -0.6802  0.6316
33300SOL     OW 3687   2.557   3.140   5.109  0.0062 -0.3294 -0.1699
33300SOL    HW1 3688   2.492   3.211   5.111 -0.0542 -0.3880 -0.0632
33300SOL    HW2 3689   2.641   3.185   5.110  0.0319 -0.1003 -2.9913
33301SOL     OW 3690   3.074   3.685  10.080 -0.0254 -0.1255  0.5381
33301SOL    HW1 3691   3.029   3.619  10.028  0.2270 -0.5854  0.8976
33301SOL    HW2 3692   3.051   3.665  10.171  1.9304 -1.2063  0.8498
33302SOL     OW 3693   4.904   2.223   6.056  0.3498 -0.3230  0.7524
33302SOL    HW1 3694   4.927   2.254   6.143 -0.9912  2.7437  0.1234
33302SOL    HW2 3695   4.976   2.252   6.000  1.0940 -2.0837  0.7006
33303SOL     OW 3696   5.393   9.347   3.412 -0.6617 -0.3567 -0.2728
33303SOL    HW1 3697   5.399   9.358   3.507 -1.8428 -3.4304  0.2595
33303SOL    HW2 3698   5.465   9.288   3.389 -1.3681 -0.9755 -0.9850
33304SOL     OW 3699   5.902   0.730   2.143  0.6010  0.0124  0.5582
33304SOL    HW1 3700   5.949   0.657   2.183 -1.3630 -1.0171  1.1216
33304SOL    HW2 3701   5.923   0.805   2.198 -0.2034 -0.9037  2.1984
33305SOL     OW 3702   6.176   5.684   9.986 -0.5437  0.4365  0.3077
33305SOL    HW1 3703   6.164   5.649  10.074 -1.2256 -1.2413 -0.3915
33305SOL    HW2 3704   6.089   5.715   9.961 -0.5622  0.1017 -0.0706
33306SOL     OW 3705   2.346   3.923   9.770 -0.7650  0.2700 -0.4733
33306SOL    HW1 3706   2.372   4.010   9.738  1.7752 -0.1833  0.1514
33306SOL    HW2 3707   2.281   3.893   9.706  1.6990  0.7469 -3.4309
33307SOL     OW 3708   6.396   5.402   5.135  0.1542 -1.1090  0.1219
33307SOL    HW1 3709   6.365   5.410   5.226  0.3951 -0.0749  0.1293
33307SOL    HW2 3710   6.480   5.356   5.143 -0.4468 -2.2277  0.2791
33308SOL     OW 3711   5.006   9.031  10.177  0.5290 -0.0935  0.0978
33308SOL    HW1 3712   5.100   9.014  10.176  0.3250 -1.4795  1.3628
33308SOL    HW2 3713   4.980   9.028  10.085  1.6461 -0.1063 -0.2319
33309SOL     OW 3714   6.698   8.227   3.080 -0.0822 -0.1734  0.1477
33309SOL    HW1 3715   6.779   8.269   3.052  0.7235 -0.7159  1.5796
33309SOL    HW2 3716   6.629   8.288   3.052  0.6894 -0.2410 -2.1026
33310SOL     OW 3717   3.195   2.313   8.022  0.3243  0.4452  0.2873
33310SOL    HW1 3718   3.248   2.369   7.966 -0.6122  1.3110  0.2477
33310SOL    HW2 3719   3.138   2.266   7.962  0.7332 -0.1744  0.3661
33311SOL     OW 3720  10.026   3.038   3.843  0.2820 -0.1587  0.6144
33311SOL    HW1 3721  10.017   2.946   3.818  1.4280 -0.4323  1.1669
33311SOL    HW2 3722   9.973   3.046   3.923 -0.7208 -0.0548 -0.0383
33312SOL     OW 3723   2.453   1.709   4.303 -0.7133  0.2747 -0.1875
33312SOL    HW1 3724   2.389   1.712   4.232  1.0871  0.6704 -1.8959
33312SOL    HW2 3725   2.534   1.742   4.263  0.5112 -0.0121  1.9206
33313SOL     OW 3726   5.728   6.920   2.456 -0.1652 -0.1053  0.0561
33313SOL    HW1 3727   5.703   6.969   2.535  1.0143  2.9239 -1.2628
33313SOL    HW2 3728   5.813   6.881   2.478 -0.5155 -0.4780  0.7542
33314SOL     OW 3729   4.888   0.404   1.256  0.2314 -0.5295 -0.2626
33314SOL    HW1 3730   4.817   0.349   1.289  0.1932 -1.3842 -1.6844
33314SOL    HW2 3731   4.961   0.344   1.245  0.7847  0.0927 -0.0420
33315SOL     OW 3732   1.635   2.161   1.899 -0.2418 -0.1633 -0.2045
33315SOL    HW1 3733   1.592   2.136   1.818  0.2024 -2.3277  0.1667
33315SOL    HW2 3734   1.565   2.201   1.952 -0.9323 -0.3351 -0.9707
33316SOL     OW 3735   8.778   5.784   1.112  0.2586 -0.5168  0.5055
33316SOL    HW1 3736   8.787   5.874   1.081  0.1663  0.2926  2.7028
33316SOL    HW2 3737   8.697   5.753   1.073  0.4402  0.2373 -0.5100
33317SOL     OW 3738   3.763   8.890   0.007  0.1096  0.1579 -0.5197
33317SOL    HW1 3739   3.692   8.950   0.030  0.3969  0.3802 -0.2081
33317SOL    HW2 3740   3.803   8.866   0.091  1.6275  1.5225 -0.8093
33318SOL     OW 3741   2.622   6.952   4.243 -0.3839  0.5227  0.3394
33318SOL    HW1 3742   2.620   6.862   4.210 -2.4582  0.2420  1.1079
33318SOL    HW2 3743   2.616   7.006   4.165  2.4522  0.1184 -0.2830
33319SOL     OW 3744   3.546   8.763  10.090  0.1971  0.2171 -0.0804
33319SOL    HW1 3745   3.608   8.834  10.076  0.0124 -0.0679 -2.9220
33319SOL    HW2 3746   3.498   8.756  10.007 -2.4961 -0.6682  1.4278
33320SOL     OW 3747   2.947   2.070   5.249 -0.1660  0.8268 -0.2538
33320SOL    HW1 3748   2.918   2.029   5.167 -0.6155  1.4216 -0.3924
33320SOL    HW2 3749   2.994   2.149   5.221  1.8138 -0.1962 -0.0607
33321SOL     OW 3750   6.863   5.955  10.211 -0.1057  0.4381  0.3304
33321SOL    HW1 3751   6.866   5.945  10.116 -2.3850  0.1838  0.2404
33321SOL    HW2 3752   6.872   6.050  10.225  1.9298  0.3513  0.0279
33322SOL     OW 3753   7.751   8.471   1.660 -0.4855 -0.5452 -0.0782
33322SOL    HW1 3754   7.823   8.469   1.596 -0.7903  1.0237 -0.4883
33322SOL    HW2 3755   7.706   8.553   1.644 -1.0073 -0.4386  1.6982
33323SOL     OW 3756   3.180   3.967   0.392  0.6287 -0.2545 -0.6881
33323SOL    HW1 3757   3.113   4.034   0.380  0.6495 -0.3254 -1.1910
33323SOL    HW2 3758   3.154   3.895   0.335  0.3912 -0.8481  0.1470
33324SOL     OW 3759   2.939   2.147   2.014  0.0048  0.0011  0.2377
33324SOL    HW1 3760   2.918   2.078   1.951 -2.5178  0.7484  0.1565
33324SOL    HW2 3761   3.004   2.108   2.072  4.6289  0.0363 -4.1857
33325SOL     OW 3762   5.084   1.344   5.983  0.1733 -0.2770 -0.1321
33325SOL    HW1 3763   5.085   1.290   6.062 -1.0304 -0.3187 -0.1261
33325SOL    HW2 3764   5.098   1.281   5.912 -0.4332 -0.4942 -0.0661
33326SOL     OW 3765   3.090   4.439   4.183  0.7111  0.2705 -0.7073
33326SOL    HW1 3766   3.016   4.389   4.217 -0.0781  0.7190 -1.7182
33326SOL    HW2 3767   3.162   4.377   4.179 -0.0663 -0.6134 -1.2798
33327SOL     OW 3768  10.237   2.517   6.060  0.4760 -0.9496  0.3605
33327SOL    HW1 3769  10.228   2.557   6.147 -1.2098  0.3859 -0.3594
33327SOL    HW2 3770  10.309   2.564   6.019  2.1273 -2.4373  1.4241
33328SOL     OW 3771   7.988   6.414   1.191 -0.0938 -0.4789 -0.5197
33328SOL    HW1 3772   8.008   6.331   1.234  0.0695 -0.4387 -0.5188
33328SOL    HW2 3773   8.073   6.453   1.171 -0.1536  0.3769  0.7998
33329SOL     OW 3774   5.064   5.471   6.989 -0.1205 -0.1216 -0.1469
33329SOL    HW1 3775   5.051   5.399   6.926 -3.1776 -0.6173  0.8958
33329SOL    HW2 3776   5.139   5.443   7.042  0.9341 -0.8623 -1.9271
33330SOL     OW 3777   3.997   8.049   2.838 -0.3109 -0.7273  0.3470
33330SOL    HW1 3778   4.035   8.111   2.900  0.6779 -2.1118  1.1731
33330SOL    HW2 3779   4.069   7.992   2.813 -1.4175 -2.2115  0.4455
33331SOL     OW 3780   2.643   0.993   6.640  0.8215 -0.2810  0.2864
33331SOL    HW1 3781   2.732   0.981   6.607  1.6981  0.6799  2.1653
33331SOL    HW2 3782   2.623   1.085   6.625  0.7462 -0.1323  1.2439
33332SOL     OW 3783   1.254   6.176   9.058 -0.1817 -0.1019 -0.1312
33332SOL    HW1 3784   1.287   6.192   8.969 -0.4218  0.5429 -0.1121
33332SOL    HW2 3785   1.228   6.084   9.058 -1.5547  0.2388 -1.1995
33333SOL     OW 3786   9.342   5.508   1.674 -0.0599  0.5144 -0.5403
33333SOL    HW1 3787   9.308   5.419   1.679  0.2454  0.3810 -0.7973
33333SOL    HW2 3788   9.268   5.561   1.645 -0.2107  0.3282 -0.4971
33334SOL     OW 3789   1.642   6.227   5.307  0.4408 -0.5425  0.7205
33334SOL    HW1 3790   1.563   6.184   5.341 -0.1877 -1.2048 -1.4184
33334SOL    HW2 3791   1.679   6.164   5.246  1.8471  0.3554  0.6001
33335SOL     OW 3792   6.980   6.715   9.899 -0.1881 -0.1625  0.3507
33335SOL    HW1 3793   7.024   6.650   9.844  1.8814  0.8236  0.7390
33335SOL    HW2 3794   6.981   6.796   9.848 -1.4086 -0.0492  0.4711
33336SOL     OW 3795   6.695   9.781   1.075  0.6221  0.4382  0.3314
33336SOL    HW1 3796   6.717   9.690   1.056  0.9856  0.7001 -0.6092
33336SOL    HW2 3797   6.700   9.824   0.989  1.3408  1.5204  0.8969
33337SOL     OW 3798   8.757   9.248   7.680 -0.0030  0.2300 -0.1236
33337SOL    HW1 3799   8.745   9.289   7.766 -1.2310  1.1601 -0.7072
33337SOL    HW2 3800   8.690   9.288   7.625  1.0959  0.0242 -1.6649
33338SOL     OW 3801   4.932   1.492   1.212 -0.2252 -0.0703  0.0671
33338SOL    HW1 3802   4.951   1.549   1.137 -3.4973  1.5638  0.2772
33338SOL    HW2 3803   4.941   1.549   1.288 -1.8554 -0.2367  0.4209
33339SOL     OW 3804   9.863   5.275   8.967 -0.4993  0.6247 -0.1208
33339SOL    HW1 3805   9.876   5.262   8.873 -0.4138 -1.6423  0.1483
33339SOL    HW2 3806   9.773   5.308   8.974 -0.1804  1.7896 -1.0184
33340SOL     OW 3807   9.998   8.131   6.397  0.3211  0.1759  0.4073
33340SOL    HW1 3808   9.933   8.097   6.336  1.2773 -1.1254  0.0673
33340SOL    HW2 3809   9.975   8.091   6.481 -1.3357  2.4050  1.1018
33341SOL     OW 3810   8.901   5.651   6.848  0.1698  0.2930 -0.4857
33341SOL    HW1 3811   8.865   5.599   6.777 -0.6816 -0.4838  0.4711
33341SOL    HW2 3812   8.867   5.609   6.928 -0.7349  2.3953  0.3293
33342SOL     OW 3813   1.686   5.024   8.329  0.3002 -0.3667  0.0616
33342SOL    HW1 3814   1.668   5.073   8.409  1.6621 -0.6506  0.5666
33342SOL    HW2 3815   1.600   5.014   8.287 -0.3325  0.3844  1.1282
33343SOL     OW 3816   5.004   2.022   4.793  0.3588 -0.0526 -0.1817
33343SOL    HW1 3817   4.947   1.956   4.831  1.4948 -1.1479 -0.3289
33343SOL    HW2 3818   5.003   2.004   4.699  0.1640  0.5573 -0.3039
33344SOL     OW 3819   9.969   2.406   9.998 -0.4491  0.2566  0.3114
33344SOL    HW1 3820   9.964   2.494   9.959  2.3865  1.7113  2.7710
33344SOL    HW2 3821  10.002   2.351   9.927 -0.1435  1.6829 -0.7134
33345SOL     OW 3822   6.263   0.929   9.819 -0.3104 -0.0189 -0.2404
33345SOL    HW1 3823   6.307   0.862   9.766 -0.2343 -1.6179  1.7198
33345SOL    HW2 3824   6.307   1.011   9.796  1.8269 -1.1389 -0.4102
33346SOL     OW 3825   3.725   2.361   8.306 -0.0599 -0.3547  0.4154
33346SOL    HW1 3826   3.739   2.336   8.214  0.4603 -0.0054  0.3959
33346SOL    HW2 3827   3.663   2.434   8.302  1.2307  0.7648  0.2140
33347SOL     OW 3828   1.081   3.344   9.586  0.1505 -0.3701  0.4079
33347SOL    HW1 3829   1.152   3.397   9.622 -1.4644  1.7574  0.6636
33347SOL    HW2 3830   1.006   3.403   9.584 -2.2020 -3.0533  2.0544
33348SOL     OW 3831   3.363   8.870   0.447  0.0012  0.0889  0.1324
33348SOL    HW1 3832   3.322   8.824   0.374 -0.9067 -2.5060  2.1245
33348SOL    HW2 3833   3.293   8.924   0.483 -0.0319  0.0541  0.1209
33349SOL     OW 3834   4.259   1.642  10.212 -0.1521 -0.9783  0.2526
33349SOL    HW1 3835   4.253   1.713  10.277  0.4884 -1.8099  1.2512
33349SOL    HW2 3836   4.346   1.653  10.173 -1.4081  1.0100 -2.3085
33350SOL     OW 3837   6.421   4.663   8.979 -0.2706 -0.5526 -0.3950
33350SOL    HW1 3838   6.465   4.745   8.959  0.5101 -0.8190  0.1527
33350SOL    HW2 3839   6.355   4.685   9.045  1.6020 -0.7213  1.6561
33351SOL     OW 3840   9.188   7.025   2.592  0.1636  0.0711  1.0374
33351SOL    HW1 3841   9.225   6.968   2.524 -4.3195  0.5043 -2.1466
33351SOL    HW2 3842   9.133   6.966   2.645 -0.6346  0.6354  0.8434
33352SOL     OW 3843   6.674   7.630   1.238 -0.0882 -0.0921  0.0815
33352SOL    HW1 3844   6.759   7.673   1.228 -0.1133 -0.6003 -3.7301
33352SOL    HW2 3845   6.617   7.673   1.174 -2.0680 -1.3228  0.9074
33353SOL     OW 3846  10.285   5.027   9.084  0.0771  0.2993 -0.7744
33353SOL    HW1 3847  10.238   5.035   9.001 -2.5289 -0.1255  0.5597
33353SOL    HW2 3848  10.250   4.947   9.124 -0.1782  1.4868  1.5550
33354SOL     OW 3849   3.184   7.039   6.427  0.3640  0.1165  0.1868
33354SOL    HW1 3850   3.180   7.135   6.429  1.3532  0.2240 -1.5127
33354SOL    HW2 3851   3.238   7.017   6.503  1.4522  1.0232 -0.2867
33355SOL     OW 3852   2.178   1.152   2.823  0.1545  0.3270  0.5456
33355SOL    HW1 3853   2.187   1.087   2.753 -0.7500  0.0692  0.6557
33355SOL    HW2 3854   2.085   1.153   2.843 -0.1100  2.6440 -0.3954
33356SOL     OW 3855   1.041   9.985   9.362  0.0047 -0.0075  0.0353
33356SOL    HW1 3856   1.072   9.895   9.374 -0.7095 -0.2623  0.0133
33356SOL    HW2 3857   0.963   9.976   9.309 -0.0770  0.6317  0.0453
33357SOL     OW 3858  10.125   7.273   9.998  0.3365 -0.4212 -0.0068
33357SOL    HW1 3859  10.043   7.231   9.971  1.1757 -1.6765 -0.6564
33357SOL    HW2 3860  10.130   7.353   9.945 -1.2891  0.5827  1.2616
33358SOL     OW 3861   9.752   1.316   2.570 -0.4467 -0.6926 -0.1086
33358SOL    HW1 3862   9.779   1.235   2.526 -1.1799 -0.4018 -1.1406
33358SOL    HW2 3863   9.744   1.293   2.662 -0.8578 -1.8608 -0.4246
33359SOL     OW 3864   7.113  10.327   8.730  0.0741  0.7731  0.2222
33359SOL    HW1 3865   7.110  10.407   8.679 -0.2224  0.3620 -0.4249
33359SOL    HW2 3866   7.188  10.279   8.694 -0.0269  0.5625  0.2910
33360SOL     OW 3867   2.255   4.383   6.063 -0.2653  0.2165  0.2231
33360SOL    HW1 3868   2.267   4.377   5.968 -1.7488  0.8045 -0.0357
33360SOL    HW2 3869   2.341   4.366   6.099  0.2872 -0.2297 -1.2259
33361SOL     OW 3870   2.330   0.037   2.943 -0.7108 -0.3879  0.4102
33361SOL    HW1 3871   2.353  -0.052   2.967 -1.0112 -0.1458  1.6868
33361SOL    HW2 3872   2.409   0.073   2.904 -0.8019 -1.4226 -0.7715
33362SOL     OW 3873   9.921   1.128  10.106  0.3224 -0.2251 -0.0325
33362SOL    HW1 3874   9.888   1.045  10.139 -2.2406  0.4931 -0.5285
33362SOL    HW2 3875   9.879   1.138  10.020  1.9898  0.7713 -0.7807
33363SOL     OW 3876   0.769   2.265   6.371 -0.5876 -0.0970 -0.4159
33363SOL    HW1 3877   0.809   2.277   6.457 -0.6576  2.2546 -0.6436
33363SOL    HW2 3878   0.840   2.231   6.316 -0.4653 -1.3435  0.4743
33364SOL     OW 3879   0.524   4.421   1.187 -0.3629 -0.1379 -0.0889
33364SOL    HW1 3880   0.528   4.456   1.276  1.5288  2.5926 -1.1093
33364SOL    HW2 3881   0.563   4.334   1.193  1.6741  0.7914  1.4817
33365SOL     OW 3882   3.239   3.894   6.757 -0.2820 -0.2813  0.4416
33365SOL    HW1 3883   3.218   3.819   6.814 -1.4125 -0.6754 -0.4442
33365SOL    HW2 3884   3.153   3.928   6.731  0.2170  1.5906  1.1350
33366SOL     OW 3885   8.704   5.289   6.270  0.2932  0.9979  0.1236
33366SOL    HW1 3886   8.748   5.208   6.296  2.9792  2.4772  0.5266
33366SOL    HW2 3887   8.763   5.329   6.206 -0.5543  3.0441  0.5495
33367SOL     OW 3888   2.424   3.006   6.967  0.4357  0.4995  0.0943
33367SOL    HW1 3889   2.348   3.061   6.987  0.6682  0.9078 -0.1491
33367SOL    HW2 3890   2.477   3.010   7.047  0.3832  0.5073  0.1293
33368SOL     OW 3891   5.733   1.901   2.158  0.2451 -0.3345  0.2641
33368SOL    HW1 3892   5.638   1.910   2.150  0.4208  1.7611  0.0005
33368SOL    HW2 3893   5.745   1.827   2.218 -1.5052 -1.2817 -0.4653
33369SOL     OW 3894   6.150   3.645   7.611 -0.0937 -0.2729 -0.1760
33369SOL    HW1 3895   6.176   3.559   7.577  0.0820 -0.4157  0.2995
33369SOL    HW2 3896   6.092   3.681   7.545  0.6285 -0.3298 -0.8544
33370SOL     OW 3897   2.382   1.578   0.402 -0.2749  0.1746  0.1141
33370SOL    HW1 3898   2.419   1.543   0.483  2.6737  2.2598 -0.1614
33370SOL    HW2 3899   2.296   1.612   0.427  0.3260  0.2545  2.2333
33371SOL     OW 3900   0.546   5.426   6.591  0.2586 -0.2261  0.1261
33371SOL    HW1 3901   0.454   5.453   6.582  0.3149  0.1631  0.6401
33371SOL    HW2 3902   0.586   5.496   6.643  0.4879 -1.1405  1.2150
33372SOL     OW 3903   1.133   0.465   9.108 -0.7044  0.0279  0.2021
33372SOL    HW1 3904   1.042   0.437   9.112 -0.8056 -0.0932 -1.9906
33372SOL    HW2 3905   1.181   0.397   9.155 -1.7536  0.3525  1.8150
33373SOL     OW 3906   7.548  10.039   3.072 -0.6978 -0.2166 -0.3744
33373SOL    HW1 3907   7.566  10.117   3.124  1.6205 -0.3144 -0.9293
33373SOL    HW2 3908   7.453  10.038   3.063 -0.8389  2.2807  0.0541
33374SOL     OW 3909   5.236   9.862   5.264 -0.0642 -0.0129 -0.0201
33374SOL    HW1 3910   5.270   9.773   5.248 -0.4395 -0.0670 -0.5557
33374SOL    HW2 3911   5.167   9.851   5.328 -0.7614 -0.2446 -0.7978
33375SOL     OW 3912   2.638   8.661   8.592 -0.6155  0.0861  0.7197
33375SOL    HW1 3913   2.601   8.588   8.542  0.5564 -0.1134  0.1072
33375SOL    HW2 3914   2.682   8.619   8.665 -1.2995  0.3049  1.2728
33376SOL     OW 3915   2.104   5.341   6.606 -0.1384  0.2480  0.0235
33376SOL    HW1 3916   2.115   5.406   6.536 -0.1917  1.3602  1.0085
33376SOL    HW2 3917   2.190   5.298   6.612  0.5938  1.7416  0.7891
33377SOL     OW 3918   1.132   1.676   5.370  0.0408 -0.3401 -0.2388
33377SOL    HW1 3919   1.078   1.639   5.439 -0.0895  0.8935  0.3466
33377SOL    HW2 3920   1.214   1.701   5.413 -1.0599  3.0210  0.1832
33378SOL     OW 3921   6.913   9.364   6.328 -0.0518 -0.0533  0.2267
33378SOL    HW1 3922   6.914   9.415   6.409  0.7235  1.0323 -0.4528
33378SOL    HW2 3923   6.849   9.294   6.346 -0.9961  1.0158  1.2503
33379SOL     OW 3924   7.782   7.476   9.955 -0.2976  0.5752  0.0925
33379SOL    HW1 3925   7.755   7.534  10.026  2.5812  0.8452  1.1131
33379SOL    HW2 3926   7.800   7.393   9.998  1.8213  0.8383 -0.1676
33380SOL     OW 3927   0.404   8.642   0.747 -0.3571 -0.6492  0.2810
33380SOL    HW1 3928   0.451   8.726   0.749  0.6151 -1.1899  0.9766
33380SOL    HW2 3929   0.312   8.666   0.755 -0.2756  0.4630 -1.4756
33381SOL     OW 3930   4.034   9.380   2.183  0.2264 -0.0202  0.6993
33381SOL    HW1 3931   4.054   9.302   2.235 -1.2523  1.1597  3.2406
33381SOL    HW2 3932   3.956   9.417   2.224 -1.1720  0.9819 -2.5313
33382SOL     OW 3933   2.229   4.698   8.144  0.4378 -0.1376  0.8896
33382SOL    HW1 3934   2.234   4.613   8.099  0.8593  0.3676 -0.0506
33382SOL    HW2 3935   2.258   4.761   8.078  0.3106  0.7187  1.6420
33383SOL     OW 3936   1.271   4.481   6.538 -0.0238 -0.4757  0.6116
33383SOL    HW1 3937   1.249   4.571   6.515  0.5804 -0.5484 -0.2920
33383SOL    HW2 3938   1.186   4.437   6.546 -0.2973 -0.1586 -0.3627
33384SOL     OW 3939   5.638   2.787   0.452  0.0999  0.1050  0.0239
33384SOL    HW1 3940   5.573   2.785   0.381 -0.5801  0.8845  0.5967
33384SOL    HW2 3941   5.646   2.880   0.473  1.0537 -0.0307  0.2911
33385SOL     OW 3942   7.913   1.996   2.939  0.0702 -0.0047  0.0649
33385SOL    HW1 3943   7.878   2.062   2.998  1.4414  0.5455  0.2991
33385SOL    HW2 3944   7.850   1.924   2.944 -1.0387  0.9562  0.4067
33386SOL     OW 3945   6.232   5.842   9.176 -0.7165 -0.4593  0.8620
33386SOL    HW1 3946   6.195   5.830   9.088  1.1433 -0.7801  0.0844
33386SOL    HW2 3947   6.240   5.936   9.186 -0.4734 -0.4366  0.4754
33387SOL     OW 3948   9.657   7.277   6.987 -0.3605  0.3895 -0.2593
33387SOL    HW1 3949   9.753   7.282   6.986 -0.4096  1.4421 -0.3747
33387SOL    HW2 3950   9.631   7.326   7.064 -0.8396  0.7441 -0.6439
33388SOL     OW 3951   8.398   2.310   2.611 -0.3049  0.3062  0.2571
33388SOL    HW1 3952   8.479   2.264   2.633 -0.3393 -0.4995 -1.2349
33388SOL    HW2 3953   8.337   2.286   2.682  0.3875 -0.0308  0.7483
33389SOL     OW 3954   3.476   6.357   6.716 -0.4734 -0.0641 -1.0066
33389SOL    HW1 3955   3.560   6.314   6.699  0.1022 -0.0454  1.4630
33389SOL    HW2 3956   3.444   6.380   6.629  2.1602  0.1125 -2.0481
33390SOL     OW 3957   8.775   7.537   1.898  0.4922  0.2900  0.3606
33390SOL    HW1 3958   8.799   7.588   1.975  1.8991 -0.4038  0.4203
33390SOL    HW2 3959   8.736   7.600   1.838  0.9595  1.1676  0.9613
33391SOL     OW 3960   3.375   1.083   0.446  0.2895 -0.0165 -0.2526
33391SOL    HW1 3961   3.402   1.095   0.355 -1.1153  0.7777 -0.6037
33391SOL    HW2 3962   3.321   1.160   0.465 -2.3268 -1.8043  0.1199
33392SOL     OW 3963   9.705   7.782   3.622  0.4569  0.0559 -0.2380
33392SOL    HW1 3964   9.792   7.744   3.609 -0.0394 -0.9445 -0.7762
33392SOL    HW2 3965   9.715   7.873   3.595  1.0698 -0.3294 -1.3840
33393SOL     OW 3966   4.360   4.317   1.959  0.1531 -0.1869  0.7441
33393SOL    HW1 3967   4.392   4.392   1.909  0.5819 -0.9378 -0.1465
33393SOL    HW2 3968   4.330   4.255   1.892 -0.9846 -0.4617  1.4977
33394SOL     OW 3969   1.228   1.777   4.159 -0.6151  0.4547 -0.5624
33394SOL    HW1 3970   1.234   1.872   4.165  2.2411  0.4640 -1.7079
33394SOL    HW2 3971   1.264   1.746   4.242  2.3809  0.4770 -1.7426
33395SOL     OW 3972   3.726   1.827   6.090  0.1100 -0.1359 -0.0464
33395SOL    HW1 3973   3.754   1.843   6.180 -0.2921 -0.5655  0.1639
33395SOL    HW2 3974   3.631   1.834   6.093  0.0940 -0.1742 -0.4322
33396SOL     OW 3975   4.181   4.119   8.891 -0.1892 -0.0998 -0.0984
33396SOL    HW1 3976   4.206   4.144   8.981 -0.2529 -1.3651  0.2850
33396SOL    HW2 3977   4.237   4.044   8.871 -0.7478 -0.3255 -0.8204
33397SOL     OW 3978   9.455   8.585   3.845 -0.2505  0.0903 -0.1489
33397SOL    HW1 3979   9.383   8.642   3.872 -0.1711  0.3551 -0.4843
33397SOL    HW2 3980   9.534   8.627   3.880  0.0827  1.5298 -2.3719
33398SOL     OW 3981   9.671   6.951   3.322  0.2525  0.0111 -0.2229
33398SOL    HW1 3982   9.617   7.029   3.315  2.0402  1.1873 -2.1864
33398SOL    HW2 3983   9.714   6.959   3.407 -2.3027 -0.8011  1.2310
33399SOL     OW 3984   1.171   7.848   8.746 -0.1562  0.1380  0.6828
33399SOL    HW1 3985   1.143   7.793   8.819 -0.8394  0.4975  0.7026
33399SOL    HW2 3986   1.090   7.867   8.698 -0.0867  1.8353  1.1738
33400SOL     OW 3987   0.313   8.025   1.114 -0.1015 -0.3713 -0.3257
33400SOL    HW1 3988   0.328   8.116   1.142 -0.8505 -0.2592 -0.2653
33400SOL    HW2 3989   0.291   8.032   1.021 -0.2954 -0.4720 -0.2883
33401SOL     OW 3990   9.320   3.036   4.485  0.1840  0.9987 -0.5421
33401SOL    HW1 3991   9.237   3.049   4.438  1.8572  0.9881 -3.7167
33401SOL    HW2 3992   9.320   2.943   4.508 -1.7283  1.4657  1.9243
33402SOL     OW 3993   2.547   6.336   5.847 -0.0976  0.2047  0.1744
33402SOL    HW1 3994   2.629   6.300   5.882 -0.6593 -2.1268 -0.7412
33402SOL    HW2 3995   2.500   6.368   5.925  0.9728  0.1008  0.8884
33403SOL     OW 3996   4.367   3.570   7.157 -0.3201  0.0349  0.0961
33403SOL    HW1 3997   4.396   3.649   7.110  0.9508 -0.8043 -0.5898
33403SOL    HW2 3998   4.379   3.499   7.094 -4.8507 -0.3885 -0.6289
33404SOL     OW 3999   3.034   3.283   3.505  0.3231 -0.3721  0.0766
33404SOL    HW1 4000   3.113   3.303   3.454  0.4589  0.3422  0.5666
33404SOL    HW2 4001   2.975   3.356   3.488  1.6551  1.7787  3.6315
33405SOL     OW 4002   0.074   1.673   9.381  0.4194 -0.4821 -0.0342
33405SOL    HW1 4003   0.015   1.604   9.412 -0.5318 -0.3370 -1.4648
33405SOL    HW2 4004   0.139   1.627   9.329  1.1960 -0.5548  0.9639
33406SOL     OW 4005   2.176   2.862   9.103 -0.2405  0.5989  0.7143
33406SOL    HW1 4006   2.177   2.908   9.019 -1.2679  1.0905  0.9547
33406SOL    HW2 4007   2.266   2.833   9.116 -0.1398  0.1896 -0.7290
33407SOL     OW 4008   1.228   0.258   2.889  0.3892  0.0135  0.2530
33407SOL    HW1 4009   1.204   0.307   2.967  0.1320 -0.1102  0.2515
33407SOL    HW2 4010   1.235   0.167   2.919 -1.4219 -0.3154 -0.2151
33408SOL     OW 4011   0.745   1.250   6.808 -0.0452 -0.3223  0.2966
33408SOL    HW1 4012   0.654   1.276   6.818 -0.1464 -0.7585  0.5636
33408SOL    HW2 4013   0.743   1.179   6.743  0.1527 -0.0601  0.0024
33409SOL     OW 4014   3.487   4.972   9.978  0.1878  0.0881  0.3633
33409SOL    HW1 4015   3.561   4.999   9.924 -0.3007  1.7421  0.4765
33409SOL    HW2 4016   3.410   5.007   9.932 -0.5956 -1.9474  0.0209
33410SOL     OW 4017   6.141   7.125   0.989 -0.2030  0.3583  0.0369
33410SOL    HW1 4018   6.139   7.204   1.044 -0.4539 -0.5344  1.3617
33410SOL    HW2 4019   6.076   7.067   1.029  1.3743 -1.3036  0.3262
33411SOL     OW 4020   9.000   7.403   5.281  0.2042 -0.4902 -0.2330
33411SOL    HW1 4021   9.088   7.376   5.305 -0.0258 -1.4194 -0.3920
33411SOL    HW2 4022   8.943   7.341   5.326 -0.2721 -1.8393 -2.5034
33412SOL     OW 4023  10.247   2.614   2.544  0.4689  0.1366 -0.7082
33412SOL    HW1 4024  10.285   2.679   2.603 -1.1787 -0.3942  1.0573
33412SOL    HW2 4025  10.274   2.529   2.581 -3.3511 -0.3301  1.5372
33413SOL     OW 4026   5.024   3.635   0.663  0.2566  0.8607 -0.3826
33413SOL    HW1 4027   5.013   3.543   0.640 -1.1297  0.7573  0.5459
33413SOL    HW2 4028   5.038   3.680   0.579 -0.1730 -0.0543 -0.9550
33414SOL     OW 4029   4.279   3.930   6.549 -0.1033 -0.9712 -0.3616
33414SOL    HW1 4030   4.285   3.882   6.466 -2.0230 -3.9933  1.0747
33414SOL    HW2 4031   4.200   3.983   6.541  0.7532  0.2331 -1.1042
33415SOL     OW 4032  10.190   5.655   2.478 -0.3908  0.4964 -0.1106
33415SOL    HW1 4033  10.242   5.685   2.553 -0.8156 -0.1416  0.4529
33415SOL    HW2 4034  10.220   5.709   2.405  2.3886 -1.0494 -0.2488
33416SOL     OW 4035   5.315   0.807   1.547  0.0970 -0.6620 -0.2239
33416SOL    HW1 4036   5.355   0.891   1.525  0.9929 -1.3317 -1.2568
33416SOL    HW2 4037   5.225   0.829   1.572  0.5925  0.7006  0.4995
33417SOL     OW 4038   2.047   7.287   3.227 -0.6346  0.6268 -0.0205
33417SOL    HW1 4039   2.067   7.364   3.281  0.5589 -0.2029  0.7886
33417SOL    HW2 4040   2.131   7.241   3.220 -1.2641 -0.4573 -0.7254
33418SOL     OW 4041   8.684   6.929  10.248  0.0640  0.1063  0.3773
33418SOL    HW1 4042   8.698   6.865  10.319 -0.5528  0.1767  0.5723
33418SOL    HW2 4043   8.591   6.918  10.225 -0.1404  1.1554  0.6364
33419SOL     OW 4044   1.448   0.784   3.403  0.1226 -0.1123  0.3342
33419SOL    HW1 4045   1.365   0.832   3.393  0.1858 -0.1220 -0.2802
33419SOL    HW2 4046   1.505   0.844   3.451 -0.3682 -0.2619  1.1270
33420SOL     OW 4047   7.951   3.578   7.794 -0.1625 -0.0474  0.1536
33420SOL    HW1 4048   7.927   3.648   7.856  0.0256  0.7245 -0.6164
33420SOL    HW2 4049   7.977   3.625   7.714  1.0550 -0.9670 -0.0158
33421SOL     OW 4050   0.580   4.612   9.152  0.2073  0.2337  0.0328
33421SOL    HW1 4051   0.619   4.563   9.224 -1.1937  0.0977  0.7458
33421SOL    HW2 4052   0.491   4.576   9.144 -0.0863  1.1073 -0.9432
33422SOL     OW 4053   2.192   9.866   7.905  0.0915  0.1069  0.2970
33422SOL    HW1 4054   2.165   9.957   7.915 -0.0398 -0.1434  2.7291
33422SOL    HW2 4055   2.110   9.817   7.899  0.1451  0.0372  0.1159
33423SOL     OW 4056   1.839   9.617   3.154  0.1568  0.1631  0.5808
33423SOL    HW1 4057   1.826   9.639   3.062 -0.4564  2.4356  1.1502
33423SOL    HW2 4058   1.763   9.564   3.177 -1.9550  3.1121  0.7899
33424SOL     OW 4059  10.167   1.015   3.374  0.1247 -0.1813 -0.1171
33424SOL    HW1 4060  10.137   1.025   3.283  1.3430  1.2326 -0.3967
33424SOL    HW2 4061  10.151   1.100   3.414  2.3806  0.1773  0.1199
33425SOL     OW 4062   3.216   4.245   4.477  0.1401 -0.5200 -0.4389
33425SOL    HW1 4063   3.150   4.207   4.534  0.3419  1.3773  1.1707
33425SOL    HW2 4064   3.291   4.185   4.482  0.6957  0.2792  2.5304
33426SOL     OW 4065   9.847   5.708   8.105  0.1173  0.3257  0.1580
33426SOL    HW1 4066   9.801   5.642   8.158 -0.8771  0.2817 -0.7221
33426SOL    HW2 4067   9.781   5.739   8.043  1.4950 -0.3524 -1.7389
33427SOL     OW 4068   8.303   7.726   2.818 -0.1096  0.0248  0.2400
33427SOL    HW1 4069   8.390   7.766   2.810  0.7496 -1.6490  0.6817
33427SOL    HW2 4070   8.285   7.726   2.912  0.0734 -0.9246  0.2849
33428SOL     OW 4071   4.532   2.538   0.025  0.0680 -0.2623 -0.5073
33428SOL    HW1 4072   4.602   2.567   0.083 -0.8135 -0.0123  0.4391
33428SOL    HW2 4073   4.519   2.446   0.047 -1.0412  0.1203  0.5136
33429SOL     OW 4074   0.190   3.190   8.874  0.8350  0.4448 -0.0924
33429SOL    HW1 4075   0.153   3.132   8.941 -0.0155 -0.9900 -1.7458
33429SOL    HW2 4076   0.274   3.217   8.910  1.6549 -2.4870  0.4286
33430SOL     OW 4077   0.947   4.386   6.318  0.1650  0.3964  0.0849
33430SOL    HW1 4078   1.012   4.318   6.335  0.2581  0.4926  0.1142
33430SOL    HW2 4079   0.924   4.419   6.404  1.5683  1.7648 -0.0050
33431SOL     OW 4080   8.280   0.362   0.361 -0.4398  0.4018 -0.1085
33431SOL    HW1 4081   8.188   0.365   0.385 -0.2913  0.6887  0.4396
33431SOL    HW2 4082   8.303   0.452   0.337  0.1281  0.7009  1.4583
33432SOL     OW 4083   3.333   6.297   2.006  0.3593  0.0173  0.0519
33432SOL    HW1 4084   3.281   6.223   2.040  0.1194  0.3601  0.4495
33432SOL    HW2 4085   3.318   6.367   2.070  0.4399  0.4659 -0.4214
33433SOL     OW 4086  10.182   8.700   5.770 -0.7354  0.2870 -0.1240
33433SOL    HW1 4087  10.171   8.605   5.770 -0.7361  0.2840  0.5940
33433SOL    HW2 4088  10.110   8.732   5.714 -1.1732 -0.0872  0.2191
33434SOL     OW 4089   3.264   1.944   2.920 -0.5355  0.4308  0.1741
33434SOL    HW1 4090   3.189   1.887   2.904 -0.5663  0.1148  1.3104
33434SOL    HW2 4091   3.325   1.889   2.970 -0.3283  1.2329  0.8167
33435SOL     OW 4092   4.252   1.940   0.150  0.6258 -0.1459  0.1727
33435SOL    HW1 4093   4.180   1.940   0.213 -0.8877 -1.5817 -1.4250
33435SOL    HW2 4094   4.315   2.002   0.185 -1.1112  0.7084  1.9764
33436SOL     OW 4095   2.349   8.593   2.971 -0.4852 -0.2083 -0.7370
33436SOL    HW1 4096   2.401   8.672   2.986 -0.1882 -0.6994  1.1237
33436SOL    HW2 4097   2.319   8.600   2.880  2.5592  0.2489 -1.8140
33437SOL     OW 4098   3.973   9.708   9.614 -0.2685 -0.6719 -0.0458
33437SOL    HW1 4099   4.045   9.664   9.569  0.1373 -0.0505 -0.0275
33437SOL    HW2 4100   3.920   9.638   9.651 -1.1982 -1.2915 -2.3653
33438SOL     OW 4101   1.802   7.158   1.165 -0.3745 -0.0445 -0.0772
33438SOL    HW1 4102   1.885   7.114   1.147  0.2416  0.6502  0.9390
33438SOL    HW2 4103   1.743   7.129   1.095  1.1154  0.5075 -1.6309
33439SOL     OW 4104   2.796   9.140   3.569  0.2100 -0.9793 -0.3837
33439SOL    HW1 4105   2.716   9.086   3.566 -0.7864  0.4327 -3.3219
33439SOL    HW2 4106   2.846   9.111   3.492  0.4827  1.0084 -0.9981
33440SOL     OW 4107   1.854   9.338   5.561  0.6224 -0.4490 -0.2851
33440SOL    HW1 4108   1.878   9.307   5.474  1.3243 -0.8092  0.0308
33440SOL    HW2 4109   1.934   9.328   5.613  0.2010 -0.2688  0.4071
33441SOL     OW 4110   1.472   7.017   3.574  0.3155 -0.4325  0.1074
33441SOL    HW1 4111   1.405   6.952   3.595 -0.2737  0.3253  0.6588
33441SOL    HW2 4112   1.512   7.038   3.659 -1.8914  2.4509  0.5822
33442SOL     OW 4113  10.199   5.878   4.699 -0.1672  0.1494 -0.1277
33442SOL    HW1 4114  10.139   5.904   4.629  1.5654  0.6666 -1.5138
33442SOL    HW2 4115  10.170   5.790   4.724 -2.3556  0.9271  0.3179
33443SOL     OW 4116   6.206   3.455   1.579  0.2913  0.2808  0.8017
33443SOL    HW1 4117   6.274   3.508   1.538  0.5962  0.5823  1.6710
33443SOL    HW2 4118   6.209   3.371   1.533  1.1690  0.3272  0.7569
33444SOL     OW 4119   2.323   7.381   7.047 -0.1535  0.7798  0.2065
33444SOL    HW1 4120   2.380   7.355   7.119  0.0559  2.3983  0.6648
33444SOL    HW2 4121   2.361   7.339   6.970  0.4187  0.1431  0.8202
33445SOL     OW 4122   7.071   2.643   3.647  0.3093  0.4050 -0.4641
33445SOL    HW1 4123   7.057   2.552   3.671  0.3412  0.6445  0.4894
33445SOL    HW2 4124   7.157   2.665   3.683  0.4484  0.7171 -0.9804
33446SOL     OW 4125   7.964   4.253   9.569 -0.5970  1.0846  0.6923
33446SOL    HW1 4126   7.946   4.160   9.582 -2.1380  1.1581 -0.5959
33446SOL    HW2 4127   8.034   4.256   9.504  0.3341  0.8247  1.6741
33447SOL     OW 4128   4.024   4.852   9.008 -0.0522  0.3249 -0.2143
33447SOL    HW1 4129   3.929   4.861   9.013 -0.1438 -0.5689 -0.0844
33447SOL    HW2 4130   4.057   4.941   9.011 -0.8955  0.6556 -0.4343
33448SOL     OW 4131   7.762   1.816   4.464 -0.6118 -0.0226  0.0975
33448SOL    HW1 4132   7.758   1.868   4.383  1.2410 -1.6615 -1.1715
33448SOL    HW2 4133   7.853   1.785   4.467 -0.2406  1.0470  3.5703
33449SOL     OW 4134   4.095   0.939   0.909 -0.0145 -0.4249 -0.5370
33449SOL    HW1 4135   4.080   1.029   0.938 -1.1541 -0.4061 -1.1235
33449SOL    HW2 4136   4.049   0.886   0.974  0.9820 -0.6239  0.0279
33450SOL     OW 4137   6.331   8.291   8.103 -0.4169 -0.0343  0.3321
33450SOL    HW1 4138   6.259   8.317   8.160 -0.7313 -1.3127  0.5513
33450SOL    HW2 4139   6.384   8.371   8.094 -1.6359  0.8220  0.4712
33451SOL     OW 4140   4.401   2.278   5.251 -0.2131  0.3350 -0.2032
33451SOL    HW1 4141   4.325   2.267   5.308 -0.7539 -1.6649 -1.2148
33451SOL    HW2 4142   4.394   2.207   5.188  2.5779  0.0165 -0.2716
33452SOL     OW 4143   5.899   5.367   3.003 -0.1934 -0.0296 -0.0274
33452SOL    HW1 4144   5.858   5.453   3.015  1.0731  0.7712 -1.1519
33452SOL    HW2 4145   5.828   5.310   2.974 -0.7467  1.0533 -0.8717
33453SOL     OW 4146   4.909   9.089   1.785 -0.2475 -0.4100  0.0330
33453SOL    HW1 4147   4.860   9.144   1.724 -0.9527 -0.3069  0.6736
33453SOL    HW2 4148   4.998   9.123   1.783 -1.0299  2.0593  1.8428
33454SOL     OW 4149  10.253   0.384  10.333 -0.3374 -0.3304  0.0427
33454SOL    HW1 4150  10.281   0.419  10.248 -1.5617 -1.1978 -0.7610
33454SOL    HW2 4151  10.324   0.327  10.361 -0.4605 -1.0294 -1.0290
33455SOL     OW 4152   6.047   4.039   4.004 -0.5000 -0.5635  0.4734
33455SOL    HW1 4153   5.996   4.091   3.942  1.6943 -0.8477 -1.7270
33455SOL    HW2 4154   6.078   4.102   4.069 -1.8312 -0.0210  0.5974
33456SOL     OW 4155   3.239   9.169   8.610  0.0341  0.1567 -0.0637
33456SOL    HW1 4156   3.275   9.234   8.671 -2.3850  0.2121  1.4561
33456SOL    HW2 4157   3.151   9.151   8.645 -0.8045 -1.0921 -2.6296
33457SOL     OW 4158   7.989   5.204  10.262  0.0446  0.5364  0.2256
33457SOL    HW1 4159   8.011   5.122  10.307  1.1141  0.7286  0.0900
33457SOL    HW2 4160   8.055   5.266  10.292 -1.6760  1.8054  1.5361
33458SOL     OW 4161   1.184   6.484   6.374  0.0544 -0.4799  0.2286
33458SOL    HW1 4162   1.220   6.417   6.432 -0.5711 -0.9006  0.1392
33458SOL    HW2 4163   1.092   6.493   6.401 -0.1363 -0.3984 -0.4305
33459SOL     OW 4164   4.692   0.192   9.434  0.2624 -0.2886 -0.0283
33459SOL    HW1 4165   4.736   0.261   9.485  0.2494  0.6046 -1.1801
33459SOL    HW2 4166   4.645   0.140   9.499 -1.6886  2.2141  0.7361
33460SOL     OW 4167  10.296   2.708   3.076  0.0502  0.1182 -0.5001
33460SOL    HW1 4168  10.282   2.789   3.028 -1.2230  0.9834  1.2050
33460SOL    HW2 4169  10.390   2.704   3.091  0.5187 -0.2504 -3.0459
33461SOL     OW 4170   3.760   2.472   2.719 -0.0168  0.1813 -0.6527
33461SOL    HW1 4171   3.792   2.388   2.751 -1.2018  0.0822  0.3375
33461SOL    HW2 4172   3.812   2.489   2.640  0.5220 -1.2690 -0.6366
33462SOL     OW 4173   6.340   8.045   4.006  0.4632  0.0908 -0.1404
33462SOL    HW1 4174   6.400   8.096   3.952  1.9595  0.0267  1.3903
33462SOL    HW2 4175   6.293   8.110   4.058  0.1599  0.0599 -0.3712
33463SOL     OW 4176   3.132   6.005   6.481 -0.5881 -0.6275  0.1364
33463SOL    HW1 4177   3.185   6.002   6.401 -0.9165 -0.1419 -0.0996
33463SOL    HW2 4178   3.196   6.013   6.552 -0.3267 -0.4396 -0.1217
33464SOL     OW 4179   9.440   9.466   9.575 -0.7155 -0.1835  0.2742
33464SOL    HW1 4180   9.476   9.381   9.552 -0.7535  0.6147 -3.4189
33464SOL    HW2 4181   9.347   9.460   9.553 -0.8950  0.5673  0.7633
33465SOL     OW 4182   2.524   4.937   2.069  0.4051  0.1000  0.4928
33465SOL    HW1 4183   2.431   4.955   2.075  0.3421 -0.5809  2.1671
33465SOL    HW2 4184   2.566   5.022   2.087  0.0897 -0.0361  2.0385
33466SOL     OW 4185   0.060   2.577   1.040  0.3478  0.0001  0.1195
33466SOL    HW1 4186   0.094   2.491   1.018  0.5379  0.4847 -1.6255
33466SOL    HW2 4187   0.135   2.624   1.077 -0.2110 -1.1315  2.9227
33467SOL     OW 4188   9.851   1.082   3.091 -0.0206  0.1597 -0.0429
33467SOL    HW1 4189   9.858   0.999   3.044 -0.3488  1.3587 -2.3400
33467SOL    HW2 4190   9.942   1.110   3.103  0.1117 -0.6845  1.1266
33468SOL     OW 4191   0.986   2.528   9.241 -0.2168 -0.1669  0.4645
33468SOL    HW1 4192   1.056   2.564   9.295 -0.8766  0.2707  1.0467
33468SOL    HW2 4193   0.941   2.467   9.298  0.5816 -1.5784 -0.3678
33469SOL     OW 4194   2.598   3.582   6.247  0.5644  0.3174 -0.0874
33469SOL    HW1 4195   2.539   3.613   6.178  0.2000  1.1157  0.5742
33469SOL    HW2 4196   2.671   3.542   6.200  0.2350  0.6926 -0.9324
33470SOL     OW 4197  10.248   0.006   4.467 -0.2744 -0.0152 -0.5808
33470SOL    HW1 4198  10.297   0.087   4.480 -1.4475  0.9308 -1.8722
33470SOL    HW2 4199  10.250  -0.037   4.553 -0.3358  1.7692  0.3429
33471SOL     OW 4200   7.362   2.125   6.106  0.3310  0.6508  0.0588
33471SOL    HW1 4201   7.353   2.158   6.016 -1.8374  1.5038  0.5140
33471SOL    HW2 4202   7.277   2.143   6.146  1.5287  1.1231  2.5773
33472SOL     OW 4203   6.498   0.495   1.577  0.1641  0.0119 -0.2487
33472SOL    HW1 4204   6.529   0.526   1.492  1.0399  0.1077  0.0934
33472SOL    HW2 4205   6.461   0.572   1.619 -0.8371 -0.1662 -0.7808
33473SOL     OW 4206   1.331   0.527   2.500  0.0123 -0.5810 -0.3925
33473SOL    HW1 4207   1.310   0.590   2.569  1.8946 -0.1867 -0.1114
33473SOL    HW2 4208   1.339   0.579   2.421  1.6721 -0.3937 -0.1410
33474SOL     OW 4209  10.031   3.613   7.076 -0.6515 -0.4828  0.1683
33474SOL    HW1 4210   9.954   3.643   7.027 -0.1070 -1.4347 -1.3698
33474SOL    HW2 4211  10.102   3.615   7.012  0.8675  1.2454  1.7876
33475SOL     OW 4212   3.847   7.393   9.209 -0.9935  0.4699 -0.3859
33475SOL    HW1 4213   3.905   7.318   9.203  0.0336  1.2887 -0.9533
33475SOL    HW2 4214   3.778   7.365   9.270 -2.3544 -2.0412 -2.8549
33476SOL     OW 4215   3.470   6.834   4.702 -0.0384  0.5258 -0.1470
33476SOL    HW1 4216   3.419   6.915   4.708 -1.0615 -0.1946  1.3936
33476SOL    HW2 4217   3.406   6.764   4.694  0.6305 -0.3945  1.7642
33477SOL     OW 4218   2.362   5.246   9.414  0.6331 -0.5958  0.1953
33477SOL    HW1 4219   2.417   5.182   9.460  1.8933  0.8608  0.7636
33477SOL    HW2 4220   2.416   5.277   9.342 -0.0825 -0.3519 -0.2533
33478SOL     OW 4221   3.997   3.544   7.872  0.2072  0.3857 -0.6631
33478SOL    HW1 4222   3.914   3.502   7.895 -0.6056  2.2396 -0.0304
33478SOL    HW2 4223   4.026   3.498   7.793 -1.2333 -0.5455 -0.6833
33479SOL     OW 4224   7.053   4.323  10.311 -0.1377 -0.2294 -0.0958
33479SOL    HW1 4225   7.100   4.391  10.263 -0.1502 -0.0989  0.0785
33479SOL    HW2 4226   7.122   4.270  10.352 -0.1189 -0.4812 -0.4481
33480SOL     OW 4227   2.914   2.521   2.263 -0.1646 -0.6762  0.5954
33480SOL    HW1 4228   2.879   2.478   2.185  1.5086 -1.3577  0.1833
33480SOL    HW2 4229   3.007   2.498   2.264  0.4267  1.5204  1.3390
33481SOL     OW 4230   0.490   8.573   8.301 -0.1933  0.2428 -0.2118
33481SOL    HW1 4231   0.405   8.612   8.319  1.2210  3.6216 -0.0682
33481SOL    HW2 4232   0.490   8.556   8.206 -0.8596  0.6699 -0.2891
33482SOL     OW 4233   3.626   7.681   2.893 -0.6739  0.3144 -0.3118
33482SOL    HW1 4234   3.568   7.751   2.925 -0.6068  0.2281 -0.0019
33482SOL    HW2 4235   3.708   7.726   2.871 -0.2651  0.1922  0.8734
33483SOL     OW 4236   6.257   0.411   0.487  0.5527  0.2116  0.1166
33483SOL    HW1 4237   6.244   0.500   0.454 -1.2427  0.4325  1.3103
33483SOL    HW2 4238   6.210   0.408   0.570  2.0610 -1.3504  0.9871
33484SOL     OW 4239   0.567   0.092   1.773  0.6719  0.6935  0.1382
33484SOL    HW1 4240   0.592   0.062   1.861  2.3583  2.4858  0.3396
33484SOL    HW2 4241   0.628   0.046   1.715 -1.5442 -1.8294 -0.3752
33485SOL     OW 4242   3.176   8.684   0.204  0.0450  0.6089 -0.0431
33485SOL    HW1 4243   3.162   8.779   0.196  0.3942  0.6251 -0.5161
33485SOL    HW2 4244   3.171   8.651   0.115  0.2752  0.2321  0.0790
33486SOL     OW 4245   2.624   2.743   2.805 -0.1424 -0.4912 -0.5949
33486SOL    HW1 4246   2.700   2.802   2.796 -1.3768  1.3688  0.4264
33486SOL    HW2 4247   2.583   2.745   2.719 -0.2804  0.3399 -0.5219
33487SOL     OW 4248   1.304   3.723   0.701 -0.1783  0.0050 -0.4776
33487SOL    HW1 4249   1.248   3.691   0.631 -1.7959  0.1674  0.6948
33487SOL    HW2 4250   1.248   3.724   0.779  1.6400 -0.4891  0.9060
33488SOL     OW 4251   4.262   4.397   0.159 -0.2222  0.5564  0.2160
33488SOL    HW1 4252   4.344   4.408   0.208 -0.5523  1.0477  0.6722
33488SOL    HW2 4253   4.289   4.361   0.074  0.3011 -0.9665  0.9868
33489SOL     OW 4254   9.213   2.683   1.912 -0.7067 -1.2910 -0.0557
33489SOL    HW1 4255   9.159   2.620   1.959  2.6503 -2.8557  2.1231
33489SOL    HW2 4256   9.239   2.747   1.979  0.7805 -1.0887 -0.7944
33490SOL     OW 4257   8.219   4.895   4.378  0.7217  0.1967 -0.0999
33490SOL    HW1 4258   8.156   4.868   4.444  1.2585  0.3029  0.4630
33490SOL    HW2 4259   8.225   4.820   4.319 -0.6412  0.5376 -0.7173
33491SOL     OW 4260   7.337   3.642  10.030  0.6315  0.1253 -0.8454
33491SOL    HW1 4261   7.303   3.659   9.942 -1.0104  2.9851  0.2047
33491SOL    HW2 4262   7.261   3.655  10.088  2.1550  0.6341  1.1739
33492SOL     OW 4263   0.337   2.885   2.468 -0.4810 -0.8317  0.0073
33492SOL    HW1 4264   0.273   2.955   2.454  0.6758  0.2496 -0.0901
33492SOL    HW2 4265   0.313   2.818   2.404 -0.7696  0.1127 -0.9172
33493SOL     OW 4266   5.300   3.164   9.467  0.1767  0.1489 -0.0804
33493SOL    HW1 4267   5.330   3.190   9.380 -0.1218  0.3397 -0.1244
33493SOL    HW2 4268   5.381   3.145   9.514  0.7568  4.0983  0.9348
33494SOL     OW 4269   4.005   3.912   3.978  0.1098 -0.8211  0.4900
33494SOL    HW1 4270   4.058   3.855   4.035  0.3301  0.7703  1.9715
33494SOL    HW2 4271   3.929   3.935   4.032 -1.3691 -1.8165 -1.0604
33495SOL     OW 4272   3.505   6.128   4.332 -0.4878 -0.0891  0.1215
33495SOL    HW1 4273   3.530   6.213   4.295 -1.4929  0.0870 -0.1786
33495SOL    HW2 4274   3.435   6.096   4.275 -0.9668 -0.5433  0.9327
33496SOL     OW 4275   6.916   6.133   0.822  0.9785  0.3555  0.1828
33496SOL    HW1 4276   6.940   6.083   0.900 -0.9540 -1.0015 -0.0417
33496SOL    HW2 4277   6.985   6.112   0.759  1.1457 -0.6068  0.6690
33497SOL     OW 4278   6.717   6.138   4.274  0.7704 -0.1040 -0.0163
33497SOL    HW1 4279   6.737   6.056   4.229  0.4076 -1.6277  2.3982
33497SOL    HW2 4280   6.621   6.140   4.277  0.7523  0.9242 -0.8940
33498SOL     OW 4281   5.134   3.861   5.639 -0.3593 -0.4090 -0.3793
33498SOL    HW1 4282   5.051   3.821   5.613 -0.0247 -0.4734 -1.3752
33498SOL    HW2 4283   5.181   3.791   5.684 -0.2736 -0.7789 -1.0447
33499SOL     OW 4284   1.910   2.522   4.699  0.2595  0.7193 -0.1266
33499SOL    HW1 4285   1.929   2.610   4.733 -1.3068  1.1922 -0.3480
33499SOL    HW2 4286   1.971   2.464   4.744  2.3488  2.0736 -1.0355
33500SOL     OW 4287   6.393   5.427   2.065  0.1901 -0.4349 -0.4292
33500SOL    HW1 4288   6.426   5.479   2.138 -1.3424  0.4795 -0.3545
33500SOL    HW2 4289   6.400   5.484   1.989  0.1111 -0.7435 -0.6729
33501SOL     OW 4290   6.501   3.584   7.337 -0.2171 -0.0657 -0.2722
33501SOL    HW1 4291   6.482   3.510   7.394  0.8112 -0.2367 -0.1476
33501SOL    HW2 4292   6.416   3.604   7.296 -0.9766  0.0657  1.2836
33502SOL     OW 4293   7.750   0.182   4.645  0.2427 -0.0441  0.1578
33502SOL    HW1 4294   7.763   0.113   4.581 -0.5387 -0.4198  0.3951
33502SOL    HW2 4295   7.830   0.181   4.698  1.0052  0.4455 -0.9584
33503SOL     OW 4296   5.710   3.818   5.206 -0.0337 -0.7664 -0.2222
33503SOL    HW1 4297   5.746   3.756   5.142  1.0670  0.3676 -0.7182
33503SOL    HW2 4298   5.615   3.814   5.191  0.2064 -0.4620 -2.0004
33504SOL     OW 4299   7.161   2.270   5.261 -0.7562  0.2893 -0.0224
33504SOL    HW1 4300   7.121   2.204   5.203  0.1616  0.2633 -0.6440
33504SOL    HW2 4301   7.123   2.253   5.347  0.0193 -1.5368 -0.0027
33505SOL     OW 4302   5.283   2.021   9.139 -0.0291 -0.4785 -0.0056
33505SOL    HW1 4303   5.207   2.022   9.197 -0.4369 -2.8055 -0.4100
33505SOL    HW2 4304   5.247   2.043   9.053  0.4357  2.0901  0.3587
33506SOL     OW 4305   0.472   8.162   6.607  0.2964 -0.8315 -0.4082
33506SOL    HW1 4306   0.495   8.219   6.681 -0.8286 -1.2974  0.3307
33506SOL    HW2 4307   0.556   8.133   6.572  0.8858  0.5277 -0.2210
33507SOL     OW 4308   1.426   9.027   4.910  0.5831  0.6161  0.2764
33507SOL    HW1 4309   1.390   8.939   4.896 -0.5745  1.2298 -0.8577
33507SOL    HW2 4310   1.483   9.041   4.835 -0.9569  1.6319 -0.7830
33508SOL     OW 4311  10.124   3.082   3.498 -0.3597  0.3065  0.2781
33508SOL    HW1 4312  10.173   3.163   3.512 -0.0387  0.2426 -0.4573
33508SOL    HW2 4313  10.159   3.046   3.417 -2.2636  0.7380 -0.7820
33509SOL     OW 4314   1.487   8.227   3.527 -0.5118 -0.3154  0.1054
33509SOL    HW1 4315   1.546   8.278   3.582  0.4234  0.9135 -1.9543
33509SOL    HW2 4316   1.517   8.136   3.538 -0.0769 -0.0507  1.2352
33510SOL     OW 4317  10.349   4.248   4.800 -0.1831  0.3534 -0.0887
33510SOL    HW1 4318  10.287   4.178   4.780 -0.1302  0.9726 -2.8327
33510SOL    HW2 4319  10.294   4.323   4.821 -0.5267  1.0636 -3.0823
33511SOL     OW 4320   6.979   1.654   9.020  0.2392 -0.4814  0.5956
33511SOL    HW1 4321   7.048   1.720   9.022  0.1892 -0.4541  2.2162
33511SOL    HW2 4322   6.899   1.703   9.006  0.1496 -0.1254  2.2397
33512SOL     OW 4323   5.063   4.211   6.074  0.4348  0.4588 -0.0212
33512SOL    HW1 4324   4.981   4.164   6.057 -0.3067  1.2361  1.2058
33512SOL    HW2 4325   5.034   4.299   6.099  1.5615  0.3289  1.8970
33513SOL     OW 4326   8.539   3.672   6.512  0.5018  0.0135  0.0122
33513SOL    HW1 4327   8.480   3.680   6.438 -0.8020 -2.9524  0.6189
33513SOL    HW2 4328   8.496   3.720   6.583 -0.5451 -0.9809  0.0697
33514SOL     OW 4329   8.478   3.271   7.290 -0.0987 -0.3029  1.0265
33514SOL    HW1 4330   8.557   3.323   7.302  0.1684 -0.4006 -0.1557
33514SOL    HW2 4331   8.406   3.333   7.301  0.1075 -0.3358  2.7136
33515SOL     OW 4332   6.052   8.974   9.335 -0.0230 -0.3752 -0.7520
33515SOL    HW1 4333   5.957   8.983   9.331 -0.1956 -1.0644  0.8991
33515SOL    HW2 4334   6.068   8.881   9.320  0.5599 -0.0173 -2.6719
33516SOL     OW 4335   6.740   7.161   8.311 -0.7984  0.1927  0.0102
33516SOL    HW1 4336   6.714   7.217   8.239  1.6787 -0.7377 -1.7563
33516SOL    HW2 4337   6.783   7.220   8.373 -0.8349  0.6644 -0.4072
33517SOL     OW 4338   2.778   4.644   7.270 -0.4713  0.1008 -0.4922
33517SOL    HW1 4339   2.855   4.696   7.292 -0.2606 -0.0003 -0.9825
33517SOL    HW2 4340   2.708   4.682   7.323 -0.5103  1.4418 -1.4580
33518SOL     OW 4341   3.487   9.620   7.934  0.5247  0.6457 -0.2660
33518SOL    HW1 4342   3.575   9.654   7.950  0.4860  1.9188 -2.3582
33518SOL    HW2 4343   3.433   9.659   8.003  1.1192  2.1587 -0.6221
33519SOL     OW 4344   5.408   5.802   3.142  0.4392 -0.3928 -0.2984
33519SOL    HW1 4345   5.401   5.757   3.058  0.5822  1.3547 -1.3108
33519SOL    HW2 4346   5.320   5.836   3.158  0.5482 -0.2349 -0.0383
33520SOL     OW 4347   9.539   9.866   5.113  0.5794  0.6773 -0.4933
33520SOL    HW1 4348   9.565   9.929   5.046  1.4692 -1.5283 -2.3388
33520SOL    HW2 4349   9.446   9.852   5.097  0.6540  0.6046 -0.8726
33521SOL     OW 4350   3.286   4.009   5.190  0.8996 -0.0418  0.0824
33521SOL    HW1 4351   3.352   4.044   5.249  0.6457 -0.7905  0.8260
33521SOL    HW2 4352   3.323   3.928   5.157  0.4844 -0.3140  0.2732
33522SOL     OW 4353   6.585   3.485   3.820  0.4357  0.1494 -0.8138
33522SOL    HW1 4354   6.675   3.485   3.854  0.3834  2.3993 -0.4929
33522SOL    HW2 4355   6.530   3.498   3.897  0.0079  1.0214 -1.2523
33523SOL     OW 4356   2.785   5.580   2.834  0.7884  0.0655  0.0177
33523SOL    HW1 4357   2.721   5.621   2.893 -1.3875 -1.4799 -1.1187
33523SOL    HW2 4358   2.861   5.562   2.890 -0.2788  0.7477  1.7857
33524SOL     OW 4359   1.045   6.127   2.927 -0.5805 -0.4893 -0.0713
33524SOL    HW1 4360   1.049   6.183   2.850 -0.3097 -1.9131 -1.1441
33524SOL    HW2 4361   0.952   6.118   2.946 -0.8744 -2.3159 -1.9696
33525SOL     OW 4362   7.047   8.819   1.883  0.3310  0.2777  0.5962
33525SOL    HW1 4363   7.079   8.825   1.973 -1.4632  2.6401  1.1732
33525SOL    HW2 4364   6.970   8.875   1.881  0.4096  0.4535 -2.4852
33526SOL     OW 4365   7.123   2.741   1.186 -0.1003 -0.0246  0.1725
33526SOL    HW1 4366   7.045   2.793   1.205 -1.1142 -1.7261  0.9091
33526SOL    HW2 4367   7.125   2.735   1.090 -0.1602  1.0518  0.0918
33527SOL     OW 4368   6.928   8.647   7.421  0.9513  0.5162  0.0975
33527SOL    HW1 4369   6.894   8.594   7.493 -0.4297  0.0627 -0.8475
33527SOL    HW2 4370   7.011   8.681   7.453  1.0686 -0.8652  1.3516
33528SOL     OW 4371   8.733   3.195   0.489  0.1474 -0.0964  0.4094
33528SOL    HW1 4372   8.665   3.254   0.521  1.0028  0.5649  1.0636
33528SOL    HW2 4373   8.692   3.149   0.416 -0.5302  1.3697 -0.1754
33529SOL     OW 4374   0.814   3.466   6.391 -0.2714  0.1643  0.3663
33529SOL    HW1 4375   0.884   3.500   6.336  0.4293  1.5091  1.9928
33529SOL    HW2 4376   0.762   3.410   6.333  1.9460 -0.6207 -0.9752
33530SOL     OW 4377   9.554   5.344   7.962  0.1963  0.1234  0.3206
33530SOL    HW1 4378   9.486   5.352   8.029 -1.7641  0.3565 -1.6113
33530SOL    HW2 4379   9.519   5.281   7.899  0.8796  1.6665 -1.7096
33531SOL     OW 4380   2.798   3.635   2.405 -0.8062 -0.0254 -0.2005
33531SOL    HW1 4381   2.862   3.601   2.468 -2.1027  0.3515  1.3974
33531SOL    HW2 4382   2.848   3.650   2.325  0.8980 -0.5984  0.7150
33532SOL     OW 4383   1.753   7.515   8.297 -0.3148  0.1158 -0.0520
33532SOL    HW1 4384   1.719   7.506   8.386  0.4979  1.6443  0.4306
33532SOL    HW2 4385   1.786   7.427   8.275 -1.5995 -0.5781  0.6751
33533SOL     OW 4386   0.980   1.055   2.814 -0.2902  0.5082 -0.8304
33533SOL    HW1 4387   0.940   0.988   2.758  1.5540 -0.7923 -0.7004
33533SOL    HW2 4388   1.046   1.008   2.865  1.0889  2.4049 -0.7183
33534SOL     OW 4389   7.270   4.169   2.427 -0.3556  0.1373 -0.1923
33534SOL    HW1 4390   7.297   4.224   2.500  0.9218 -1.0143  0.2364
33534SOL    HW2 4391   7.278   4.226   2.350 -1.2367  1.2104  0.4774
33535SOL     OW 4392   3.378   5.280   5.716  0.2151 -0.0430  0.5169
33535SOL    HW1 4393   3.346   5.252   5.631  1.8061  1.3558 -0.5944
33535SOL    HW2 4394   3.453   5.223   5.733  0.8453  0.6784  0.2289
33536SOL     OW 4395   9.901   8.146   2.185  0.2102 -0.0114  0.1399
33536SOL    HW1 4396   9.852   8.088   2.243  1.5592  0.2165  1.5769
33536SOL    HW2 4397   9.920   8.091   2.109 -3.2053  0.2451 -1.0767
33537SOL     OW 4398   8.075   3.963   4.838 -0.0357 -0.2926  0.1098
33537SOL    HW1 4399   8.142   4.028   4.862  1.2632 -1.7094  0.4684
33537SOL    HW2 4400   8.050   3.986   4.749  1.0968  0.1542 -0.1105
33538SOL     OW 4401   2.909   9.622   3.917  0.6610  0.1374  0.2439
33538SOL    HW1 4402   2.911   9.713   3.946  0.7023 -0.3563  1.9004
33538SOL    HW2 4403   2.971   9.618   3.845 -0.7905  1.8271 -1.1921
33539SOL     OW 4404   7.031   6.680   5.600 -0.5382  0.1271 -0.1073
33539SOL    HW1 4405   6.974   6.659   5.525  0.7743 -1.3648 -0.7340
33539SOL    HW2 4406   6.986   6.642   5.675 -0.1680 -1.5198 -0.6748
33540SOL     OW 4407   4.042   9.124   8.783  0.1317 -0.3151 -0.0067
33540SOL    HW1 4408   3.987   9.195   8.817 -1.9520 -1.1227 -1.5152
33540SOL    HW2 4409   4.098   9.167   8.718  0.6976  0.3485  0.8851
33541SOL     OW 4410   4.539   0.321   5.552 -0.1075  0.2862  0.3377
33541SOL    HW1 4411   4.466   0.278   5.596 -0.3210  0.3243  0.0248
33541SOL    HW2 4412   4.522   0.415   5.563 -0.2465  0.2977  0.0430
33542SOL     OW 4413   3.525   4.662   9.912 -0.9344  0.1781 -0.2941
33542SOL    HW1 4414   3.608   4.657   9.866 -1.3075  0.5240 -1.0194
33542SOL    HW2 4415   3.516   4.755   9.936 -0.1535 -0.1902  1.6163
33543SOL     OW 4416   0.865   5.519   8.937  0.0696  0.5114  0.2035
33543SOL    HW1 4417   0.788   5.574   8.924  0.7667  1.1979 -1.2231
33543SOL    HW2 4418   0.904   5.551   9.019 -0.9540  0.3795  0.7559
33544SOL     OW 4419   9.302   8.785   0.797 -0.0535  0.3417 -0.1076
33544SOL    HW1 4420   9.350   8.837   0.862  0.0417 -0.2230  0.2848
33544SOL    HW2 4421   9.245   8.848   0.753 -0.6042  0.6218  0.9800
33545SOL     OW 4422   2.107   9.835   3.848  0.1572 -0.4290  0.3042
33545SOL    HW1 4423   2.117   9.783   3.927 -0.2215  0.1646  0.7489
33545SOL    HW2 4424   2.012   9.837   3.833 -0.0927  2.1300  1.6813
33546SOL     OW 4425   1.205   6.054   3.600 -0.2777  0.6587  0.2190
33546SOL    HW1 4426   1.273   6.035   3.665 -0.7286  0.3272  0.6030
33546SOL    HW2 4427   1.124   6.055   3.650 -0.6716  0.0929 -0.3984
33547SOL     OW 4428   7.436   7.902   4.999 -0.0303 -0.5263  0.3845
33547SOL    HW1 4429   7.505   7.895   5.064  0.9107  0.8676 -0.4189
33547SOL    HW2 4430   7.382   7.975   5.029 -1.3970 -1.7952  1.1746
33548SOL     OW 4431   1.212   5.001   3.421  0.2775  0.7549 -0.2123
33548SOL    HW1 4432   1.176   5.037   3.340 -2.6466  0.1781  0.7115
33548SOL    HW2 4433   1.254   5.075   3.464  0.1831  1.5035 -1.3741
33549SOL     OW 4434   0.933   6.632   6.821 -0.3469  0.2725  0.3760
33549SOL    HW1 4435   0.873   6.701   6.794  0.2291  0.8055  0.4341
33549SOL    HW2 4436   0.898   6.602   6.905 -0.1044  1.1227  0.7925
33550SOL     OW 4437   3.492   7.481   8.906 -0.0452  0.0627  0.1699
33550SOL    HW1 4438   3.473   7.394   8.942 -0.5102  0.2509  0.3801
33550SOL    HW2 4439   3.570   7.468   8.852  0.0904 -0.4177  0.4758
33551SOL     OW 4440   0.222   4.975   5.704  0.5008 -0.5760 -0.5930
33551SOL    HW1 4441   0.181   4.921   5.637  0.7954 -1.5856  0.0234
33551SOL    HW2 4442   0.155   5.038   5.730 -0.0302 -1.0006 -0.9318
33552SOL     OW 4443   4.876   6.464   7.933 -0.6673  0.3708  0.1119
33552SOL    HW1 4444   4.952   6.514   7.962  1.0649 -1.6172 -0.7605
33552SOL    HW2 4445   4.853   6.409   8.009  1.2651 -1.8139 -0.7772
33553SOL     OW 4446   9.208   8.727   3.283 -0.5614 -0.0235 -0.1665
33553SOL    HW1 4447   9.128   8.735   3.231  0.2328  1.9425 -1.2024
33553SOL    HW2 4448   9.181   8.678   3.360 -2.4769 -0.4634 -1.0473
33554SOL     OW 4449   5.638   3.899  10.026  0.4298 -0.3813 -0.1076
33554SOL    HW1 4450   5.600   3.831  10.081 -0.2480 -1.0829 -1.4119
33554SOL    HW2 4451   5.577   3.972  10.032  0.2697 -0.5192 -0.0541
33555SOL     OW 4452   5.712   6.113  10.086  0.1454 -0.1567 -0.0601
33555SOL    HW1 4453   5.684   6.193  10.041  0.5961  0.2951  0.4455
33555SOL    HW2 4454   5.707   6.044  10.019 -2.0589 -0.0913 -0.0230
33556SOL     OW 4455   6.912   4.617   0.784 -0.0240  0.4977 -0.0312
33556SOL    HW1 4456   6.969   4.548   0.750 -0.6392 -1.0765  1.9100
33556SOL    HW2 4457   6.873   4.656   0.706  1.5678 -0.2542 -1.2675
33557SOL     OW 4458   9.964   2.006   8.651 -0.2141  0.1927  1.2312
33557SOL    HW1 4459   9.885   1.966   8.614  1.2728 -1.9650  0.1306
33557SOL    HW2 4460   9.969   2.092   8.611 -1.8814  0.2835  1.1630
33558SOL     OW 4461   2.664   2.408   8.082  0.2228 -0.1763 -0.0669
33558SOL    HW1 4462   2.605   2.335   8.060 -2.3066  1.4351  0.9452
33558SOL    HW2 4463   2.685   2.395   8.174  2.2978 -1.2029 -0.6113
33559SOL     OW 4464   5.645   2.825   1.057  0.3528 -0.0814 -0.3950
33559SOL    HW1 4465   5.633   2.739   1.016  0.8329 -0.4077  0.1330
33559SOL    HW2 4466   5.572   2.878   1.024 -1.4017 -1.4013  1.1542
33560SOL     OW 4467   8.236   3.603   4.672 -0.3923 -0.6137 -0.1179
33560SOL    HW1 4468   8.201   3.609   4.761 -0.1663 -0.0914 -0.0607
33560SOL    HW2 4469   8.181   3.538   4.629 -1.4745  0.2278 -0.0442
33561SOL     OW 4470   2.110   7.115   2.905  0.0346  0.3378  0.0415
33561SOL    HW1 4471   2.057   7.192   2.926  0.3881  0.2132  1.4578
33561SOL    HW2 4472   2.089   7.052   2.974  0.3777 -0.5381 -0.6367
33562SOL     OW 4473   9.050  10.070   5.422  0.0555 -0.0848  0.0731
33562SOL    HW1 4474   9.110  10.061   5.497  2.6472 -0.1366 -1.8538
33562SOL    HW2 4475   9.054  10.164   5.401  0.3812 -0.2780 -0.7544
33563SOL     OW 4476   6.349   7.755   3.243 -0.1623 -0.2285 -0.1528
33563SOL    HW1 4477   6.323   7.774   3.333  0.1959 -0.9363  0.1167
33563SOL    HW2 4478   6.443   7.738   3.249 -0.1888 -0.5533 -0.6132
33564SOL     OW 4479   0.986   9.761   0.696 -0.0816  0.0294  0.1888
33564SOL    HW1 4480   1.021   9.824   0.758  0.8638  0.4247 -0.7118
33564SOL    HW2 4481   0.898   9.793   0.676 -0.6591 -0.4757  1.7964
33565SOL     OW 4482   3.222   2.610   5.359 -0.2673 -0.0544 -0.4016
33565SOL    HW1 4483   3.254   2.585   5.273  0.5204 -2.5653  0.5532
33565SOL    HW2 4484   3.301   2.623   5.412 -0.7267  1.8122 -0.0755
33566SOL     OW 4485   0.015   1.601   2.312  0.4373 -0.2542  0.1894
33566SOL    HW1 4486   0.099   1.590   2.357  0.6678  0.8528  0.0699
33566SOL    HW2 4487  -0.004   1.695   2.319 -0.6232 -0.4309 -0.0867
33567SOL     OW 4488   6.187   3.328   0.187 -0.8959 -0.0902 -0.2136
33567SOL    HW1 4489   6.187   3.424   0.187  0.5279 -0.0752 -0.1466
33567SOL    HW2 4490   6.133   3.304   0.111 -1.3417  0.7529 -0.1717
33568SOL     OW 4491   9.983   5.326   3.094  0.1391 -0.5752  0.0422
33568SOL    HW1 4492  10.074   5.294   3.103  0.6672  0.8057 -0.2062
33568SOL    HW2 4493   9.980   5.364   3.006 -0.7386 -0.7598 -0.0113
33569SOL     OW 4494   9.035   6.016   1.332 -0.2906 -0.1480 -0.1171
33569SOL    HW1 4495   9.125   6.023   1.300  0.5347 -1.4519  1.7635
33569SOL    HW2 4496   8.994   6.099   1.306  1.3205  0.3027 -1.3578
33570SOL     OW 4497   5.622   1.505   7.117 -0.7785  0.2208  0.0288
33570SOL    HW1 4498   5.704   1.461   7.093 -0.8014  0.7497 -1.0548
33570SOL    HW2 4499   5.566   1.435   7.151 -0.6515 -0.5204 -1.2442
33571SOL     OW 4500   0.076   6.896   1.677 -0.2504 -0.3305  0.5607
33571SOL    HW1 4501   0.028   6.975   1.700  0.6704  0.4108  0.0187
33571SOL    HW2 4502   0.033   6.864   1.598 -0.1822  0.0322  0.3755
33572SOL     OW 4503   6.825   5.557   9.316  0.7023  0.2338 -0.1619
33572SOL    HW1 4504   6.751   5.523   9.267 -0.9907 -0.3759  2.6010
33572SOL    HW2 4505   6.821   5.652   9.304 -0.0637  0.1464 -0.6470
33573SOL     OW 4506   2.255  10.199   6.092 -0.2634 -0.4799  0.1596
33573SOL    HW1 4507   2.239  10.293   6.091 -1.1946 -0.6201 -1.2584
33573SOL    HW2 4508   2.260  10.177   6.185 -2.0653  0.6515  0.5888
33574SOL     OW 4509   9.750   4.086   4.866 -0.1172 -0.1191 -0.5415
33574SOL    HW1 4510   9.825   4.035   4.835 -0.7914 -0.9767 -0.8093
33574SOL    HW2 4511   9.776   4.177   4.854 -0.5372 -0.3528 -4.2665
33575SOL     OW 4512   6.792   9.132  10.096  0.1617  0.1139 -0.2342
33575SOL    HW1 4513   6.714   9.136  10.151 -0.2343  0.6224 -0.8334
33575SOL    HW2 4514   6.777   9.057  10.038  0.7753 -0.7035  0.6152
33576SOL     OW 4515   5.561   9.055   0.515  0.2076 -0.5197 -0.1594
33576SOL    HW1 4516   5.607   9.124   0.562 -1.0813 -0.1151  0.5630
33576SOL    HW2 4517   5.630   8.999   0.479  1.2390  0.2344  0.6121
33577SOL     OW 4518   3.133   0.692   7.854 -0.0637 -0.6040  0.2695
33577SOL    HW1 4519   3.151   0.786   7.848 -0.6412 -0.4309  1.0613
33577SOL    HW2 4520   3.130   0.662   7.763 -3.3022  0.8331 -0.2492
33578SOL     OW 4521   8.461   9.180   3.697  0.1057  0.4444 -0.0558
33578SOL    HW1 4522   8.442   9.215   3.610 -1.0154 -0.3137 -0.1383
33578SOL    HW2 4523   8.510   9.099   3.681  1.2704  1.1033  0.0832
33579SOL     OW 4524   9.773   2.980   6.097 -0.5983 -0.1476  0.1561
33579SOL    HW1 4525   9.750   2.892   6.124 -0.7250 -0.2535 -0.2844
33579SOL    HW2 4526   9.851   2.969   6.042 -0.2545  0.0766  0.5929
33580SOL     OW 4527   0.284   9.793   9.358  0.0382 -0.1232 -0.1273
33580SOL    HW1 4528   0.286   9.882   9.395  0.7927 -0.1132 -0.1769
33580SOL    HW2 4529   0.196   9.784   9.323  0.2725  1.0311 -1.1065
33581SOL     OW 4530   9.607   2.788   4.500 -0.4103  0.2458 -0.0750
33581SOL    HW1 4531   9.515   2.767   4.519 -0.1102 -0.4244  0.7395
33581SOL    HW2 4532   9.656   2.715   4.539  0.4101  0.0299 -1.4759
33582SOL     OW 4533   6.406   3.285   6.119  0.1007 -0.1103 -0.5250
33582SOL    HW1 4534   6.438   3.356   6.063 -1.9230  0.5751 -0.9116
33582SOL    HW2 4535   6.402   3.324   6.207 -2.6040  0.9225 -1.0013
33583SOL     OW 4536   3.408   6.274   8.164 -0.1109  0.3199 -0.0880
33583SOL    HW1 4537   3.498   6.292   8.193  0.3590  0.5472 -1.5939
33583SOL    HW2 4538   3.404   6.179   8.155 -0.2606  0.2465  0.6711
33584SOL     OW 4539   8.123   0.608   2.279  0.1523  0.2656  0.1655
33584SOL    HW1 4540   8.163   0.528   2.313  1.0618  0.2602 -0.8627
33584SOL    HW2 4541   8.039   0.614   2.325 -0.0677 -1.4389  0.0520
33585SOL     OW 4542   2.234   7.609   6.976 -0.0811 -0.2315  0.1155
33585SOL    HW1 4543   2.277   7.532   7.012  0.4970  0.2677  0.5184
33585SOL    HW2 4544   2.160   7.575   6.926  0.5159 -1.0804 -0.2048
33586SOL     OW 4545   7.345   9.482   0.987 -0.2612 -0.7186  0.3063
33586SOL    HW1 4546   7.386   9.567   1.002 -1.5991  0.0948 -0.3994
33586SOL    HW2 4547   7.415   9.419   1.000  0.6775  0.4591  1.2578
33587SOL     OW 4548   8.423   0.855   9.689 -0.1258 -0.1578  0.1664
33587SOL    HW1 4549   8.370   0.935   9.685  0.3813  0.1803  0.1380
33587SOL    HW2 4550   8.418   0.819   9.600 -0.5932 -0.3209  0.2541
33588SOL     OW 4551   6.155   6.710   3.061 -0.2895  0.4744  0.3814
33588SOL    HW1 4552   6.153   6.617   3.039 -2.0765  0.5086  0.2728
33588SOL    HW2 4553   6.123   6.715   3.151 -1.0502  1.0508  0.0906
33589SOL     OW 4554   4.608   4.723   6.889 -0.4478 -0.5476  0.1203
33589SOL    HW1 4555   4.691   4.697   6.849 -0.6676 -0.2476 -0.5385
33589SOL    HW2 4556   4.573   4.790   6.831 -1.5768 -1.2980 -0.1111
33590SOL     OW 4557   7.851  10.152   9.147 -0.4355  0.7124  0.2570
33590SOL    HW1 4558   7.877  10.102   9.070 -1.7324  1.2586 -0.5660
33590SOL    HW2 4559   7.932  10.164   9.196 -0.0083 -1.8609  0.3165
33591SOL     OW 4560   9.810   9.751   1.111 -0.5778  0.3127  0.1831
33591SOL    HW1 4561   9.723   9.767   1.148  0.4545  0.7986  2.6230
33591SOL    HW2 4562   9.870   9.767   1.184  1.4758 -1.5412 -0.9768
33592SOL     OW 4563   4.927   3.886   6.888 -0.1806 -0.4557  0.3176
33592SOL    HW1 4564   4.862   3.862   6.954  0.3740 -2.9494  0.0453
33592SOL    HW2 4565   4.982   3.809   6.879  0.3896  0.1565 -2.3386
33593SOL     OW 4566   9.880   3.734   0.676  0.0342 -0.6434 -0.3949
33593SOL    HW1 4567   9.851   3.643   0.669 -0.7863 -0.3533 -0.8661
33593SOL    HW2 4568   9.953   3.741   0.615  0.0454 -0.9666 -0.4164
33594SOL     OW 4569   7.722  10.100   1.064 -0.2327 -0.5082  0.0722
33594SOL    HW1 4570   7.723  10.028   1.127 -0.7663 -0.4719  0.1236
33594SOL    HW2 4571   7.781  10.165   1.101 -0.0344 -0.7608  0.2062
33595SOL     OW 4572   8.374   2.144   8.396 -0.3494  0.2196 -0.8314
33595SOL    HW1 4573   8.382   2.145   8.492 -1.8205 -1.5773 -0.6263
33595SOL    HW2 4574   8.456   2.106   8.365 -0.3055 -0.2063 -0.2087
33596SOL     OW 4575   4.290   7.796   3.880 -0.2602 -0.5957 -0.0969
33596SOL    HW1 4576   4.230   7.806   3.955  0.7459 -1.2881  0.8258
33596SOL    HW2 4577   4.266   7.868   3.822 -0.9755  0.0603  0.9562
33597SOL     OW 4578   3.356   1.678   3.092  0.2880 -0.9881  0.5700
33597SOL    HW1 4579   3.431   1.617   3.091  0.0354 -1.2858 -0.2691
33597SOL    HW2 4580   3.280   1.623   3.074  0.0058 -0.4802  0.2118
33598SOL     OW 4581   6.609   0.182   1.871 -0.1043 -0.1053 -0.5700
33598SOL    HW1 4582   6.529   0.182   1.819 -0.8206 -2.1785  0.4102
33598SOL    HW2 4583   6.661   0.110   1.837 -0.9091 -2.0046  1.8868
33599SOL     OW 4584   8.366   9.402   8.521 -0.3412 -0.1331  0.2979
33599SOL    HW1 4585   8.367   9.493   8.551 -1.0508 -0.1013  0.2476
33599SOL    HW2 4586   8.457   9.372   8.531 -0.0115  0.7083 -0.0784
33600SOL     OW 4587   6.600   0.697   0.057  0.4747 -0.1118  0.3362
33600SOL    HW1 4588   6.607   0.622  -0.002  1.6567  0.3354 -0.1175
33600SOL    HW2 4589   6.685   0.741   0.051  0.7054 -0.1360  2.4930
33601SOL     OW 4590   2.959   9.427   9.442 -0.0496 -1.0455 -0.1338
33601SOL    HW1 4591   2.944   9.492   9.511  0.6993  0.7665 -1.5697
33601SOL    HW2 4592   3.054   9.424   9.433 -0.1475 -0.6359 -1.5781
33602SOL     OW 4593   3.046   4.766   8.653  0.1819 -0.0707  0.2293
33602SOL    HW1 4594   3.109   4.695   8.666  1.7442  0.7837 -1.9385
33602SOL    HW2 4595   2.972   4.744   8.709  1.8787 -1.7964  1.9324
33603SOL     OW 4596   9.338   5.928   0.899  0.0746 -0.3828  0.0232
33603SOL    HW1 4597   9.414   5.928   0.956  0.8324 -2.5072 -0.8958
33603SOL    HW2 4598   9.279   5.863   0.936 -0.6944  0.2534 -0.0513
33604SOL     OW 4599   7.412   5.457   8.480 -0.3399 -0.2778 -0.5706
33604SOL    HW1 4600   7.324   5.419   8.492  0.0622 -1.2321 -0.5331
33604SOL    HW2 4601   7.469   5.381   8.467  0.1280  0.3938 -2.9207
33605SOL     OW 4602   7.319   1.337   0.516  0.0915  0.0366  0.1721
33605SOL    HW1 4603   7.245   1.297   0.470 -0.6316  2.5157 -0.9478
33605SOL    HW2 4604   7.396   1.307   0.467 -0.5321  1.0581 -1.5039
33606SOL     OW 4605   0.698   5.301   8.280 -0.8544 -0.2513  0.5197
33606SOL    HW1 4606   0.609   5.336   8.277 -0.6812  0.1215 -1.7649
33606SOL    HW2 4607   0.686   5.207   8.294 -1.5383 -0.0415  1.4305
33607SOL     OW 4608   4.901   4.061   5.906  0.5102 -0.0196 -0.0281
33607SOL    HW1 4609   4.824   4.027   5.860  0.7347 -0.2771 -0.2183
33607SOL    HW2 4610   4.916   3.998   5.976  0.5771  0.0004 -0.0243
33608SOL     OW 4611   5.941   0.465   0.551 -0.1201 -0.0513  0.1610
33608SOL    HW1 4612   5.910   0.450   0.462  1.0914  0.4657 -0.3690
33608SOL    HW2 4613   5.988   0.548   0.546 -0.3543  0.1756  1.3738
33609SOL     OW 4614   7.992   2.005   9.950 -0.4562  0.0524  0.0119
33609SOL    HW1 4615   8.051   1.947   9.902 -0.0258 -0.8356  1.5313
33609SOL    HW2 4616   7.933   2.041   9.883  0.5369 -0.5979 -1.2464
33610SOL     OW 4617   8.921   3.491   8.596  0.3454 -0.1212 -0.3343
33610SOL    HW1 4618   8.869   3.463   8.672  0.2867  0.2495 -0.2335
33610SOL    HW2 4619   8.897   3.583   8.584 -0.0799 -0.3372 -1.1637
33611SOL     OW 4620   9.962   5.812   2.171 -0.0734  0.0781 -0.3656
33611SOL    HW1 4621   9.923   5.845   2.252  1.7459 -1.4157  1.2082
33611SOL    HW2 4622   9.940   5.719   2.169 -0.0057  0.0685 -1.5408
33612SOL     OW 4623   7.044   3.652   7.473  0.3642  0.7533 -0.3447
33612SOL    HW1 4624   6.984   3.716   7.511  0.2227  1.0393 -1.0300
33612SOL    HW2 4625   6.986   3.588   7.431  0.4900 -0.0641  0.6786
33613SOL     OW 4626   5.550   0.229   5.823 -0.1367  0.3479 -0.8531
33613SOL    HW1 4627   5.597   0.149   5.800  0.8523  0.4223  0.7894
33613SOL    HW2 4628   5.486   0.201   5.888  1.7276  1.1759  1.4752
33614SOL     OW 4629   7.065   6.930   5.954  0.3080  1.2794  0.0839
33614SOL    HW1 4630   7.097   6.878   5.880 -2.0028  1.1174 -0.8789
33614SOL    HW2 4631   7.139   6.931   6.016  1.4863 -0.5709 -1.1703
33615SOL     OW 4632   0.082   3.487   0.477  0.1311 -0.0222  0.3104
33615SOL    HW1 4633   0.026   3.421   0.517 -0.4579  0.9064  1.0623
33615SOL    HW2 4634   0.055   3.570   0.518 -1.0060  1.1133 -2.4547
33616SOL     OW 4635   9.317   9.498   3.081 -0.3946 -0.3640  0.1466
33616SOL    HW1 4636   9.271   9.564   3.029  0.7251  0.6642  0.4082
33616SOL    HW2 4637   9.384   9.547   3.128  1.1262 -1.8077 -0.3949
33617SOL     OW 4638   9.209   7.577   9.915  0.1410  0.0693 -0.4562
33617SOL    HW1 4639   9.144   7.510   9.937  0.0918 -0.0001 -0.8163
33617SOL    HW2 4640   9.293   7.534   9.934  0.1292 -0.2688 -1.1474
33618SOL     OW 4641   9.963   4.912   3.807  0.2156 -0.5979  0.3245
33618SOL    HW1 4642   9.867   4.913   3.815 -0.3788  3.3961 -3.5180
33618SOL    HW2 4643   9.993   4.980   3.866  0.2132  0.6048 -1.0134
33619SOL     OW 4644   7.745   6.598   1.213  0.0100  0.1879 -0.2760
33619SOL    HW1 4645   7.807   6.669   1.197 -1.1614  0.9421 -1.6663
33619SOL    HW2 4646   7.799   6.519   1.213  1.1418  0.9409 -0.0920
33620SOL     OW 4647   0.187   4.050   3.883  0.2708 -0.3624  0.4198
33620SOL    HW1 4648   0.197   3.974   3.826 -1.7216 -1.0971  0.9565
33620SOL    HW2 4649   0.214   4.124   3.829  1.6479 -1.3611 -0.3199
33621SOL     OW 4650   0.553   1.603   1.156  0.0194 -0.0213 -0.3125
33621SOL    HW1 4651   0.611   1.530   1.135  3.8664  2.7934 -0.5721
33621SOL    HW2 4652   0.548   1.653   1.074 -2.8476 -0.0507 -0.2534
33622SOL     OW 4653   3.027   6.597   2.648  0.7304  0.1796 -0.2385
33622SOL    HW1 4654   3.117   6.565   2.652  0.6282 -0.0559  0.1467
33622SOL    HW2 4655   2.984   6.538   2.586  0.3149 -1.0076  1.1243
33623SOL     OW 4656   6.797   1.541   4.949  0.4255 -0.3336  0.3565
33623SOL    HW1 4657   6.713   1.497   4.936 -0.2510  0.6208  1.3441
33623SOL    HW2 4658   6.854   1.504   4.881 -0.8786 -0.7502 -0.5501
33624SOL     OW 4659   8.273   2.897   4.909 -0.3042 -0.4072 -0.3183
33624SOL    HW1 4660   8.330   2.974   4.910 -1.4837  0.4953  0.6565
33624SOL    HW2 4661   8.278   2.863   4.999 -1.0724 -0.4872 -0.3044
33625SOL     OW 4662   0.381   2.726   2.914 -0.0296  0.2638 -0.6059
33625SOL    HW1 4663   0.427   2.805   2.943 -0.5525  0.8941 -1.4236
33625SOL    HW2 4664   0.449   2.659   2.909  0.4211  0.6492  0.1253
33626SOL     OW 4665   9.041   9.780   7.730 -0.5700  0.1444 -0.0624
33626SOL    HW1 4666   9.054   9.688   7.706  0.5888 -0.0699  1.2308
33626SOL    HW2 4667   8.991   9.818   7.658  0.1732 -1.1661 -1.3005
33627SOL     OW 4668   9.240   0.917   0.141  0.4611  0.0930 -0.2078
33627SOL    HW1 4669   9.231   0.941   0.049 -1.4310  2.2717  0.4438
33627SOL    HW2 4670   9.214   0.825   0.145 -0.2336  0.2009 -1.7226
33628SOL     OW 4671   4.534   6.771  10.209 -0.0924 -0.2926  0.7745
33628SOL    HW1 4672   4.551   6.858  10.245  1.0223  0.1335 -0.7070
33628SOL    HW2 4673   4.544   6.781  10.115 -1.1508 -1.7771  0.4577
33629SOL     OW 4674   4.271   9.209   3.958  0.3452  0.6583 -0.5566
33629SOL    HW1 4675   4.250   9.278   4.020  0.1554  0.7394 -0.7098
33629SOL    HW2 4676   4.223   9.133   3.989  0.4368  0.6355 -0.4711
33630SOL     OW 4677   9.395   4.032   3.706  0.2917  0.0136 -0.3339
33630SOL    HW1 4678   9.425   4.010   3.617 -1.0412 -0.3694 -0.7117
33630SOL    HW2 4679   9.474   4.028   3.759  1.2094  0.6879 -1.5825
33631SOL     OW 4680   4.213   1.234   9.284  0.0919  0.1248  0.1265
33631SOL    HW1 4681   4.202   1.244   9.190 -1.4624  1.9628  0.4441
33631SOL    HW2 4682   4.128   1.256   9.321  0.5385 -1.0134  1.9510
33632SOL     OW 4683   0.713   8.043   7.701 -0.2446 -0.5784  0.1783
33632SOL    HW1 4684   0.776   7.971   7.696 -0.0658 -0.3342 -2.1183
33632SOL    HW2 4685   0.630   8.003   7.676 -0.9792 -0.7597  2.5974
33633SOL     OW 4686   8.451   3.690   4.251 -0.1579  0.2075  0.2018
33633SOL    HW1 4687   8.409   3.668   4.168  0.4855 -0.1798 -0.0272
33633SOL    HW2 4688   8.379   3.716   4.308 -0.5464  1.2316 -0.7099
33634SOL     OW 4689   3.801   5.281   7.799 -0.0219  0.5272  1.1857
33634SOL    HW1 4690   3.711   5.301   7.827  0.1250 -0.6779  2.6303
33634SOL    HW2 4691   3.852   5.356   7.829  0.1315 -0.6972  4.4180
33635SOL     OW 4692   5.476   6.265   7.178  0.1948  0.0742  0.1184
33635SOL    HW1 4693   5.472   6.331   7.109 -0.5254 -1.3787 -1.2929
33635SOL    HW2 4694   5.415   6.197   7.150  1.3483 -1.4811  1.2002
33636SOL     OW 4695   8.647   2.824   9.900  0.2968 -0.3419  0.2160
33636SOL    HW1 4696   8.617   2.738   9.930  1.1146 -0.3319  1.0882
33636SOL    HW2 4697   8.682   2.867   9.978  1.1824  0.2449 -0.4777
33637SOL     OW 4698   5.044   6.699   2.199  0.4280 -0.3476 -0.0567
33637SOL    HW1 4699   5.055   6.749   2.280 -3.7926  4.3740 -1.8483
33637SOL    HW2 4700   5.113   6.730   2.142 -0.0729  0.9308 -0.0116
33638SOL     OW 4701   9.397   7.425   6.448 -0.1046 -1.0029  0.6724
33638SOL    HW1 4702   9.402   7.345   6.500  1.7325 -2.2022 -1.1816
33638SOL    HW2 4703   9.485   7.463   6.454 -0.5938  0.2166  0.4973
33639SOL     OW 4704   3.827   6.481   6.163 -0.0878 -0.3331 -0.3115
33639SOL    HW1 4705   3.751   6.484   6.221  0.6187 -1.2915  0.7401
33639SOL    HW2 4706   3.793   6.447   6.080 -0.9783  0.2258 -0.1866
33640SOL     OW 4707   8.924   1.449   2.328 -0.1443 -0.5470  0.6135
33640SOL    HW1 4708   8.834   1.419   2.316 -0.3532 -0.1031  1.0557
33640SOL    HW2 4709   8.976   1.369   2.336 -0.4269 -0.8111 -0.1445
33641SOL     OW 4710   7.697   0.728   6.188  0.5839  0.3515  0.1225
33641SOL    HW1 4711   7.786   0.754   6.164  0.7434  0.2259  0.5821
33641SOL    HW2 4712   7.642   0.770   6.122  0.6987  2.9462  1.5483
33642SOL     OW 4713   6.230   2.030   9.025 -0.2435  0.7706  0.4743
33642SOL    HW1 4714   6.308   2.040   9.079  0.3680  1.0791 -0.4374
33642SOL    HW2 4715   6.168   1.984   9.081  0.5638  0.5814  1.2404
33643SOL     OW 4716   5.099   8.630   3.396 -0.3481  0.4329  0.0261
33643SOL    HW1 4717   5.053   8.640   3.479  0.4338 -0.0270  0.5282
33643SOL    HW2 4718   5.031   8.640   3.329 -2.2799 -4.6598  0.7372
33644SOL     OW 4719   1.693   7.967   3.257 -0.0046 -0.0703  0.8290
33644SOL    HW1 4720   1.788   7.978   3.266 -0.2434  2.1119  1.0697
33644SOL    HW2 4721   1.666   7.927   3.340  0.8066 -1.7113  0.3392
33645SOL     OW 4722   0.315   3.630   5.086 -0.1537 -0.6080 -0.2741
33645SOL    HW1 4723   0.278   3.691   5.022  0.1692  0.8872  0.8975
33645SOL    HW2 4724   0.386   3.680   5.128  0.1147 -1.7925  0.7420
33646SOL     OW 4725   2.916   3.525   9.905 -0.9152  0.3673 -0.5239
33646SOL    HW1 4726   2.887   3.615   9.886  0.2505  0.5041 -1.8814
33646SOL    HW2 4727   2.890   3.475   9.828 -0.6567 -0.2420 -0.2205
33647SOL     OW 4728   7.021   2.764   1.455  0.0405  0.1901 -0.3349
33647SOL    HW1 4729   6.974   2.841   1.486  1.3180  0.6047  0.6363
33647SOL    HW2 4730   7.091   2.750   1.519 -1.0482 -2.6900  0.3718
33648SOL     OW 4731   6.809   3.153   6.991  0.3867 -0.0764  0.6122
33648SOL    HW1 4732   6.755   3.225   6.958 -0.3573 -0.6265  0.6046
33648SOL    HW2 4733   6.759   3.075   6.972  0.9275 -0.5626  1.1399
33649SOL     OW 4734   1.452   4.203   7.736  0.2243 -0.1625  0.1768
33649SOL    HW1 4735   1.467   4.275   7.675  2.0293  0.4520  1.2517
33649SOL    HW2 4736   1.373   4.160   7.704 -0.2606  1.6045 -1.1489
33650SOL     OW 4737   8.340   5.385   8.975  0.5287  0.6500 -0.1414
33650SOL    HW1 4738   8.353   5.373   9.069 -0.7066 -1.2759 -0.1584
33650SOL    HW2 4739   8.255   5.429   8.968  0.7183  0.9841 -0.3468
33651SOL     OW 4740   7.461   6.796   0.839  0.1345 -0.4487 -0.8267
33651SOL    HW1 4741   7.465   6.880   0.885 -1.9609  0.0661 -1.4881
33651SOL    HW2 4742   7.530   6.800   0.774 -0.3591  1.0516 -1.2833
33652SOL     OW 4743   5.947   4.221   8.276  0.1051  0.5209  0.0150
33652SOL    HW1 4744   5.906   4.279   8.340 -0.7454  1.5609 -1.4150
33652SOL    HW2 4745   5.885   4.149   8.265 -0.3209  0.9569 -0.5032
33653SOL     OW 4746   2.875   0.116   5.453 -0.0373 -0.1143  0.7717
33653SOL    HW1 4747   2.878   0.189   5.514 -1.0501  2.5775 -2.1407
33653SOL    HW2 4748   2.957   0.122   5.404  0.6686 -2.0975  1.5733
33654SOL     OW 4749   2.582   5.671   1.280 -0.2681 -0.2378  0.2592
33654SOL    HW1 4750   2.541   5.668   1.366 -1.6660  0.4693 -0.3570
33654SOL    HW2 4751   2.658   5.728   1.291  0.2445 -1.0734  1.2689
33655SOL     OW 4752   5.219   6.840   6.225  0.0267  0.1689  0.1201
33655SOL    HW1 4753   5.301   6.793   6.237 -0.5177 -0.4317  1.6823
33655SOL    HW2 4754   5.192   6.864   6.314 -0.5653  1.9845 -0.5013
33656SOL     OW 4755   2.451   3.027   3.644 -0.2199 -0.2082 -0.6017
33656SOL    HW1 4756   2.543   3.016   3.622  0.9181  1.6426  2.6192
33656SOL    HW2 4757   2.422   2.941   3.673  1.1918 -0.3355  0.4986
33657SOL     OW 4758   3.534   8.362   3.170 -0.6340  0.3141  0.9336
33657SOL    HW1 4759   3.481   8.430   3.212 -0.7388  0.4114  0.6490
33657SOL    HW2 4760   3.615   8.406   3.147 -0.3981  0.1503  1.4237
33658SOL     OW 4761   3.182   5.424   4.633  0.3386 -0.0107  0.3776
33658SOL    HW1 4762   3.094   5.455   4.614  0.7428  0.0502 -1.6869
33658SOL    HW2 4763   3.238   5.476   4.575  1.8231  0.4008  2.0907
33659SOL     OW 4764   4.855   1.809   5.278 -0.2068  0.0754 -0.6567
33659SOL    HW1 4765   4.939   1.852   5.264  0.0177  1.1109  2.9157
33659SOL    HW2 4766   4.860   1.774   5.367 -2.5983 -2.2360 -1.2830
33660SOL     OW 4767   5.918   6.220   9.709  0.2806  0.2393 -0.3463
33660SOL    HW1 4768   5.865   6.300   9.721 -0.3139 -0.1829 -0.1028
33660SOL    HW2 4769   5.904   6.197   9.617  1.6584  1.2466 -0.8389
33661SOL     OW 4770   3.437   3.476   6.283 -0.4683  0.1828 -0.5520
33661SOL    HW1 4771   3.405   3.500   6.370 -1.8597 -0.3470 -0.8871
33661SOL    HW2 4772   3.437   3.558   6.234 -0.2128  0.3860 -0.2166
33662SOL     OW 4773   9.729   2.638   0.949 -0.0741 -0.0325 -0.0363
33662SOL    HW1 4774   9.713   2.692   0.872 -0.5154 -0.3169 -0.1506
33662SOL    HW2 4775   9.645   2.638   0.995 -0.2513 -1.0871 -0.3380
33663SOL     OW 4776   6.239   6.704   6.743  0.1035  0.3784  0.4796
33663SOL    HW1 4777   6.233   6.685   6.650 -1.0568 -1.8912  0.9300
33663SOL    HW2 4778   6.177   6.775   6.757  0.0509  0.5192 -0.4130
33664SOL     OW 4779   9.793   2.978  10.315  0.1811 -0.4054  0.3691
33664SOL    HW1 4780   9.789   3.028  10.234 -0.3544 -1.8382 -0.5316
33664SOL    HW2 4781   9.811   3.043  10.383  2.8254  0.5877 -1.1348
33665SOL     OW 4782   5.575   6.997   0.763 -0.1615  0.7822 -0.7407
33665SOL    HW1 4783   5.550   6.999   0.855  0.3072  0.4045 -0.6024
33665SOL    HW2 4784   5.535   7.075   0.725  0.2887  1.3532 -0.0494
33666SOL     OW 4785   7.820   6.339   6.650  0.2094  0.2711  0.0624
33666SOL    HW1 4786   7.857   6.421   6.618  1.1922  0.1255  0.7731
33666SOL    HW2 4787   7.730   6.339   6.619  0.9765  0.3077 -2.3725
33667SOL     OW 4788   2.211   3.873   4.266  0.5914  0.1459  0.0104
33667SOL    HW1 4789   2.248   3.824   4.339  1.2064 -0.5620 -0.7567
33667SOL    HW2 4790   2.256   3.957   4.268 -0.0744  0.5013  0.9975
33668SOL     OW 4791   9.315   9.515   0.660  0.2047 -0.4593  0.8866
33668SOL    HW1 4792   9.397   9.562   0.642 -0.2756  0.1233  0.1239
33668SOL    HW2 4793   9.248   9.569   0.618 -0.2712 -2.3014 -0.8741
33669SOL     OW 4794   2.207   3.739   8.154  0.5646  0.4271  0.0578
33669SOL    HW1 4795   2.161   3.657   8.174 -0.4570  1.2833  1.3720
33669SOL    HW2 4796   2.148   3.786   8.096 -0.1911  1.4484  1.5978
33670SOL     OW 4797   5.095   5.621   4.926 -0.5374  0.4794 -0.2846
33670SOL    HW1 4798   5.150   5.561   4.977 -1.0316  0.0015 -0.3017
33670SOL    HW2 4799   5.010   5.578   4.923 -0.3293  0.0889 -2.1708
33671SOL     OW 4800   1.099   1.564   7.302 -0.3029  0.5201 -0.2373
33671SOL    HW1 4801   1.006   1.555   7.323 -1.0048 -0.9351 -3.2587
33671SOL    HW2 4802   1.137   1.479   7.324 -0.4026  0.0587 -1.7169
33672SOL     OW 4803   5.452   4.032   4.917 -0.0126 -0.1867  0.7921
33672SOL    HW1 4804   5.455   3.972   4.992 -0.2922 -1.2922 -0.0506
33672SOL    HW2 4805   5.359   4.050   4.905  0.1531  2.3987  2.5058
33673SOL     OW 4806   5.963   3.023   1.679 -0.1047  0.4986 -0.3604
33673SOL    HW1 4807   5.955   3.119   1.682  1.1041  0.6347 -1.1102
33673SOL    HW2 4808   5.955   2.996   1.771 -1.7079  1.1923 -0.2651
33674SOL     OW 4809   2.151   8.436  10.353  0.3787  0.4973 -0.2226
33674SOL    HW1 4810   2.059   8.446  10.377 -0.0508  1.8092 -2.1452
33674SOL    HW2 4811   2.163   8.342  10.346 -1.1016  0.3173 -0.8443
33675SOL     OW 4812   1.279   1.010   2.367  0.2734 -0.0600 -0.6728
33675SOL    HW1 4813   1.249   1.067   2.296 -1.0529  1.4475  0.9857
33675SOL    HW2 4814   1.201   0.995   2.420  1.5390  0.3622  1.4415
33676SOL     OW 4815   6.773   7.338   0.588  0.2916 -0.0806 -0.3865
33676SOL    HW1 4816   6.775   7.420   0.539  0.2303 -0.6974 -1.4373
33676SOL    HW2 4817   6.837   7.351   0.658  1.1889  0.4217 -1.2722
33677SOL     OW 4818   9.570   6.281   8.516  0.0552 -0.3905 -0.0230
33677SOL    HW1 4819   9.531   6.196   8.537  3.6429 -1.9917  1.1245
33677SOL    HW2 4820   9.565   6.330   8.598  0.6764 -0.7576  0.2500
33678SOL     OW 4821   9.269   0.410   3.142  0.5566 -0.3469  0.2987
33678SOL    HW1 4822   9.306   0.496   3.121  1.8029 -0.6044  1.2902
33678SOL    HW2 4823   9.183   0.429   3.178  0.4301  0.4136 -0.3751
33679SOL     OW 4824   1.136   5.119   3.191 -0.1254 -0.3408  0.3171
33679SOL    HW1 4825   1.164   5.120   3.100 -1.0377 -0.3992  0.0244
33679SOL    HW2 4826   1.044   5.092   3.188  0.5052 -2.9608  1.4373
33680SOL     OW 4827   9.499   6.822   0.577  0.3246  0.2103 -0.4287
33680SOL    HW1 4828   9.473   6.887   0.512  2.7053  0.8175 -0.8946
33680SOL    HW2 4829   9.492   6.867   0.661  1.7167  1.0563 -0.7264
33681SOL     OW 4830   0.188   5.966   6.173 -0.6144  0.3218 -0.0753
33681SOL    HW1 4831   0.166   5.890   6.227 -1.7984  1.3815  1.0398
33681SOL    HW2 4832   0.258   6.010   6.221 -1.2397  0.9272  0.3220
33682SOL     OW 4833  10.073   6.289   9.085 -1.1200  0.4916  0.2423
33682SOL    HW1 4834  10.009   6.241   9.033 -1.4925  0.1120  1.0338
33682SOL    HW2 4835  10.065   6.252   9.173  1.0695 -0.4626  0.1099
33683SOL     OW 4836   3.510   8.049   7.152  0.0999 -0.1283  0.2695
33683SOL    HW1 4837   3.483   8.038   7.243  0.4612 -0.1177  0.3814
33683SOL    HW2 4838   3.430   8.040   7.101  0.0872 -1.4360  0.4930
33684SOL     OW 4839   0.617   5.790   5.501 -0.4075 -0.0473  0.4044
33684SOL    HW1 4840   0.557   5.809   5.572  0.7174  1.8971  0.9027
33684SOL    HW2 4841   0.682   5.730   5.539 -0.9916 -0.7267  0.3624
33685SOL     OW 4842   7.954   4.290   0.980  0.6389  0.1119 -0.2090
33685SOL    HW1 4843   7.965   4.377   1.016 -0.5878 -0.5580  1.9316
33685SOL    HW2 4844   7.862   4.285   0.956  0.8696 -0.3485 -1.0358
33686SOL     OW 4845   3.005   9.934   2.746  0.3083 -0.1610 -0.1655
33686SOL    HW1 4846   2.938   9.954   2.681 -1.6198 -0.5902  1.5806
33686SOL    HW2 4847   3.027   9.842   2.731  0.1916 -0.1379 -0.4823
33687SOL     OW 4848   3.953   3.398   2.794  0.7631 -0.5759 -0.0247
33687SOL    HW1 4849   3.875   3.451   2.778  2.8289  2.8830  0.3439
33687SOL    HW2 4850   3.956   3.387   2.889  1.5974  0.9086  0.1523
33688SOL     OW 4851   8.717  10.170   5.388 -0.3202  0.3718 -0.1773
33688SOL    HW1 4852   8.739  10.236   5.453  0.1536 -1.6684  1.8968
33688SOL    HW2 4853   8.670  10.218   5.319 -2.5317  2.4341  2.5290
33689SOL     OW 4854   2.611   4.872   3.700 -0.1821 -0.5622 -0.1635
33689SOL    HW1 4855   2.615   4.924   3.780  0.9622  2.0731 -1.7804
33689SOL    HW2 4856   2.699   4.834   3.691  0.3077  0.6873 -1.0273
33690SOL     OW 4857   6.078   0.044   1.482  0.0694  0.4252 -0.1834
33690SOL    HW1 4858   6.114  -0.039   1.451 -0.4840  0.5351 -1.1402
33690SOL    HW2 4859   6.070   0.098   1.403  0.9500  1.5977  0.4932
33691SOL     OW 4860   7.686   2.854   4.457 -0.1848  0.0855  0.2323
33691SOL    HW1 4861   7.646   2.919   4.514 -0.5411 -1.0930  1.3660
33691SOL    HW2 4862   7.779   2.855   4.481 -0.0224  0.7551 -0.3625
33692SOL     OW 4863   7.027   7.127   5.010  0.4134  0.2577  0.3390
33692SOL    HW1 4864   7.080   7.196   5.051 -0.4203  1.3727 -0.3815
33692SOL    HW2 4865   7.033   7.144   4.916  0.7976 -1.1289  0.0987
33693SOL     OW 4866   8.356   8.815   2.189 -0.0561 -0.0973 -0.2143
33693SOL    HW1 4867   8.319   8.897   2.221  2.5154  1.1003 -0.0674
33693SOL    HW2 4868   8.314   8.802   2.104 -1.7700  0.3994  0.5006
33694SOL     OW 4869   9.421   8.111   5.729 -0.4888 -0.1773 -0.3089
33694SOL    HW1 4870   9.326   8.120   5.723 -0.3856  0.4030 -1.3489
33694SOL    HW2 4871   9.455   8.164   5.657  0.7387  1.8713  1.6246
33695SOL     OW 4872  10.108   4.917   0.669  0.0451 -0.0495 -0.0683
33695SOL    HW1 4873  10.160   4.868   0.733  0.4444  0.5395  0.0651
33695SOL    HW2 4874  10.078   4.995   0.717 -2.0941 -1.0096  0.2691
33696SOL     OW 4875   0.939   1.050   8.866  0.5341 -0.7568 -0.4156
33696SOL    HW1 4876   0.980   1.103   8.797  1.1490 -0.2101  0.3507
33696SOL    HW2 4877   0.914   1.114   8.933  0.0338 -1.2979 -0.0812
33697SOL     OW 4878   4.958   1.496   9.878  0.1160 -0.0618 -0.4611
33697SOL    HW1 4879   4.937   1.450   9.959  0.1938  1.6057  0.5613
33697SOL    HW2 4880   4.898   1.460   9.813 -0.1023 -1.2767  0.3798
33698SOL     OW 4881   3.739   1.217   0.601 -0.1355 -0.0181 -0.0949
33698SOL    HW1 4882   3.745   1.269   0.681 -1.5152 -1.8783  1.3320
33698SOL    HW2 4883   3.828   1.185   0.585  0.2218  0.6770  0.4891
33699SOL     OW 4884   8.284   4.148   8.993 -0.0860 -0.1916 -0.3587
33699SOL    HW1 4885   8.233   4.219   8.954 -1.5449 -0.8858  0.2082
33699SOL    HW2 4886   8.240   4.129   9.076  1.0929 -0.8488  0.1468
33700SOL     OW 4887   9.116   6.398   9.563  0.2058 -0.2989  0.0778
33700SOL    HW1 4888   9.152   6.390   9.475  0.0349 -1.3660  0.0912
33700SOL    HW2 4889   9.044   6.335   9.566 -2.0671  2.1193 -0.1228
33701SOL     OW 4890   1.993   9.887  10.186 -0.6146 -0.5983 -0.0400
33701SOL    HW1 4891   2.011   9.900  10.279  0.0961  1.6972 -0.4325
33701SOL    HW2 4892   2.028   9.800  10.166 -0.8932 -1.1733  1.8367
33702SOL     OW 4893   4.302   4.368   8.917  0.5980  0.1990 -0.1301
33702SOL    HW1 4894   4.339   4.445   8.874 -0.8462  0.3339 -1.2089
33702SOL    HW2 4895   4.220   4.352   8.870  0.6493 -1.7302  0.3809
33703SOL     OW 4896   4.915   2.283   7.071  0.0817  0.2108 -0.1478
33703SOL    HW1 4897   4.865   2.361   7.046 -1.5785 -1.3338 -1.9480
33703SOL    HW2 4898   4.849   2.219   7.097  1.4442 -0.5017  1.8062
33704SOL     OW 4899   0.140   4.209   0.692  0.5795  0.0576 -0.6670
33704SOL    HW1 4900   0.108   4.285   0.741 -1.5909 -0.5671 -0.9857
33704SOL    HW2 4901   0.071   4.192   0.628  2.2208 -0.6340 -2.3359
33705SOL     OW 4902   9.542   0.330   2.663  0.1605  0.2388  0.2642
33705SOL    HW1 4903   9.502   0.353   2.747  0.2026  4.2448 -0.5854
33705SOL    HW2 4904   9.635   0.348   2.676  0.3571 -0.3566 -0.2864
33706SOL     OW 4905   2.289   4.525   2.314 -0.7688 -0.0422  0.0114
33706SOL    HW1 4906   2.201   4.532   2.351 -1.6479 -0.9461 -1.7917
33706SOL    HW2 4907   2.289   4.585   2.240 -0.4823 -1.2873 -1.0446
33707SOL     OW 4908   4.028   7.650  10.009  0.2536 -0.1969 -0.4542
33707SOL    HW1 4909   4.000   7.626  10.097  1.4194 -1.5976 -0.4225
33707SOL    HW2 4910   4.030   7.745  10.009  1.7087 -0.1643  1.5444
33708SOL     OW 4911   9.861   3.384   6.319  0.5186  0.0025  0.1030
33708SOL    HW1 4912   9.766   3.384   6.331  0.6962 -1.9154  1.9302
33708SOL    HW2 4913   9.890   3.468   6.355 -0.3994  0.2634  0.2577
33709SOL     OW 4914   3.282   1.344   0.715  0.6758 -0.1314  0.0670
33709SOL    HW1 4915   3.360   1.353   0.661  1.1671 -2.2874  0.3263
33709SOL    HW2 4916   3.294   1.408   0.786  0.5384  1.9506 -1.6718
33710SOL     OW 4917   9.306   8.844   1.216  0.6734 -0.2325  0.2289
33710SOL    HW1 4918   9.316   8.912   1.283  1.7025  0.9186 -1.0204
33710SOL    HW2 4919   9.344   8.884   1.137  0.8717 -2.1018 -0.6589
33711SOL     OW 4920   5.236   5.622   7.294 -0.4031 -0.3305  0.0080
33711SOL    HW1 4921   5.316   5.673   7.306  0.2902 -1.5190  0.5516
33711SOL    HW2 4922   5.265   5.538   7.261 -1.3243 -1.1739  1.2483
33712SOL     OW 4923   2.872   8.266   0.272  0.0714 -0.4525  0.3220
33712SOL    HW1 4924   2.834   8.272   0.184 -0.0462 -1.0128  0.3299
33712SOL    HW2 4925   2.966   8.272   0.259  0.0169  0.1627  0.2231
33713SOL     OW 4926   4.723   5.013   8.922 -0.2388  0.2887  0.3235
33713SOL    HW1 4927   4.703   5.106   8.932  0.4371  0.3357  1.4640
33713SOL    HW2 4928   4.812   5.004   8.957  0.0903 -0.6152 -0.6988
33714SOL     OW 4929   5.539   5.430   3.140 -0.3209 -0.0943  0.8846
33714SOL    HW1 4930   5.584   5.502   3.094  0.0472 -0.9419 -0.1292
33714SOL    HW2 4931   5.600   5.405   3.209  0.9970 -1.4560 -0.6860
33715SOL     OW 4932   1.733   1.191   4.211 -0.0746  0.7881  0.0046
33715SOL    HW1 4933   1.768   1.253   4.148  0.0631  1.4765  0.7320
33715SOL    HW2 4934   1.649   1.164   4.174 -0.2446  1.5902 -0.2186
33716SOL     OW 4935   2.167   1.729   6.731  0.2570 -0.5113 -0.3546
33716SOL    HW1 4936   2.102   1.672   6.771  0.5448 -0.2741  0.4682
33716SOL    HW2 4937   2.235   1.669   6.700 -0.1263 -0.7220 -0.8119
33717SOL     OW 4938   8.312   7.214   9.094 -0.2372 -0.1655  0.4579
33717SOL    HW1 4939   8.306   7.308   9.107  0.6906  0.0057 -0.2652
33717SOL    HW2 4940   8.298   7.177   9.182  0.3632  0.6883  0.9277
33718SOL     OW 4941   9.164   3.387   9.070 -0.3449 -0.4134  0.0310
33718SOL    HW1 4942   9.111   3.363   8.994  1.7371 -2.7893 -0.8253
33718SOL    HW2 4943   9.151   3.315   9.132 -1.6781  1.2920  1.8196
33719SOL     OW 4944   9.520   8.487   3.571 -0.0049  0.1720  0.8088
33719SOL    HW1 4945   9.466   8.410   3.551  0.5151 -0.2218  0.8986
33719SOL    HW2 4946   9.509   8.501   3.665 -0.8300  0.7739  0.6296
33720SOL     OW 4947   7.622   8.223   5.032 -0.3416 -0.1597 -0.2800
33720SOL    HW1 4948   7.707   8.217   5.074 -0.9799 -0.6202  0.9961
33720SOL    HW2 4949   7.579   8.140   5.050 -1.0160  0.0072 -1.0256
33721SOL     OW 4950   5.521   2.726   9.209  0.3508  0.2907  0.6252
33721SOL    HW1 4951   5.444   2.670   9.198 -0.1101  0.7461  1.4267
33721SOL    HW2 4952   5.587   2.689   9.151 -0.5654  0.0516 -0.2781
33722SOL     OW 4953   8.653   2.318   2.026  0.5097 -0.1617 -0.4615
33722SOL    HW1 4954   8.593   2.252   2.060 -3.3058  1.9898 -2.3009
33722SOL    HW2 4955   8.666   2.294   1.935  1.3492  0.1717 -0.4367
33723SOL     OW 4956   6.636   5.526   0.658 -0.3526  0.0522  0.1721
33723SOL    HW1 4957   6.565   5.532   0.723 -0.4422  0.0717  0.0727
33723SOL    HW2 4958   6.689   5.604   0.674  0.1351 -0.3968  0.8154
33724SOL     OW 4959   4.349   9.683   4.926  0.3766 -0.4498  0.1319
33724SOL    HW1 4960   4.271   9.733   4.949  0.3099 -1.4148  2.2406
33724SOL    HW2 4961   4.335   9.656   4.835 -1.6359 -0.4001  0.3898
33725SOL     OW 4962   1.511   3.109   6.114 -0.4202  0.2947 -0.1224
33725SOL    HW1 4963   1.524   3.017   6.138  1.2835  0.0672 -1.6351
33725SOL    HW2 4964   1.599   3.148   6.119 -0.5216  1.0287 -2.4560
33726SOL     OW 4965   3.505   4.858   1.821 -0.7375  0.2481 -0.5897
33726SOL    HW1 4966   3.479   4.918   1.752  0.0210  0.0910 -1.0248
33726SOL    HW2 4967   3.560   4.793   1.777  0.0131  0.3254  0.2089
33727SOL     OW 4968   7.598   4.432   1.315  0.0849 -0.0544 -0.1086
33727SOL    HW1 4969   7.513   4.451   1.275  0.3173  0.3354 -0.4191
33727SOL    HW2 4970   7.631   4.356   1.268  0.7402  0.9112 -1.2382
33728SOL     OW 4971   7.558   7.897   8.381 -0.1588  0.1686 -0.2159
33728SOL    HW1 4972   7.530   7.834   8.447 -0.0673  1.5836  1.2294
33728SOL    HW2 4973   7.650   7.877   8.365 -0.3283 -0.5354 -0.3569
33729SOL     OW 4974  10.186   5.425   7.983  0.1931  0.0690  0.2201
33729SOL    HW1 4975  10.107   5.442   7.931 -0.5030 -0.0148  1.2251
33729SOL    HW2 4976  10.175   5.479   8.061  0.6530 -0.7275  0.8379
33730SOL     OW 4977   0.959   1.420   4.203  0.1200  0.3980 -0.1843
33730SOL    HW1 4978   1.007   1.434   4.122  0.5926 -0.8392 -0.1423
33730SOL    HW2 4979   1.025   1.429   4.272 -0.4362  2.2829  0.1619
33731SOL     OW 4980   8.996   0.837   2.297 -0.5216 -0.9225  0.0888
33731SOL    HW1 4981   8.967   0.805   2.212  0.1955 -0.6029 -0.2875
33731SOL    HW2 4982   8.984   0.932   2.293  1.1120 -0.7013 -0.3197
33732SOL     OW 4983   0.208   4.898   3.845  0.0413  0.3023 -0.2119
33732SOL    HW1 4984   0.262   4.850   3.908  0.9546  0.2096 -1.0390
33732SOL    HW2 4985   0.269   4.960   3.804 -0.5418  0.3842 -0.9796
33733SOL     OW 4986   8.220   4.325   1.853 -0.4596  0.2264 -0.1696
33733SOL    HW1 4987   8.278   4.266   1.901  0.3668  1.8221  0.8970
33733SOL    HW2 4988   8.256   4.326   1.764 -0.3804 -0.6985 -0.1605
33734SOL     OW 4989   4.252   9.942   5.110 -0.3493  0.3248  0.0069
33734SOL    HW1 4990   4.202   9.863   5.091 -0.7731  0.4638  0.5263
33734SOL    HW2 4991   4.210  10.010   5.057  0.2342  0.1355 -0.7095
33735SOL     OW 4992   5.897   3.569   2.936  0.1322  0.1600  0.2745
33735SOL    HW1 4993   5.807   3.556   2.905 -0.1516  0.6600  0.8583
33735SOL    HW2 4994   5.889   3.572   3.031  0.5796  1.5430  0.2845
33736SOL     OW 4995   3.922  10.115   5.238  0.4855 -0.0348  0.4190
33736SOL    HW1 4996   3.873  10.127   5.157  1.1421 -0.1801 -0.0072
33736SOL    HW2 4997   3.902  10.193   5.290 -0.6475 -0.3627  0.4990
33737SOL     OW 4998   7.256   2.726   0.087  0.0378  0.3120  0.3168
33737SOL    HW1 4999   7.225   2.687   0.169  0.8482 -0.7940  0.1168
33737SOL    HW2 5000   7.340   2.766   0.110  1.0836 -1.4077 -0.2678
33738SOL     OW 5001   2.597   4.345   1.204  0.5772 -0.6417 -0.0480
33738SOL    HW1 5002   2.675   4.330   1.151  1.8234 -2.1208  2.0355
33738SOL    HW2 5003   2.609   4.289   1.281 -2.6411 -1.0899  0.2919
33739SOL     OW 5004   0.378   2.082   6.133  0.0939  0.1593  0.2036
33739SOL    HW1 5005   0.445   2.133   6.178 -0.2102  1.9742 -1.2453
33739SOL    HW2 5006   0.414   2.066   6.046 -1.8889  2.6702 -1.2311
33740SOL     OW 5007   0.080   9.886   8.278  0.4357 -0.2425  0.1513
33740SOL    HW1 5008  -0.005   9.917   8.307  0.4867 -1.2311  1.4493
33740SOL    HW2 5009   0.141   9.916   8.346  1.3576  1.4666 -1.3246
33741SOL     OW 5010   7.032   2.537   4.173  0.2033  0.8605 -0.4803
33741SOL    HW1 5011   7.009   2.449   4.141  1.8473 -0.0755  0.7718
33741SOL    HW2 5012   6.967   2.594   4.133 -2.6271 -1.2360  0.7073
33742SOL     OW 5013   5.573   2.821   3.003 -0.1019 -0.1916 -0.0184
33742SOL    HW1 5014   5.550   2.913   3.017  0.3018 -0.1457  0.3687
33742SOL    HW2 5015   5.503   2.772   3.047 -0.0861 -0.0666  0.1443
33743SOL     OW 5016   2.027   9.585   6.492 -0.5667  0.6495  0.1629
33743SOL    HW1 5017   1.950   9.591   6.436  0.7787  0.3734 -1.8209
33743SOL    HW2 5018   2.013   9.506   6.544 -2.1631  1.2911  0.7712
33744SOL     OW 5019   8.830   3.171   4.721  0.2571  0.1024 -0.0282
33744SOL    HW1 5020   8.742   3.206   4.732  0.2302 -0.0426  0.2317
33744SOL    HW2 5021   8.843   3.114   4.797 -0.3560 -1.8481 -1.3025
33745SOL     OW 5022   8.251   8.106   4.966 -0.4070 -0.5708  0.4533
33745SOL    HW1 5023   8.261   8.143   4.878 -0.8206 -0.2388  0.5434
33745SOL    HW2 5024   8.338   8.074   4.988 -0.7925 -2.7940 -1.0189
33746SOL     OW 5025   7.305   1.924  10.031  0.0733  0.0717 -0.2174
33746SOL    HW1 5026   7.325   1.875  10.111 -0.3691 -1.4782 -1.0218
33746SOL    HW2 5027   7.232   1.981  10.056 -1.2655 -1.6980  0.0395
33747SOL     OW 5028   8.771   8.312   3.527  0.7027  0.0002  0.4180
33747SOL    HW1 5029   8.843   8.326   3.589  2.8449 -0.5381 -1.7957
33747SOL    HW2 5030   8.766   8.395   3.478 -1.0247  0.4561  1.2950
33748SOL     OW 5031   4.590   9.193   9.028  0.2273  0.3939  0.0091
33748SOL    HW1 5032   4.578   9.143   8.947 -1.6991 -1.5873  1.3874
33748SOL    HW2 5033   4.674   9.163   9.063  0.2990  0.0431 -0.4629
33749SOL     OW 5034   4.214   1.773   2.707  0.0967 -0.8110  0.0949
33749SOL    HW1 5035   4.172   1.766   2.622 -0.1670  1.5558 -0.0564
33749SOL    HW2 5036   4.245   1.864   2.711  0.6044 -1.0128  2.2828
33750SOL     OW 5037   9.809   1.303   9.427 -0.7023  0.0707  0.3418
33750SOL    HW1 5038   9.893   1.289   9.470  0.5539 -1.9824 -2.4778
33750SOL    HW2 5039   9.815   1.392   9.391  0.8578 -0.4952 -0.8988
33751SOL     OW 5040   0.772   3.179   7.169 -0.1224  0.4128 -0.2216
33751SOL    HW1 5041   0.711   3.156   7.239  0.0908 -1.8152 -0.7047
33751SOL    HW2 5042   0.826   3.249   7.206 -0.1285 -0.5795  1.7995
33752SOL     OW 5043   2.768   8.296   4.743  0.6879 -0.0854  0.1064
33752SOL    HW1 5044   2.740   8.255   4.661  1.2004 -0.1667 -0.0277
33752SOL    HW2 5045   2.836   8.359   4.717  0.0597  0.7117  0.3291
33753SOL     OW 5046   3.167   8.639   0.826 -0.0275 -0.6708  0.7032
33753SOL    HW1 5047   3.137   8.596   0.906 -1.7747  2.1193  1.7032
33753SOL    HW2 5048   3.104   8.611   0.759 -1.3443  0.4886  1.4145
33754SOL     OW 5049   7.743   3.392   1.439 -0.1393  0.0467  0.0816
33754SOL    HW1 5050   7.834   3.407   1.414  0.0824  2.1849  1.7980
33754SOL    HW2 5051   7.708   3.480   1.453 -2.0691 -0.7794  0.7594
33755SOL     OW 5052   2.349   7.340   8.948 -0.1717 -0.3069 -0.6364
33755SOL    HW1 5053   2.351   7.245   8.935  2.3450 -0.4065 -0.1196
33755SOL    HW2 5054   2.428   7.372   8.905  0.8689  1.0946  2.0583
33756SOL     OW 5055   4.700   0.891   7.668 -0.5167 -0.1333  0.4203
33756SOL    HW1 5056   4.728   0.870   7.579  2.5206 -0.9421  1.4509
33756SOL    HW2 5057   4.669   0.808   7.704  2.7407 -1.0617  1.4978
33757SOL     OW 5058   4.412   4.011   1.616  0.0468 -0.1060  0.6209
33757SOL    HW1 5059   4.475   4.083   1.605 -0.2544  0.0389 -0.2040
33757SOL    HW2 5060   4.425   3.956   1.538 -0.3152 -0.4912  0.8309
33758SOL     OW 5061   9.838   6.358   9.522  0.2686 -0.2993  0.5077
33758SOL    HW1 5062   9.832   6.391   9.612  1.1389  0.1382  0.4118
33758SOL    HW2 5063   9.851   6.436   9.469  1.0212 -0.6672  0.1328
33759SOL     OW 5064   7.821   3.322   5.761 -0.2763 -0.0745  0.0071
33759SOL    HW1 5065   7.784   3.404   5.730 -1.2871 -0.6217 -0.2701
33759SOL    HW2 5066   7.867   3.345   5.842  2.7226  1.4607 -1.9617
33760SOL     OW 5067   9.187   3.948   9.417  0.0683  0.1249  0.1237
33760SOL    HW1 5068   9.155   3.859   9.428  2.0360 -0.7068 -0.5379
33760SOL    HW2 5069   9.116   3.994   9.372 -1.4581 -0.7411  1.5245
33761SOL     OW 5070   0.766   4.796   2.959  0.7185  0.4232 -0.3672
33761SOL    HW1 5071   0.739   4.851   2.886  0.5532 -0.2845 -0.8489
33761SOL    HW2 5072   0.815   4.724   2.919  0.7559  0.1070  0.2276
33762SOL     OW 5073   4.830   2.185   1.254  0.0670 -0.4154 -0.1952
33762SOL    HW1 5074   4.828   2.264   1.201  2.2585  1.5253  2.3382
33762SOL    HW2 5075   4.909   2.139   1.225 -0.4375 -1.0036 -0.6838
33763SOL     OW 5076   8.317   3.040   8.657 -0.2224 -0.5900  0.0189
33763SOL    HW1 5077   8.278   2.997   8.734  0.8060 -0.2027  0.7744
33763SOL    HW2 5078   8.254   3.108   8.633 -1.3273 -1.7409 -0.4942
33764SOL     OW 5079  10.156   4.550   9.811  0.1513  0.4203 -0.1399
33764SOL    HW1 5080  10.128   4.562   9.901  0.2279  1.4901 -0.2396
33764SOL    HW2 5081  10.107   4.474   9.780 -1.1555  1.0551  0.2970
33765SOL     OW 5082   7.504   4.461   7.986  0.2947  0.2752  0.5298
33765SOL    HW1 5083   7.437   4.515   8.027 -0.4856 -0.3275  0.0587
33765SOL    HW2 5084   7.576   4.522   7.969 -0.8138  1.3192 -0.5825
33766SOL     OW 5085   1.738   4.588   6.222 -0.3734  0.8463  0.5888
33766SOL    HW1 5086   1.769   4.556   6.137  1.0476  1.3006  0.9254
33766SOL    HW2 5087   1.656   4.633   6.202 -0.9251 -0.4825 -0.2971
33767SOL     OW 5088   7.337   8.188   1.786 -0.1089 -0.2953  0.5154
33767SOL    HW1 5089   7.425   8.220   1.768  0.4711 -2.6833 -1.5821
33767SOL    HW2 5090   7.279   8.252   1.745  0.6621  0.9436  1.3186
33768SOL     OW 5091   6.521   3.500   8.216  0.4470  0.3847  0.4096
33768SOL    HW1 5092   6.521   3.474   8.308  0.5551 -1.1576 -0.0017
33768SOL    HW2 5093   6.585   3.442   8.175  0.2851  0.9450 -0.6627
33769SOL     OW 5094   0.013   9.840   5.434  0.6551  0.2445  0.4901
33769SOL    HW1 5095   0.044   9.898   5.503 -2.0512  0.5493  1.5729
33769SOL    HW2 5096   0.025   9.752   5.469  1.9543  0.2403  0.0951
33770SOL     OW 5097   8.854   1.579   6.702 -0.6195 -0.0925  0.8086
33770SOL    HW1 5098   8.774   1.531   6.682  0.7538 -1.5677 -1.5566
33770SOL    HW2 5099   8.865   1.641   6.631  0.5660 -0.2506  0.8176
33771SOL     OW 5100   4.986   7.591   2.452  0.0276  0.1215 -0.2107
33771SOL    HW1 5101   5.005   7.526   2.521 -1.0319  0.3194  0.2858
33771SOL    HW2 5102   4.907   7.558   2.410  0.0526  0.5834 -0.6205
33772SOL     OW 5103   0.333   9.456   4.411  0.4465  0.7379 -0.0232
33772SOL    HW1 5104   0.367   9.367   4.415  0.8471  0.7931 -1.5406
33772SOL    HW2 5105   0.375   9.501   4.485 -1.2474 -0.7681  1.9696
33773SOL     OW 5106   8.846   7.268   5.477  1.4030  0.2692 -0.3925
33773SOL    HW1 5107   8.918   7.284   5.538  0.6975  0.4697  0.4025
33773SOL    HW2 5108   8.837   7.173   5.475  1.0547  0.2778  0.2873
33774SOL     OW 5109   8.503   1.614   2.353  0.2437  0.6143  0.6108
33774SOL    HW1 5110   8.520   1.708   2.358  1.5445  0.3632  1.4752
33774SOL    HW2 5111   8.473   1.591   2.441 -0.8582  0.3493  0.1771
33775SOL     OW 5112   9.868   2.900   5.815  0.0146  0.2670  0.0355
33775SOL    HW1 5113   9.888   2.864   5.729 -0.1532  0.4744 -0.0893
33775SOL    HW2 5114   9.773   2.890   5.824  0.2308 -1.3637  0.9151
33776SOL     OW 5115   9.768  10.025   4.356  0.3004 -0.5886 -0.2789
33776SOL    HW1 5116   9.750  10.033   4.450 -1.4213  1.1146 -0.6886
33776SOL    HW2 5117   9.855   9.986   4.352  0.8570  0.2091  2.0435
33777SOL     OW 5118   0.312   0.846  10.182 -0.4401  0.0247 -0.1344
33777SOL    HW1 5119   0.261   0.910  10.133  0.7242  0.8259 -0.3265
33777SOL    HW2 5120   0.263   0.764  10.171 -1.4946  0.6891 -0.5920
33778SOL     OW 5121   6.147   4.673   1.019  0.3705 -0.2441 -0.0146
33778SOL    HW1 5122   6.066   4.711   1.053  0.2531 -0.5156  0.0133
33778SOL    HW2 5123   6.205   4.667   1.095 -0.5308 -2.5453  0.5424
33779SOL     OW 5124   2.185   0.898   6.512  0.3779  0.4846  0.0977
33779SOL    HW1 5125   2.218   0.809   6.518  1.4982  0.9517  1.6234
33779SOL    HW2 5126   2.263   0.954   6.519 -0.4147  1.5907  0.4830
33780SOL     OW 5127   9.644   9.942   8.329 -0.0344 -0.1715 -0.2185
33780SOL    HW1 5128   9.696  10.005   8.379  1.0314 -1.2580  0.0828
33780SOL    HW2 5129   9.555   9.951   8.364 -0.3629  2.4838 -1.4761
33781SOL     OW 5130   9.612   6.804   1.909  0.0710 -0.2787  0.3518
33781SOL    HW1 5131   9.685   6.752   1.875  2.1173 -0.2204  4.1066
33781SOL    HW2 5132   9.640   6.895   1.901 -0.6897 -0.0839 -0.3182
33782SOL     OW 5133   6.196   6.309   7.128  0.3986  0.3197 -0.7427
33782SOL    HW1 5134   6.291   6.310   7.140  0.1725  1.3929  1.3206
33782SOL    HW2 5135   6.181   6.368   7.054  1.2591  1.0424 -0.3556
33783SOL     OW 5136   0.726   3.110  10.092  0.0943  0.5474 -0.1536
33783SOL    HW1 5137   0.751   3.023  10.125 -0.3571 -0.0087 -1.2346
33783SOL    HW2 5138   0.804   3.164  10.106  0.6388 -0.2243 -0.1432
33784SOL     OW 5139   1.683   8.010   1.147 -0.6413 -0.0440 -0.0865
33784SOL    HW1 5140   1.605   7.955   1.150 -0.7270  0.0634 -0.3557
33784SOL    HW2 5141   1.650   8.099   1.152 -0.5275 -0.0028 -0.0637
33785SOL     OW 5142   5.982   1.624   2.350  0.2618 -0.3790  0.5111
33785SOL    HW1 5143   5.984   1.669   2.265 -0.1489 -0.1274  0.6325
33785SOL    HW2 5144   5.999   1.532   2.329  2.8267  0.0386  0.4254
33786SOL     OW 5145   1.725   9.975   6.683  0.7759  0.6391  0.2345
33786SOL    HW1 5146   1.653  10.034   6.661 -0.3120 -0.8864 -0.4942
33786SOL    HW2 5147   1.802  10.013   6.640 -0.2201  0.6837 -1.5868
33787SOL     OW 5148   8.523   0.709   2.229 -0.1757 -0.0937 -0.5293
33787SOL    HW1 5149   8.493   0.660   2.306  0.0247 -0.2991 -0.5793
33787SOL    HW2 5150   8.566   0.643   2.174 -1.8323 -0.3114 -1.6512
33788SOL     OW 5151   5.257   1.913   4.710 -0.1952  0.2245 -0.9897
33788SOL    HW1 5152   5.334   1.971   4.709 -0.0114  0.0072 -0.2713
33788SOL    HW2 5153   5.198   1.952   4.774  0.3983 -0.9493  0.3185
33789SOL     OW 5154   5.336   3.120   8.843  0.1530  0.4184  0.4000
33789SOL    HW1 5155   5.242   3.129   8.833  0.4573  1.5882 -2.2771
33789SOL    HW2 5156   5.364   3.201   8.886  0.0159  0.5517  0.2416
33790SOL     OW 5157   1.741   4.293   9.703 -0.4004 -0.6950  0.4580
33790SOL    HW1 5158   1.709   4.261   9.788 -1.1053 -3.3181 -0.6702
33790SOL    HW2 5159   1.664   4.289   9.646  0.6599 -1.7104 -0.9640
33791SOL     OW 5160   7.555   0.883   2.481  0.0153 -0.0032 -0.2459
33791SOL    HW1 5161   7.540   0.955   2.542  0.4456  0.7503 -1.0052
33791SOL    HW2 5162   7.509   0.909   2.401 -0.6046 -1.0090 -0.2444
33792SOL     OW 5163   8.511   0.040   2.317  0.6443 -0.0308 -0.1998
33792SOL    HW1 5164   8.444  -0.001   2.263  0.8434 -4.2894  2.3252
33792SOL    HW2 5165   8.464   0.072   2.394  1.0613  1.0015 -0.3453
33793SOL     OW 5166   8.391   6.323   3.918  0.1715  0.3514  0.1261
33793SOL    HW1 5167   8.298   6.330   3.897 -0.3678 -1.0989  1.8460
33793SOL    HW2 5168   8.432   6.390   3.863 -1.4744 -0.9692 -2.9607
33794SOL     OW 5169   8.489   4.420   8.954  0.2644  0.1668  0.3291
33794SOL    HW1 5170   8.569   4.419   9.005  0.5372 -2.4256 -0.0223
33794SOL    HW2 5171   8.419   4.419   9.019  0.5432  0.8524  0.6396
33795SOL     OW 5172   3.551   3.688   7.232 -0.1304 -0.5104 -0.5409
33795SOL    HW1 5173   3.493   3.698   7.307  0.3350 -1.0863 -0.1048
33795SOL    HW2 5174   3.514   3.615   7.182  1.3115 -2.2300  0.7871
33796SOL     OW 5175   4.615   3.382   0.281 -0.3909  0.4331 -0.1901
33796SOL    HW1 5176   4.645   3.354   0.194 -2.6076  0.5481 -1.0608
33796SOL    HW2 5177   4.583   3.302   0.323 -1.5205  0.7273 -0.4518
33797SOL     OW 5178   0.089   7.908   6.647 -0.0993  0.5316  0.0372
33797SOL    HW1 5179   0.171   7.910   6.598  0.3940 -2.3088  0.5282
33797SOL    HW2 5180   0.024   7.874   6.585 -0.2281  0.1035  0.3953
33798SOL     OW 5181   4.441   2.058   0.331 -0.7577 -0.4273 -0.0229
33798SOL    HW1 5182   4.518   2.101   0.368  1.7566 -3.8703 -0.6774
33798SOL    HW2 5183   4.382   2.048   0.405 -0.5601  2.0880  0.5721
33799SOL     OW 5184  10.340   8.686   4.319 -0.0273 -0.0936  0.1171
33799SOL    HW1 5185  10.414   8.687   4.380 -0.1538 -1.6688  0.3460
33799SOL    HW2 5186  10.264   8.710   4.373 -0.1142 -1.3293  0.5937
33800SOL     OW 5187   0.471   7.775   4.513  0.1877  0.0791  0.1371
33800SOL    HW1 5188   0.434   7.694   4.549 -0.4951 -0.3635 -1.4811
33800SOL    HW2 5189   0.563   7.753   4.496 -0.1284 -0.5759 -0.8306
33801SOL     OW 5190   8.288   2.212   3.212  0.2477 -0.4548  0.4346
33801SOL    HW1 5191   8.344   2.198   3.288 -2.0157  0.7701  2.4294
33801SOL    HW2 5192   8.237   2.131   3.204  0.3001 -0.4819  0.3672
33802SOL     OW 5193  10.361   1.485   2.781 -0.4289 -0.0280  0.1541
33802SOL    HW1 5194  10.424   1.422   2.745  0.4144  1.5265 -1.2554
33802SOL    HW2 5195  10.296   1.496   2.712  0.8639  2.5314 -0.7801
33803SOL     OW 5196   2.454   1.791   7.163  0.5482  0.5878  0.5880
33803SOL    HW1 5197   2.393   1.800   7.090  1.1923 -0.1469 -0.0530
33803SOL    HW2 5198   2.401   1.811   7.240 -0.4302  0.2942  0.0153
33804SOL     OW 5199   1.877   1.267   5.544 -0.2627  0.2784  0.1111
33804SOL    HW1 5200   1.855   1.317   5.622  0.2384  1.0703 -0.2420
33804SOL    HW2 5201   1.963   1.301   5.516 -0.6933  0.4255 -1.1154
33805SOL     OW 5202   2.582   4.923   0.031  0.4150 -0.1978  0.1433
33805SOL    HW1 5203   2.613   4.981   0.101  0.0820 -0.1105  0.2187
33805SOL    HW2 5204   2.514   4.973  -0.013  0.0600 -0.5675  0.2662
33806SOL     OW 5205   6.349  10.126   8.071 -0.3705 -0.1386  0.2278
33806SOL    HW1 5206   6.282  10.114   8.004 -0.5272 -2.7054  0.7350
33806SOL    HW2 5207   6.309  10.183   8.136 -0.5812  1.5674 -1.2997
33807SOL     OW 5208   5.804   1.160  10.312 -0.9836 -0.4168  0.0977
33807SOL    HW1 5209   5.861   1.098  10.267 -0.5407  0.1744 -0.1794
33807SOL    HW2 5210   5.724   1.163  10.259 -0.4245  0.3612 -0.7524
33808SOL     OW 5211   4.247   4.911   4.356 -0.0374 -0.0767  0.2288
33808SOL    HW1 5212   4.222   4.902   4.448  0.5091  0.2040  0.4124
33808SOL    HW2 5213   4.195   4.985   4.324  0.2712  0.2688  0.5072
33809SOL     OW 5214   9.571   0.471   5.573 -0.2344  0.0591 -0.4938
33809SOL    HW1 5215   9.513   0.530   5.621  1.2540  2.1550 -1.1314
33809SOL    HW2 5216   9.560   0.496   5.481  0.3458 -0.7455 -0.7928
33810SOL     OW 5217   6.181   9.737   0.520  0.1043 -0.2246  0.2875
33810SOL    HW1 5218   6.087   9.738   0.533 -0.1060  0.4223 -1.0766
33810SOL    HW2 5219   6.197   9.804   0.453  1.3178 -1.5162 -0.7846
33811SOL     OW 5220   1.219   2.983   4.200  0.0066 -0.2607 -0.3833
33811SOL    HW1 5221   1.155   2.931   4.248 -2.3697  3.0037  0.3630
33811SOL    HW2 5222   1.253   3.045   4.264  1.3826  0.3157 -1.5962
33812SOL     OW 5223   8.611   9.181   9.265 -0.0571 -0.2884  0.1900
33812SOL    HW1 5224   8.585   9.195   9.174  0.5514 -0.1543  0.0351
33812SOL    HW2 5225   8.563   9.247   9.314  0.7572  0.6272 -0.2164
33813SOL     OW 5226   1.432   3.754   5.583 -0.1814  0.2976  0.2463
33813SOL    HW1 5227   1.390   3.806   5.514 -0.1083  1.6607  1.1934
33813SOL    HW2 5228   1.366   3.748   5.652  0.7538  1.5350  1.2954
33814SOL     OW 5229   8.611   5.954   7.079  0.0120  0.3883 -0.4248
33814SOL    HW1 5230   8.543   5.938   7.014 -0.4185 -0.6310  0.2539
33814SOL    HW2 5231   8.672   6.015   7.036 -1.2241  1.1856 -1.1086
33815SOL     OW 5232   1.505   0.344   6.357 -0.0425 -0.1646 -0.4074
33815SOL    HW1 5233   1.559   0.392   6.294 -0.9955  1.6045  0.0705
33815SOL    HW2 5234   1.420   0.387   6.354 -0.1556 -0.0999  2.0088
33816SOL     OW 5235  10.135   1.703   1.374  0.3872 -0.4959 -0.8516
33816SOL    HW1 5236  10.192   1.691   1.450 -1.2172  0.2626  0.5438
33816SOL    HW2 5237  10.159   1.789   1.339 -0.5504  0.2841  0.3571
33817SOL     OW 5238   8.428   6.571   5.647 -0.8004 -0.6293  0.3341
33817SOL    HW1 5239   8.338   6.557   5.676 -0.6042 -1.0614  0.7440
33817SOL    HW2 5240   8.468   6.624   5.716 -1.0607  0.5607 -0.3997
33818SOL     OW 5241   7.409   4.526   0.178  0.3679  0.6632 -0.1518
33818SOL    HW1 5242   7.478   4.474   0.139  0.5161  1.3303 -0.8094
33818SOL    HW2 5243   7.382   4.586   0.108  0.2760  1.5285  0.6062
33819SOL     OW 5244   0.961   6.730   9.389  0.0453  0.4044 -0.0828
33819SOL    HW1 5245   0.886   6.742   9.448  1.2083  0.2341  1.5068
33819SOL    HW2 5246   1.034   6.712   9.448  1.0107 -1.1227 -1.6838
33820SOL     OW 5247   8.279   0.486   5.560  0.0476  0.2814  0.0348
33820SOL    HW1 5248   8.325   0.566   5.535  0.7819  0.6177  2.2364
33820SOL    HW2 5249   8.303   0.422   5.492  0.9109  1.4246 -0.7649
33821SOL     OW 5250   1.485   6.013  10.085 -0.2569  0.2082  0.2482
33821SOL    HW1 5251   1.535   6.093  10.103 -1.5081  1.0469  0.0795
33821SOL    HW2 5252   1.475   6.013   9.990 -1.1375  0.4013  0.3371
33822SOL     OW 5253   5.427   7.050   8.667  0.1840 -0.3620  0.2031
33822SOL    HW1 5254   5.362   7.040   8.736  0.4692 -0.3176  0.4809
33822SOL    HW2 5255   5.511   7.035   8.711  0.6523  2.7086  0.5953
33823SOL     OW 5256  10.333   4.149   5.894 -0.0804 -0.1421 -0.3736
33823SOL    HW1 5257  10.354   4.166   5.986  0.0437 -2.2409  0.0201
33823SOL    HW2 5258  10.246   4.109   5.896 -0.1098 -0.1372 -1.1848
33824SOL     OW 5259   1.022   2.333   3.572  0.2814 -0.6065  0.8077
33824SOL    HW1 5260   1.033   2.400   3.640 -1.8317  1.0644 -0.3584
33824SOL    HW2 5261   1.006   2.252   3.620  0.9286  0.0983  2.2787
33825SOL     OW 5262   8.845   1.165   4.724 -0.0178  0.2616 -0.5151
33825SOL    HW1 5263   8.809   1.103   4.787 -0.5980  0.7722 -0.3276
33825SOL    HW2 5264   8.817   1.251   4.757 -0.3242  0.5343 -1.4629
33826SOL     OW 5265   0.262   2.717   8.583 -0.0441 -0.1544 -0.0793
33826SOL    HW1 5266   0.284   2.805   8.613 -0.4296  0.7108 -2.1218
33826SOL    HW2 5267   0.166   2.717   8.576 -0.0407 -0.7026 -0.1417
33827SOL     OW 5268   0.099   8.615   5.384  0.6349 -0.4630  0.5665
33827SOL    HW1 5269   0.071   8.699   5.419  1.4475 -1.0843  2.8694
33827SOL    HW2 5270   0.021   8.580   5.340 -0.2104  0.7342  1.0771
33828SOL     OW 5271   2.398   4.409   1.009 -0.2428  0.1075 -0.0216
33828SOL    HW1 5272   2.435   4.397   1.096 -1.0173  0.1462  0.3142
33828SOL    HW2 5273   2.464   4.372   0.950  0.8750  1.1996  0.4750
33829SOL     OW 5274   7.518   6.414   7.496 -0.0408 -0.1910  0.2636
33829SOL    HW1 5275   7.598   6.374   7.528  0.3069  0.9240  0.8288
33829SOL    HW2 5276   7.518   6.396   7.402 -0.2277 -2.0345  0.5833
33830SOL     OW 5277   6.930   5.870   3.225 -0.0249 -0.2127  0.2272
33830SOL    HW1 5278   6.919   5.776   3.237  0.2933 -0.1911  0.7094
33830SOL    HW2 5279   7.022   5.886   3.245 -0.5383  0.5053  2.2567
33831SOL     OW 5280   6.344   6.541   7.646  0.3877 -0.1572  0.1834
33831SOL    HW1 5281   6.337   6.637   7.650  1.0204 -0.1367  1.4104
33831SOL    HW2 5282   6.350   6.514   7.738  0.1418 -1.3908 -0.1451
33832SOL     OW 5283  10.060   4.983   8.320 -0.2268  0.0108  0.5019
33832SOL    HW1 5284  10.070   5.016   8.230 -2.0930 -2.1576 -0.6045
33832SOL    HW2 5285  10.139   4.931   8.335 -0.2393 -0.2259 -0.1904
33833SOL     OW 5286   3.074   8.464   6.957 -0.1243 -0.1539 -0.6066
33833SOL    HW1 5287   3.082   8.419   6.873  0.2509 -2.0025  0.3748
33833SOL    HW2 5288   3.162   8.500   6.973  0.1918 -1.0288 -0.3493
33834SOL     OW 5289   0.194   8.406   6.297 -0.0796  0.3164  0.9503
33834SOL    HW1 5290   0.157   8.339   6.239 -0.8070  1.4122  0.0975
33834SOL    HW2 5291   0.246   8.461   6.239 -0.5597  1.2537  1.3954
33835SOL     OW 5292   2.856   2.765   2.006  0.9608  0.6065 -0.0760
33835SOL    HW1 5293   2.847   2.815   2.087  0.9798 -2.0904  1.7035
33835SOL    HW2 5294   2.924   2.700   2.025 -0.5795 -1.5222 -1.4785
33836SOL     OW 5295   0.635   2.270   9.575 -0.4707 -0.6959  0.3303
33836SOL    HW1 5296   0.583   2.336   9.528  0.0482  0.4069  1.2379
33836SOL    HW2 5297   0.571   2.221   9.627 -0.7035  0.2317  0.9490
33837SOL     OW 5298   6.737   2.597   9.657 -0.2177 -0.1173  0.1431
33837SOL    HW1 5299   6.717   2.520   9.709 -2.9427  0.2435 -0.2191
33837SOL    HW2 5300   6.701   2.670   9.707 -0.7676  0.4991 -1.1001
33838SOL     OW 5301   6.499   3.581   6.213 -0.3368  0.1070 -0.3341
33838SOL    HW1 5302   6.406   3.580   6.233 -0.5355 -2.8058 -1.0308
33838SOL    HW2 5303   6.503   3.591   6.118 -0.1458 -2.8112 -0.7029
33839SOL     OW 5304   0.613   3.671   8.833  0.6612 -0.6375 -0.2285
33839SOL    HW1 5305   0.563   3.594   8.860  1.8250 -0.6207  2.2928
33839SOL    HW2 5306   0.549   3.742   8.829  0.1763 -0.9078  1.5956
33840SOL     OW 5307   8.248   8.729   3.308 -0.3129 -0.1052 -0.1530
33840SOL    HW1 5308   8.164   8.698   3.276  0.6012 -1.3368 -1.4317
33840SOL    HW2 5309   8.296   8.650   3.333  1.0344  0.4386 -0.8938
33841SOL     OW 5310   9.160   7.209   8.142  0.2398  0.2206 -0.3151
33841SOL    HW1 5311   9.216   7.281   8.116 -0.6332  0.1613 -2.6149
33841SOL    HW2 5312   9.071   7.246   8.142  0.0386 -0.2095  1.1061
33842SOL     OW 5313   7.007   7.486   1.846  0.4114 -0.2589 -0.1678
33842SOL    HW1 5314   7.095   7.515   1.822  0.0324 -0.1132 -1.4276
33842SOL    HW2 5315   7.021   7.401   1.889  1.0313 -1.3943 -2.4535
33843SOL     OW 5316   0.241   1.630   2.891 -0.7552  0.5118  0.0118
33843SOL    HW1 5317   0.212   1.721   2.896 -3.6526 -0.3425  2.7315
33843SOL    HW2 5318   0.166   1.583   2.855 -0.7885 -1.1864  2.0933
33844SOL     OW 5319   3.617   7.899   1.957 -0.1235 -0.3908  0.1151
33844SOL    HW1 5320   3.579   7.985   1.975  0.9978  0.0644  0.3610
33844SOL    HW2 5321   3.661   7.875   2.039 -0.8957 -1.4572  0.2381
33845SOL     OW 5322   6.476   6.612   5.489  0.1859  0.4605  0.3283
33845SOL    HW1 5323   6.525   6.693   5.474  2.0241 -0.8479 -1.2914
33845SOL    HW2 5324   6.531   6.561   5.548  0.0686 -0.4253 -0.3023
33846SOL     OW 5325   0.400   1.579   1.752  0.8692 -0.4183  0.4452
33846SOL    HW1 5326   0.399   1.519   1.677 -0.0906 -0.4371  0.4622
33846SOL    HW2 5327   0.441   1.529   1.822  0.8616 -0.7542  0.2113
33847SOL     OW 5328   2.190   4.189   0.719  0.1589 -0.1702  0.1517
33847SOL    HW1 5329   2.203   4.191   0.814 -0.7904 -1.7433  0.3546
33847SOL    HW2 5330   2.250   4.122   0.687  1.3801  1.1965 -0.5779
33848SOL     OW 5331   0.715   9.130   9.586  0.2814 -0.4241 -0.0001
33848SOL    HW1 5332   0.646   9.124   9.519  1.8818  0.0586 -1.7624
33848SOL    HW2 5333   0.672   9.099   9.666 -1.8616 -0.5347 -1.1029
33849SOL     OW 5334   7.204   6.948   6.179  0.8932  0.6168 -0.0628
33849SOL    HW1 5335   7.237   6.858   6.186 -0.0325  0.2948  0.3313
33849SOL    HW2 5336   7.276   7.003   6.209  1.0766 -0.0701  0.7953
33850SOL     OW 5337   7.301   2.582  10.164 -0.0087 -0.0284 -0.5765
33850SOL    HW1 5338   7.370   2.529  10.124 -1.0503 -1.5473 -0.4463
33850SOL    HW2 5339   7.336   2.604  10.250  0.4137 -0.6053 -0.5904
33851SOL     OW 5340   9.798   2.466   5.153 -0.0704  0.1870 -0.2022
33851SOL    HW1 5341   9.885   2.447   5.189  0.3042  0.6993 -0.8141
33851SOL    HW2 5342   9.792   2.409   5.076  0.8205  2.0127 -1.7045
33852SOL     OW 5343   4.428   4.278   5.139 -0.0427  0.1797 -0.2138
33852SOL    HW1 5344   4.387   4.364   5.154 -1.1677 -0.1648 -1.1127
33852SOL    HW2 5345   4.371   4.236   5.074  1.7382 -0.3417 -1.5220
33853SOL     OW 5346   8.783   9.540   5.964  0.6207 -0.0523  0.3213
33853SOL    HW1 5347   8.849   9.473   5.976  0.6959 -0.0829 -0.2245
33853SOL    HW2 5348   8.712   9.515   6.024  0.8382 -0.3653  0.4512
33854SOL     OW 5349   7.095   0.385   5.309 -0.0812  0.2980 -0.2857
33854SOL    HW1 5350   7.116   0.403   5.217 -0.1461 -0.2126 -0.4085
33854SOL    HW2 5351   7.039   0.457   5.336 -1.7145 -0.5309 -1.2485
33855SOL     OW 5352   1.802   6.819   7.088 -0.3484  0.2901  0.0798
33855SOL    HW1 5353   1.815   6.904   7.046  0.8978  0.5159  0.8928
33855SOL    HW2 5354   1.730   6.833   7.149 -0.6315  0.5516 -0.3036
33856SOL     OW 5355   5.685   9.234   1.110 -0.3635  0.4284 -0.2219
33856SOL    HW1 5356   5.626   9.305   1.134 -1.9424 -0.5593 -1.0209
33856SOL    HW2 5357   5.676   9.227   1.015  0.0197 -0.6173 -0.1889
33857SOL     OW 5358   3.094   5.817   1.039 -0.1494  0.0294  0.6451
33857SOL    HW1 5359   3.109   5.887   1.102 -1.4757 -0.5633  1.6582
33857SOL    HW2 5360   3.150   5.746   1.068 -1.5421 -0.6259  1.8365
33858SOL     OW 5361   8.166   5.768   2.684 -0.0194  0.2815  0.3730
33858SOL    HW1 5362   8.198   5.697   2.740 -0.4404 -0.2811 -0.0914
33858SOL    HW2 5363   8.089   5.801   2.728  0.2652  0.5593  0.6693
33859SOL     OW 5364   7.303   4.412   4.564  0.3659 -0.4363 -0.3272
33859SOL    HW1 5365   7.324   4.469   4.638  0.5372 -1.2208  0.2415
33859SOL    HW2 5366   7.299   4.324   4.602  0.5731 -0.8649 -1.2791
33860SOL     OW 5367   5.190   4.114   0.887 -0.0659  0.0097  0.0971
33860SOL    HW1 5368   5.141   4.036   0.862  0.2490  0.2122 -1.2203
33860SOL    HW2 5369   5.124   4.184   0.894 -0.3316 -0.3206  1.1711
33861SOL     OW 5370   4.134   2.424   7.790  0.0952 -0.2982 -0.2283
33861SOL    HW1 5371   4.054   2.468   7.818  1.0678  0.9973  0.6658
33861SOL    HW2 5372   4.145   2.352   7.853 -1.5373 -1.9927 -1.7408
33862SOL     OW 5373  10.062   1.242   2.580 -0.5783 -0.2485  0.6832
33862SOL    HW1 5374  10.123   1.311   2.552  0.4795 -0.5974  2.0125
33862SOL    HW2 5375   9.981   1.260   2.532 -0.6242  2.4337  1.6034
33863SOL     OW 5376   1.245   1.279   9.181 -0.1444  0.2222  0.5674
33863SOL    HW1 5377   1.177   1.265   9.246 -1.9698 -1.8460 -1.5915
33863SOL    HW2 5378   1.310   1.212   9.200  0.1170  0.6433  1.1827
33864SOL     OW 5379  10.053   6.213   9.389  0.0102  0.5892  0.3882
33864SOL    HW1 5380   9.996   6.264   9.447  1.0870  1.6041  0.5913
33864SOL    HW2 5381  10.140   6.222   9.428  0.3321 -0.9099  0.0651
33865SOL     OW 5382   5.230   5.103   5.329  0.7490  0.1315  0.3359
33865SOL    HW1 5383   5.282   5.154   5.266 -2.4355  1.1282 -1.7044
33865SOL    HW2 5384   5.179   5.043   5.274 -2.1953  1.0366  1.9001
33866SOL     OW 5385   7.642   2.626   7.716  0.3520  0.4447 -0.3733
33866SOL    HW1 5386   7.709   2.604   7.652  0.8738 -0.2109  0.3664
33866SOL    HW2 5387   7.559   2.615   7.669  0.7353  0.4468 -1.0619
33867SOL     OW 5388   6.281   2.484   6.917  0.5216 -0.1505 -0.3805
33867SOL    HW1 5389   6.325   2.405   6.885 -0.5260 -0.5472 -0.9065
33867SOL    HW2 5390   6.193   2.454   6.940  0.3468  0.7259  0.1198
33868SOL     OW 5391   1.367   4.161   5.156 -0.1705 -0.3504  0.3138
33868SOL    HW1 5392   1.353   4.237   5.099  1.1161 -0.0010  0.4315
33868SOL    HW2 5393   1.444   4.185   5.208  0.1489 -1.6755  0.4668
33869SOL     OW 5394   4.745  10.008   4.678  0.2710  0.2528  0.0101
33869SOL    HW1 5395   4.805   9.990   4.605  0.5570  0.8344  0.0960
33869SOL    HW2 5396   4.669  10.049   4.636 -0.0999 -0.5266 -0.1050
33870SOL     OW 5397   8.518   6.483   4.371  0.2238  0.3384  0.4995
33870SOL    HW1 5398   8.576   6.406   4.367 -0.3125 -0.0895  0.8656
33870SOL    HW2 5399   8.446   6.461   4.312  0.0490  0.5464  0.6382
33871SOL     OW 5400   1.533   3.156   7.887  0.3434  0.1403  0.1326
33871SOL    HW1 5401   1.553   3.237   7.934  0.8143 -1.0435  2.1123
33871SOL    HW2 5402   1.506   3.095   7.956 -2.1818 -0.7721 -1.5200
33872SOL     OW 5403   4.375   9.558   2.748  0.3071  0.1637  0.0004
33872SOL    HW1 5404   4.324   9.627   2.791 -1.4849 -0.7756 -0.5206
33872SOL    HW2 5405   4.459   9.600   2.727  0.0923  1.5295  1.6272
33873SOL     OW 5406   1.520   0.676   6.272 -0.2271 -0.0442 -0.2537
33873SOL    HW1 5407   1.487   0.664   6.361 -0.1212 -1.4208 -0.3932
33873SOL    HW2 5408   1.614   0.659   6.278 -0.4561 -1.6641 -0.8968
33874SOL     OW 5409   0.960   5.474   0.084 -0.2087 -0.3455 -0.1257
33874SOL    HW1 5410   0.867   5.484   0.105 -0.7122 -0.7198 -1.9950
33874SOL    HW2 5411   1.006   5.508   0.161 -1.8761 -1.7791  1.6058
33875SOL     OW 5412   9.506   1.447   5.660  0.3275 -0.3569  0.3183
33875SOL    HW1 5413   9.412   1.441   5.676 -0.1793  0.1637 -2.0925
33875SOL    HW2 5414   9.545   1.386   5.722 -1.5001  0.1015  2.0092
33876SOL     OW 5415   5.026   7.324  10.193 -0.0503  0.4090 -0.3014
33876SOL    HW1 5416   4.994   7.412  10.209 -0.2828  0.5561 -1.4946
33876SOL    HW2 5417   5.121   7.331  10.204 -0.1441  0.6129  0.4123
33877SOL     OW 5418  10.349   7.736   3.019 -0.5574 -0.6179  0.0110
33877SOL    HW1 5419  10.297   7.658   3.041 -0.2866 -0.4492  1.3476
33877SOL    HW2 5420  10.374   7.772   3.104 -0.6347  0.9041 -0.5932
33878SOL     OW 5421   7.874   2.867   6.851  0.1875 -0.7688  0.6085
33878SOL    HW1 5422   7.824   2.929   6.904 -0.8830 -0.5971 -0.5622
33878SOL    HW2 5423   7.813   2.796   6.832  0.3350 -0.5177 -0.9189
33879SOL     OW 5424   1.982   6.152   7.981  0.0369 -0.0287  0.6251
33879SOL    HW1 5425   2.070   6.173   7.951 -0.3392  0.6876  0.0028
33879SOL    HW2 5426   1.989   6.062   8.014  0.8153 -0.2690 -0.1598
33880SOL     OW 5427   7.812   1.246   2.279 -0.1869  0.1799  1.1274
33880SOL    HW1 5428   7.718   1.259   2.296 -0.3035  1.8177 -0.3888
33880SOL    HW2 5429   7.817   1.163   2.232 -1.0794  0.7342  0.0019
33881SOL     OW 5430   4.411   5.037   1.116  0.0804  0.2028  0.2660
33881SOL    HW1 5431   4.491   5.079   1.148 -0.8558  2.1747  0.1980
33881SOL    HW2 5432   4.383   4.982   1.189  0.0535  1.6340  1.3860
33882SOL     OW 5433   8.866   1.340   9.945 -0.1908 -0.2346  0.1709
33882SOL    HW1 5434   8.855   1.435   9.947 -1.4226 -0.3571  0.0262
33882SOL    HW2 5435   8.948   1.327   9.898 -1.2034  0.7105 -2.0219
33883SOL     OW 5436   4.647   7.726   1.530  0.5600 -0.4608  0.0295
33883SOL    HW1 5437   4.577   7.687   1.582  0.7752 -3.1018 -1.4189
33883SOL    HW2 5438   4.604   7.794   1.478 -0.5369 -0.7653  0.5076
33884SOL     OW 5439   5.065   5.992   0.507  0.6760 -0.1013  0.0932
33884SOL    HW1 5440   5.143   5.936   0.500  1.1530  0.5719 -0.2048
33884SOL    HW2 5441   5.000   5.950   0.450  0.5760 -1.0534  0.8965
33885SOL     OW 5442   2.006   9.579   9.778 -0.2762  1.3229 -0.4130
33885SOL    HW1 5443   1.978   9.655   9.728 -2.2538  0.9120  0.0112
33885SOL    HW2 5444   1.961   9.505   9.738  2.4198  0.1362 -1.5002
33886SOL     OW 5445   3.894   5.608   6.088 -0.5203  0.2611 -0.4781
33886SOL    HW1 5446   3.901   5.687   6.141  0.0601  0.8216 -1.3549
33886SOL    HW2 5447   3.946   5.627   6.010  1.0941 -1.6340  0.0467
33887SOL     OW 5448   2.998   7.783   9.719  0.2653 -0.0542 -0.3019
33887SOL    HW1 5449   2.980   7.692   9.746  2.7400 -0.8690 -1.1519
33887SOL    HW2 5450   2.971   7.835   9.795  2.3071 -1.8586  1.8468
33888SOL     OW 5451   5.297   0.639   2.689 -0.0502  0.2711  0.0150
33888SOL    HW1 5452   5.340   0.725   2.692 -2.6269  1.6958 -1.0153
33888SOL    HW2 5453   5.232   0.642   2.759  0.1552 -1.0901  0.3048
33889SOL     OW 5454   8.898   9.113   6.612  1.5126  0.0860  0.0018
33889SOL    HW1 5455   8.960   9.184   6.628  0.3439  1.1797 -0.1729
33889SOL    HW2 5456   8.826   9.154   6.564  0.6833 -1.1688  0.1227
33890SOL     OW 5457   6.482   9.692  10.015 -0.2316 -0.7704  0.0784
33890SOL    HW1 5458   6.474   9.596  10.015  2.5838 -1.0917 -0.3985
33890SOL    HW2 5459   6.575   9.708  10.030 -0.7013  1.9346  0.5465
33891SOL     OW 5460   1.474   3.073   0.695 -0.7227 -0.3108 -0.6548
33891SOL    HW1 5461   1.509   3.003   0.639 -2.2463 -1.6022 -0.0727
33891SOL    HW2 5462   1.381   3.054   0.701 -0.7940  0.4792  1.3549
33892SOL     OW 5463   1.242   2.292   9.978  0.1443 -0.0958 -0.1143
33892SOL    HW1 5464   1.300   2.219  10.000 -1.0908 -0.7716  1.0477
33892SOL    HW2 5465   1.235   2.289   9.883  2.3482  0.3058 -0.3513
33893SOL     OW 5466   0.404   4.671   0.591 -0.2406  0.8638  0.4399
33893SOL    HW1 5467   0.312   4.650   0.602  0.4373 -2.7016  0.2835
33893SOL    HW2 5468   0.443   4.654   0.677  0.6910 -0.5309 -0.2259
33894SOL     OW 5469   6.107   7.714   3.088  0.1313  0.6190  0.8992
33894SOL    HW1 5470   6.058   7.638   3.119 -1.4652  0.2908 -2.1272
33894SOL    HW2 5471   6.183   7.719   3.147  1.1899 -4.2839  0.3726
33895SOL     OW 5472   3.134   4.643   0.016 -0.0781 -0.1335 -0.3946
33895SOL    HW1 5473   3.224   4.633   0.049 -0.6918  0.2728  1.5480
33895SOL    HW2 5474   3.129   4.581  -0.057  1.2808 -1.4531  0.5496
33896SOL     OW 5475   3.534   3.950  10.035 -0.3995 -0.1889 -0.3395
33896SOL    HW1 5476   3.612   3.997  10.064  0.4902 -0.9995 -1.3415
33896SOL    HW2 5477   3.514   3.892  10.109 -0.6098  0.6499  0.2857
33897SOL     OW 5478   9.345   5.833  10.188  0.0770  0.2598  0.1905
33897SOL    HW1 5479   9.269   5.880  10.222 -0.0736  0.4081 -0.3378
33897SOL    HW2 5480   9.314   5.793  10.107  0.7189  0.7981 -0.3330
33898SOL     OW 5481   0.502   8.475   5.444  0.5423  0.4777 -0.5794
33898SOL    HW1 5482   0.596   8.464   5.456  0.4844 -0.0927 -0.6144
33898SOL    HW2 5483   0.475   8.399   5.393 -0.0610  0.2304  0.0815
33899SOL     OW 5484   3.289   6.664   2.351 -0.0667 -0.3609  0.3149
33899SOL    HW1 5485   3.211   6.720   2.349  1.2074  1.4510  0.1734
33899SOL    HW2 5486   3.357   6.718   2.391  1.4673 -1.4797 -0.6778
33900SOL     OW 5487   2.351   7.694   8.509  0.0970  0.2119 -0.2259
33900SOL    HW1 5488   2.299   7.715   8.586  0.5727 -1.2098  0.5061
33900SOL    HW2 5489   2.306   7.620   8.469  0.1869  0.5592 -0.9893
33901SOL     OW 5490   3.893   9.346   8.824  0.4785 -1.1704 -1.1310
33901SOL    HW1 5491   3.833   9.360   8.752  0.1131 -3.5417 -1.3742
33901SOL    HW2 5492   3.839   9.354   8.903  0.7511  0.7943 -1.1006
33902SOL     OW 5493   4.827   3.425   7.207  0.1222 -0.3076 -0.6766
33902SOL    HW1 5494   4.884   3.393   7.137  0.0684 -0.0842 -0.8264
33902SOL    HW2 5495   4.800   3.347   7.255  3.4870 -0.2047  1.6960
33903SOL     OW 5496   0.444   7.859   4.281 -0.4073  0.2090 -0.2948
33903SOL    HW1 5497   0.501   7.933   4.261  0.5188 -0.3057  0.3819
33903SOL    HW2 5498   0.458   7.841   4.374 -0.6141 -0.8144 -0.4410
33904SOL     OW 5499   9.339   1.869   7.990 -0.0272  0.4199  0.0158
33904SOL    HW1 5500   9.278   1.796   7.975  2.2532 -1.0516 -3.2172
33904SOL    HW2 5501   9.400   1.835   8.056 -0.5585  0.5031  0.5613
33905SOL     OW 5502   9.178   8.496   1.410 -0.3824 -0.0600  0.1851
33905SOL    HW1 5503   9.144   8.538   1.331 -0.2222  0.1179  0.2100
33905SOL    HW2 5504   9.267   8.471   1.387 -0.2769  0.1462  0.3650
33906SOL     OW 5505  10.327   1.512   4.796  0.0614  0.3365 -0.5265
33906SOL    HW1 5506  10.386   1.571   4.844 -0.0770 -0.7118  1.0131
33906SOL    HW2 5507  10.240   1.537   4.825 -0.0066 -0.4888  0.0130
33907SOL     OW 5508   9.058   3.604   3.880 -0.3770 -0.6408 -0.0219
33907SOL    HW1 5509   8.998   3.672   3.909  0.3097 -0.4311  0.9491
33907SOL    HW2 5510   9.110   3.583   3.958  1.4308 -0.1507 -1.0317
33908SOL     OW 5511   7.382   8.518   5.182 -0.2205  0.4911 -0.2562
33908SOL    HW1 5512   7.447   8.588   5.178  0.3206 -0.0617 -1.3552
33908SOL    HW2 5513   7.374   8.487   5.092 -0.2833 -1.0296  0.2469
33909SOL     OW 5514  10.218   9.893   3.981  0.3856 -0.2964  0.6427
33909SOL    HW1 5515  10.135   9.934   4.007 -0.5341  0.9520 -3.4608
33909SOL    HW2 5516  10.193   9.808   3.946  0.9807 -0.3225  0.2672
33910SOL     OW 5517   8.549   0.244   6.931  0.3052 -0.0598  0.0058
33910SOL    HW1 5518   8.614   0.186   6.970  0.8162 -0.0831 -0.8431
33910SOL    HW2 5519   8.522   0.302   7.002 -0.7871 -1.7885  1.0914
33911SOL     OW 5520   7.881   4.815   6.207  0.2155  0.6836 -0.1612
33911SOL    HW1 5521   7.800   4.772   6.178  1.4052 -1.7997 -0.1005
33911SOL    HW2 5522   7.853   4.879   6.272 -1.7882  0.7497 -1.0138
33912SOL     OW 5523   2.367   8.534   8.030 -0.3468 -0.0458 -0.3420
33912SOL    HW1 5524   2.426   8.541   8.104 -2.2016 -0.0362  1.2144
33912SOL    HW2 5525   2.362   8.623   7.994 -0.1115  0.1311  0.0588
33913SOL     OW 5526   6.971   3.829   7.700 -0.3859  0.0950 -0.0783
33913SOL    HW1 5527   6.875   3.833   7.694 -0.4343  0.5752  0.8464
33913SOL    HW2 5528   6.988   3.820   7.793  0.4544 -0.8908 -0.3103
33914SOL     OW 5529   9.187   6.983   5.914 -0.6552  0.2031 -0.8786
33914SOL    HW1 5530   9.255   7.004   5.850 -1.5608  1.1963 -1.5566
33914SOL    HW2 5531   9.229   6.998   5.999  1.2932 -3.2834 -1.0279
33915SOL     OW 5532   8.944   1.660   1.840 -0.3627 -0.5065  0.3189
33915SOL    HW1 5533   9.039   1.655   1.830 -0.0923 -0.5413  2.4088
33915SOL    HW2 5534   8.911   1.577   1.806  0.2849 -0.3325 -0.7817
33916SOL     OW 5535   7.857   5.093   2.655 -1.2023 -0.4357 -0.4582
33916SOL    HW1 5536   7.815   5.010   2.633 -0.3909 -0.6191 -1.3619
33916SOL    HW2 5537   7.785   5.156   2.662 -1.7516 -1.0580 -0.4947
33917SOL     OW 5538   0.728  10.307   9.369 -0.4891  0.2310  0.0625
33917SOL    HW1 5539   0.726  10.213   9.356  0.2126  0.3514 -0.9717
33917SOL    HW2 5540   0.635  10.331   9.378 -0.7633 -0.3975 -0.8965
33918SOL     OW 5541   4.423   7.861   8.809 -0.4880  0.5942  0.1365
33918SOL    HW1 5542   4.378   7.939   8.843 -1.0001 -0.3118  1.6111
33918SOL    HW2 5543   4.490   7.842   8.874  0.3176  0.3727 -0.7343
33919SOL     OW 5544   9.513   9.815   2.329  0.5330  0.3885  0.5989
33919SOL    HW1 5545   9.451   9.871   2.281  1.0438  1.2113  0.8875
33919SOL    HW2 5546   9.581   9.796   2.265  0.7342  0.7074  0.7172
33920SOL     OW 5547   7.985   8.837   0.975 -0.6914  0.6669  0.0498
33920SOL    HW1 5548   7.894   8.836   0.946 -0.8135 -1.3386  0.3830
33920SOL    HW2 5549   8.001   8.749   1.010  1.0968  1.2606  0.8805
33921SOL     OW 5550   9.171   1.500   7.535  0.1012 -0.1413 -0.3975
33921SOL    HW1 5551   9.106   1.567   7.554  0.8376 -0.0973  2.4235
33921SOL    HW2 5552   9.132   1.446   7.467 -2.2388  0.7874  0.1436
33922SOL     OW 5553   5.836   0.834   8.370  0.4033 -0.1718 -0.8346
33922SOL    HW1 5554   5.867   0.889   8.443 -0.5304  2.3332 -2.2128
33922SOL    HW2 5555   5.916   0.797   8.333  1.0696  0.1573  0.2148
33923SOL     OW 5556   8.061   6.185   9.015  0.2391  0.6868 -0.6769
33923SOL    HW1 5557   8.090   6.145   8.933 -0.3894  0.6371 -0.8736
33923SOL    HW2 5558   7.974   6.149   9.031 -0.3823  2.0370 -0.8999
33924SOL     OW 5559   8.048   8.629   9.229  0.1347 -0.7895  0.2883
33924SOL    HW1 5560   8.045   8.634   9.134 -0.7542 -0.3038  0.3349
33924SOL    HW2 5561   8.014   8.713   9.259  0.3086 -0.9773  1.0406
33925SOL     OW 5562   5.536   8.975   9.811 -0.1132 -0.1789 -0.7412
33925SOL    HW1 5563   5.545   8.880   9.822 -0.4097 -0.1048  0.2425
33925SOL    HW2 5564   5.624   9.005   9.788  0.6043 -0.3773  1.5101
33926SOL     OW 5565   6.266   2.778   2.679 -0.6896 -0.4422 -0.1019
33926SOL    HW1 5566   6.331   2.726   2.727 -0.8507 -1.6801 -1.1725
33926SOL    HW2 5567   6.273   2.748   2.589 -1.0733  1.1530 -0.7023
33927SOL     OW 5568   5.264   7.170   6.448  0.1202 -0.3183 -0.4756
33927SOL    HW1 5569   5.307   7.094   6.409 -0.5036  0.2819 -2.4247
33927SOL    HW2 5570   5.300   7.175   6.537  1.2532 -2.0151 -0.7997
33928SOL     OW 5571   7.918   8.475   2.720 -0.0271 -0.1141  0.0845
33928SOL    HW1 5572   8.004   8.511   2.696  0.4571 -1.0348  0.4162
33928SOL    HW2 5573   7.928   8.381   2.712 -0.9415 -0.2448  0.3680
33929SOL     OW 5574   3.829   8.919   5.285 -0.2295 -0.0123  0.7050
33929SOL    HW1 5575   3.742   8.957   5.273 -0.1887  0.0852  0.7162
33929SOL    HW2 5576   3.839   8.912   5.380 -0.6011 -0.8992  0.6874
33930SOL     OW 5577   3.554   4.680   6.858 -0.7477  0.4492 -0.5011
33930SOL    HW1 5578   3.642   4.702   6.827  0.1470 -1.0940  0.7982
33930SOL    HW2 5579   3.496   4.729   6.800  0.9369  4.4115  0.7730
33931SOL     OW 5580   8.980   3.318   5.133  0.1922 -0.1134  0.1931
33931SOL    HW1 5581   9.008   3.266   5.208  1.0360  0.4768  0.3047
33931SOL    HW2 5582   9.059   3.324   5.078  0.0176  0.7738  0.0308
33932SOL     OW 5583   7.945   3.821   3.442  0.0970  0.1336  0.5486
33932SOL    HW1 5584   7.871   3.881   3.452 -0.0142  0.1086 -0.0897
33932SOL    HW2 5585   8.006   3.847   3.512 -0.1890  0.6306  0.6213
33933SOL     OW 5586   7.223   2.431   1.320 -0.2326 -0.2972  0.2627
33933SOL    HW1 5587   7.203   2.490   1.392 -0.7053 -0.8494  0.5895
33933SOL    HW2 5588   7.157   2.450   1.254  0.5839  0.6665 -0.3221
33934SOL     OW 5589   5.313   6.006   4.728  0.3234  0.5102 -0.4861
33934SOL    HW1 5590   5.332   5.930   4.674  1.1641  0.9086 -0.7732
33934SOL    HW2 5591   5.330   5.977   4.817  1.3205  0.5498 -0.6515
33935SOL     OW 5592   2.319   4.658   2.076  0.0908  0.2342 -0.3565
33935SOL    HW1 5593   2.257   4.732   2.076  0.5149  0.6062  0.7713
33935SOL    HW2 5594   2.321   4.629   1.984 -0.9119  0.9216 -0.6155
33936SOL     OW 5595   0.957   0.836   0.838 -0.4495  0.0930  0.2109
33936SOL    HW1 5596   0.946   0.903   0.906 -0.0177  0.7379 -0.3380
33936SOL    HW2 5597   1.045   0.853   0.802 -0.0619 -1.1773  0.4999
33937SOL     OW 5598   6.284   2.624   2.427  0.5079 -0.1285 -1.0526
33937SOL    HW1 5599   6.233   2.620   2.346  1.4500 -0.0525 -1.6666
33937SOL    HW2 5600   6.242   2.560   2.484 -1.7401  1.5843 -0.6462
33938SOL     OW 5601   3.083   9.433   8.935 -1.1666  0.6927 -0.0643
33938SOL    HW1 5602   3.003   9.393   8.898  0.0980 -3.2799  0.9960
33938SOL    HW2 5603   3.054   9.475   9.015 -2.1400 -1.7761  0.9711
33939SOL     OW 5604  10.151  10.242   7.980  0.4757  0.5573 -0.1550
33939SOL    HW1 5605  10.201  10.323   7.972  1.1152  0.0339 -2.0223
33939SOL    HW2 5606  10.094  10.242   7.903  0.5539 -0.7912 -0.2330
33940SOL     OW 5607   6.830   6.939   7.906 -0.6799 -0.2132 -0.3967
33940SOL    HW1 5608   6.902   6.889   7.868 -0.7565  1.2445 -2.6736
33940SOL    HW2 5609   6.797   6.885   7.977  1.2132 -1.9280 -0.7458
33941SOL     OW 5610   4.794   4.502   0.029  0.7504 -0.0015 -0.4597
33941SOL    HW1 5611   4.886   4.480   0.020  0.6401 -0.2234 -1.0922
33941SOL    HW2 5612   4.768   4.534  -0.058  0.4294  0.7984 -0.0815
33942SOL     OW 5613  10.250   8.594   8.648 -0.0237 -0.0336 -0.5079
33942SOL    HW1 5614  10.290   8.648   8.716 -2.6921  0.4217  0.8226
33942SOL    HW2 5615  10.160   8.580   8.678 -0.9791 -0.7996 -3.4008
33943SOL     OW 5616   8.373   2.557   7.274 -0.5121  0.5126 -0.8689
33943SOL    HW1 5617   8.442   2.578   7.211 -0.2816 -1.1835 -1.2128
33943SOL    HW2 5618   8.411   2.490   7.330 -0.3678  2.6110  1.7368
33944SOL     OW 5619   4.230   0.820   9.479 -0.1119 -0.3777 -0.1748
33944SOL    HW1 5620   4.280   0.749   9.519  0.4781 -0.5725 -1.2224
33944SOL    HW2 5621   4.197   0.870   9.553 -0.2652 -1.5487  0.5846
33945SOL     OW 5622   1.240   0.283   9.348 -1.0282 -0.2407  0.0536
33945SOL    HW1 5623   1.220   0.193   9.373 -0.9700 -0.2677  0.0007
33945SOL    HW2 5624   1.328   0.299   9.382 -1.3147  0.0311  0.7042
33946SOL     OW 5625   8.052   0.570   4.447 -0.0957  0.4539 -0.0607
33946SOL    HW1 5626   7.989   0.526   4.503  0.7074  2.4203  2.5817
33946SOL    HW2 5627   8.055   0.660   4.480  0.5091  1.7487 -3.2587
33947SOL     OW 5628   0.110   7.901   6.040  0.6286 -0.1548  0.1428
33947SOL    HW1 5629   0.023   7.915   6.003  0.8193  2.1874  0.4056
33947SOL    HW2 5630   0.093   7.865   6.127 -0.3544  3.0762  1.4586
33948SOL     OW 5631   1.606   4.731   7.135 -0.2822 -0.2843 -0.0926
33948SOL    HW1 5632   1.681   4.722   7.194 -0.5136 -0.4169  0.1897
33948SOL    HW2 5633   1.632   4.797   7.071  0.7047 -1.5015 -0.9878
33949SOL     OW 5634   3.230   7.058   0.699 -0.0120  0.2742  0.1272
33949SOL    HW1 5635   3.198   6.968   0.697  0.6928  0.0215 -0.0422
33949SOL    HW2 5636   3.233   7.080   0.792 -0.0517  0.0699  0.1770
33950SOL     OW 5637   2.702   1.623   2.634 -0.2167  0.0258  0.1819
33950SOL    HW1 5638   2.636   1.632   2.702  0.5385 -0.2497  0.9695
33950SOL    HW2 5639   2.657   1.650   2.554 -0.8405  1.3661  0.9314
33951SOL     OW 5640   9.033   3.138   9.564 -0.1539  0.1690  0.5395
33951SOL    HW1 5641   9.074   3.182   9.637 -1.9200  0.5186  1.3799
33951SOL    HW2 5642   8.983   3.207   9.520  2.6837  0.5466 -2.5101
33952SOL     OW 5643   7.520   9.048   2.681 -0.0121  0.2972  0.4704
33952SOL    HW1 5644   7.440   8.998   2.666 -1.0097  2.0957 -0.7076
33952SOL    HW2 5645   7.552   9.067   2.593  1.4811 -0.0080  0.9292
33953SOL     OW 5646   3.712   5.131   9.850 -0.3871 -0.1191  0.6579
33953SOL    HW1 5647   3.662   5.211   9.863  1.2788  0.5599  4.1373
33953SOL    HW2 5648   3.760   5.146   9.768 -1.6254  1.5380  0.1767
33954SOL     OW 5649   0.433   8.050   8.781  0.3038  0.2668  0.4826
33954SOL    HW1 5650   0.410   8.057   8.688 -0.4092  0.3568  0.6589
33954SOL    HW2 5651   0.380   8.118   8.824  0.2309 -0.1220  1.0226
33955SOL     OW 5652   4.464   9.657   1.521 -0.7536 -0.1414  0.0261
33955SOL    HW1 5653   4.536   9.707   1.483 -0.3425  1.7092  2.8603
33955SOL    HW2 5654   4.416   9.622   1.446  0.8435  1.8296 -2.0620
33956SOL     OW 5655   2.316   5.368   7.255 -0.3480 -0.1042 -0.0460
33956SOL    HW1 5656   2.246   5.402   7.309  0.9691  1.3284  0.8630
33956SOL    HW2 5657   2.273   5.312   7.190 -1.9131 -2.7524  3.0296
33957SOL     OW 5658   1.061   9.165   8.182  0.0315 -1.3476 -0.2187
33957SOL    HW1 5659   1.134   9.120   8.140 -0.3769 -1.5799 -0.6861
33957SOL    HW2 5660   1.099   9.202   8.262  1.2276  0.4450 -1.5349
33958SOL     OW 5661   2.844   8.726   9.689  0.2540  0.2278 -0.2504
33958SOL    HW1 5662   2.865   8.715   9.782  0.4124 -0.3417 -0.3522
33958SOL    HW2 5663   2.750   8.744   9.688  0.1779 -0.1340 -0.0025
33959SOL     OW 5664   4.166   5.347   8.864 -0.4786 -0.7640 -0.0673
33959SOL    HW1 5665   4.242   5.388   8.822  0.4739 -2.2654  0.0861
33959SOL    HW2 5666   4.161   5.260   8.824 -0.5848 -1.6092  1.6753
33960SOL     OW 5667   0.184   8.916   9.544  0.0189 -0.5692  0.0682
33960SOL    HW1 5668   0.219   8.917   9.455 -1.7502  1.6551 -0.6956
33960SOL    HW2 5669   0.089   8.924   9.533 -0.3520 -1.2795  2.1540
33961SOL     OW 5670   9.377   2.335   1.900 -0.2811  0.1858  0.1258
33961SOL    HW1 5671   9.290   2.306   1.928  0.3765 -0.9295  1.1118
33961SOL    HW2 5672   9.360   2.403   1.835 -1.9176 -1.2181 -1.0049
33962SOL     OW 5673   4.193   3.048   5.568  0.7620 -0.2637  0.6471
33962SOL    HW1 5674   4.210   3.072   5.659  1.4162  0.6459  0.3046
33962SOL    HW2 5675   4.126   3.111   5.539  0.4546 -0.6369  0.5303
33963SOL     OW 5676   9.367   6.648   8.983  0.1120 -0.4366 -0.2817
33963SOL    HW1 5677   9.389   6.558   9.005 -1.4727 -0.8571 -0.2844
33963SOL    HW2 5678   9.391   6.657   8.890 -1.5773 -1.5431 -0.8898
33964SOL     OW 5679   4.638   6.365   2.143 -0.0422 -0.5514  0.5035
33964SOL    HW1 5680   4.626   6.450   2.185 -2.5996 -1.4169  1.7279
33964SOL    HW2 5681   4.716   6.329   2.185 -0.2603  0.2436  1.6455
33965SOL     OW 5682   2.880   1.966   5.482  0.7301  0.1465  0.1628
33965SOL    HW1 5683   2.894   2.054   5.518  1.2904 -0.1730  0.7333
33965SOL    HW2 5684   2.888   1.978   5.388  2.7830  0.3679  0.3301
33966SOL     OW 5685   8.354   4.260   5.708  0.5053  0.1110  0.5409
33966SOL    HW1 5686   8.374   4.183   5.656  0.9973  0.8914 -0.4406
33966SOL    HW2 5687   8.434   4.312   5.707 -0.4693  1.6844 -0.6871
33967SOL     OW 5688   5.525   4.549   9.726 -0.0815 -0.2419  0.5550
33967SOL    HW1 5689   5.561   4.606   9.658 -0.3172  0.1471  0.7476
33967SOL    HW2 5690   5.600   4.499   9.757 -0.0093 -0.5643 -0.1233
33968SOL     OW 5691   1.894   3.842   6.719 -0.3213 -1.0491 -0.3015
33968SOL    HW1 5692   1.927   3.929   6.743 -1.5048 -0.6218 -0.1903
33968SOL    HW2 5693   1.915   3.834   6.626 -0.5814 -0.4659 -0.4167
33969SOL     OW 5694   1.509   4.264   7.439  0.2144  0.2144 -0.0374
33969SOL    HW1 5695   1.416   4.268   7.414 -0.0682  1.2881  1.1103
33969SOL    HW2 5696   1.520   4.336   7.501  1.9059  0.2983 -0.4064
33970SOL     OW 5697   1.843   6.300   9.594 -0.4988  0.5599 -0.1361
33970SOL    HW1 5698   1.865   6.364   9.662  0.9368  0.5354 -0.5585
33970SOL    HW2 5699   1.914   6.236   9.597  0.4328  1.3702 -2.6355
33971SOL     OW 5700   1.304   1.116   7.803 -0.1756 -0.4305 -0.4167
33971SOL    HW1 5701   1.300   1.102   7.897  0.3399 -0.1533 -0.3527
33971SOL    HW2 5702   1.215   1.141   7.778 -0.0354  0.6879  0.1817
33972SOL     OW 5703   1.183   6.490   1.237 -0.2059  0.6154 -0.3292
33972SOL    HW1 5704   1.251   6.456   1.178  0.2913  1.2985 -0.1717
33972SOL    HW2 5705   1.110   6.512   1.180  0.0728  0.7748 -0.6278
33973SOL     OW 5706   2.111   9.355   3.709 -0.0342 -0.1443  0.3049
33973SOL    HW1 5707   2.202   9.325   3.709  1.3457  3.4566  1.3851
33973SOL    HW2 5708   2.078   9.330   3.795  0.9139  0.8762  0.9986
33974SOL     OW 5709   8.052   7.947   5.122 -0.0675  0.0103  0.9051
33974SOL    HW1 5710   8.105   8.009   5.072  0.7794 -1.6727 -0.3731
33974SOL    HW2 5711   8.097   7.940   5.206  0.2899  0.5104  0.7605
33975SOL     OW 5712   6.787   4.456   5.242  0.2993  0.5803  1.1541
33975SOL    HW1 5713   6.710   4.437   5.189  1.3913  0.5774 -0.4987
33975SOL    HW2 5714   6.846   4.504   5.184  1.5196  0.6593  2.3904
33976SOL     OW 5715   8.371   8.881   8.068  0.1575  0.0163  0.0059
33976SOL    HW1 5716   8.343   8.909   7.981  0.4656 -2.9608 -1.1690
33976SOL    HW2 5717   8.450   8.830   8.052  0.1044 -0.7719  2.0307
33977SOL     OW 5718   4.832   6.763   1.307  0.5339  0.1675  0.6456
33977SOL    HW1 5719   4.867   6.827   1.246  2.9195 -0.0159  1.7158
33977SOL    HW2 5720   4.741   6.790   1.321  0.5086  1.3254 -1.4513
33978SOL     OW 5721   8.333   1.668   9.506  0.1813 -0.1137  0.0831
33978SOL    HW1 5722   8.313   1.610   9.580 -0.8282  0.2363  0.0965
33978SOL    HW2 5723   8.275   1.638   9.436  0.1851  0.4036 -0.1416
33979SOL     OW 5724   8.824   6.547   5.026  0.0508  0.1480  0.2678
33979SOL    HW1 5725   8.813   6.572   5.118  1.0474  0.2371  0.3831
33979SOL    HW2 5726   8.771   6.468   5.016  0.1543 -0.0261  1.0057
33980SOL     OW 5727   4.585   2.493   1.113  0.9474  0.1823 -0.3572
33980SOL    HW1 5728   4.587   2.574   1.163 -0.6678 -0.3512  0.6489
33980SOL    HW2 5729   4.672   2.455   1.124  1.4103  1.3086 -0.0704
33981SOL     OW 5730   3.507   3.154   5.265 -0.4210  0.5687  0.6824
33981SOL    HW1 5731   3.592   3.195   5.251 -0.8941  1.5907  0.6991
33981SOL    HW2 5732   3.449   3.226   5.288 -1.4464 -0.0162  0.0262
33982SOL     OW 5733   2.414   6.796   3.886 -0.4101 -0.5692  0.1114
33982SOL    HW1 5734   2.499   6.781   3.844  0.2921 -2.0735  1.9652
33982SOL    HW2 5735   2.393   6.714   3.929 -1.4680  0.6330  2.0327
33983SOL     OW 5736   7.877   6.579   6.517  0.1954 -0.1710  0.1828
33983SOL    HW1 5737   7.886   6.605   6.425 -1.1103 -0.6553 -0.0971
33983SOL    HW2 5738   7.818   6.643   6.555  1.9724  0.9786  1.1306
33984SOL     OW 5739   8.428   1.159   6.508  0.7270  0.0401 -0.0681
33984SOL    HW1 5740   8.434   1.163   6.412  0.1935 -2.3410 -0.2605
33984SOL    HW2 5741   8.415   1.250   6.535 -1.7954  0.5353 -2.4732
33985SOL     OW 5742   8.381   2.881   8.172  0.7393 -1.1524  0.1228
33985SOL    HW1 5743   8.394   2.814   8.105  1.5727 -2.1405  1.2239
33985SOL    HW2 5744   8.335   2.836   8.243 -3.7784  0.8150 -1.2427
33986SOL     OW 5745   9.537   9.044   0.565 -0.2406 -0.2971 -0.0112
33986SOL    HW1 5746   9.460   9.100   0.566 -0.7874 -1.0466  1.3283
33986SOL    HW2 5747   9.611   9.105   0.573 -0.5193  0.5764 -2.8883
33987SOL     OW 5748   6.085   1.455   7.807 -0.1396 -0.0983 -0.0520
33987SOL    HW1 5749   6.042   1.520   7.752  0.9984  0.1042 -0.7397
33987SOL    HW2 5750   6.178   1.476   7.801  0.0563 -0.2087  1.7819
33988SOL     OW 5751   2.809   0.555   5.300  0.2230 -0.1698 -0.0509
33988SOL    HW1 5752   2.724   0.525   5.333  0.4241 -3.6224 -2.2195
33988SOL    HW2 5753   2.871   0.529   5.367  0.0145 -1.7980 -0.4602
33989SOL     OW 5754   9.762   8.011   8.919  0.1271  0.2520 -0.1352
33989SOL    HW1 5755   9.798   7.942   8.974  1.1939  0.5389 -0.4440
33989SOL    HW2 5756   9.806   8.000   8.834 -0.1156  0.9452 -0.3625
33990SOL     OW 5757   1.004   9.581   9.076 -0.6503 -0.0373  0.0805
33990SOL    HW1 5758   1.045   9.588   9.162  1.8557  1.8502 -1.1155
33990SOL    HW2 5759   1.039   9.500   9.039 -0.8277 -0.2616  0.4006
33991SOL     OW 5760   8.380   3.266   3.831 -0.2979 -0.3132  0.5147
33991SOL    HW1 5761   8.407   3.217   3.754  2.0161 -0.5520  1.3891
33991SOL    HW2 5762   8.418   3.353   3.819 -0.8397 -0.0202  0.8846
33992SOL     OW 5763   7.352   1.356   8.424 -0.0579  0.0259 -0.2910
33992SOL    HW1 5764   7.288   1.404   8.478  0.2563 -0.5741  0.6374
33992SOL    HW2 5765   7.298   1.311   8.359 -0.9716 -2.6413  2.0763
33993SOL     OW 5766   6.262   9.769   3.207 -0.5173 -0.8434 -0.0820
33993SOL    HW1 5767   6.226   9.712   3.274 -0.4335 -0.9426 -0.1216
33993SOL    HW2 5768   6.193   9.833   3.190 -0.5046 -0.7613  0.1649
33994SOL     OW 5769   5.800   2.329  10.344  0.0665  0.0852 -0.0064
33994SOL    HW1 5770   5.764   2.241  10.355  2.0059 -0.9631 -1.2649
33994SOL    HW2 5771   5.810   2.339  10.249  1.6534  0.8499  0.1998
33995SOL     OW 5772   7.337   7.871   7.018  0.0508 -0.5023  0.4754
33995SOL    HW1 5773   7.430   7.893   7.012  0.5451 -2.4344  0.2862
33995SOL    HW2 5774   7.294   7.954   7.040  1.8284  0.3885  0.8060
33996SOL     OW 5775   8.967   8.011   3.026 -0.6827 -0.0537  0.1307
33996SOL    HW1 5776   9.016   7.968   3.096 -0.3780 -2.3650 -1.4068
33996SOL    HW2 5777   9.027   8.078   2.992  0.1466 -0.6459  0.4046
33997SOL     OW 5778   6.172   5.698   2.774 -0.7221 -0.5164  0.0423
33997SOL    HW1 5779   6.172   5.629   2.841  0.0726  1.0626  1.7724
33997SOL    HW2 5780   6.234   5.763   2.807 -0.7237  0.5990 -1.9939
33998SOL     OW 5781   7.317   8.485   5.765  0.2791  0.2539  0.6448
33998SOL    HW1 5782   7.244   8.468   5.824 -1.3244 -1.8550 -1.7119
33998SOL    HW2 5783   7.393   8.495   5.822 -1.6382  1.4775  3.1458
33999SOL     OW 5784   2.073   2.916   9.449  0.1781  0.7671 -0.3051
33999SOL    HW1 5785   2.116   3.001   9.461  0.7545  0.2728  1.3823
33999SOL    HW2 5786   1.981   2.938   9.439  0.5718  1.7254 -2.1590
34000SOL     OW 5787  10.058   8.653   7.768 -0.2457  0.1526 -0.4820
34000SOL    HW1 5788  10.001   8.605   7.708  0.1929 -1.4403  0.3217
34000SOL    HW2 5789   9.998   8.699   7.827 -0.7029 -0.5032 -0.4248
34001SOL     OW 5790   4.721   4.759   9.621  0.2475 -0.3125  0.3670
34001SOL    HW1 5791   4.631   4.729   9.630 -0.1032  0.7214  0.5268
34001SOL    HW2 5792   4.728   4.832   9.683  1.0265 -0.0269 -0.0400
34002SOL     OW 5793   2.210   3.237   7.364 -0.2357  0.1354 -0.6817
34002SOL    HW1 5794   2.158   3.317   7.356 -0.0477  0.5412  1.4865
34002SOL    HW2 5795   2.298   3.263   7.335  0.5556  1.6220  2.5898
34003SOL     OW 5796   8.817   5.981  10.039 -0.2348  0.4308 -0.0807
34003SOL    HW1 5797   8.833   6.048  10.106  1.1844  1.3429 -1.2713
34003SOL    HW2 5798   8.901   5.970   9.996  0.0883 -3.4055  1.1414
34004SOL     OW 5799   2.806   2.009   6.444 -0.0804  0.0679 -0.2202
34004SOL    HW1 5800   2.806   2.026   6.350 -1.0717  1.3109 -0.0323
34004SOL    HW2 5801   2.737   2.067   6.478  1.0716  0.5288  1.4175
34005SOL     OW 5802   8.544   5.914   3.335  0.4211  0.4920 -0.1341
34005SOL    HW1 5803   8.548   5.944   3.244 -0.7251  1.0273 -0.0264
34005SOL    HW2 5804   8.574   5.823   3.331 -0.8646  0.0726 -1.2799
34006SOL     OW 5805   5.201   2.104   8.384 -0.3444  0.1777  0.1462
34006SOL    HW1 5806   5.152   2.075   8.307 -1.9462  0.8118  0.8900
34006SOL    HW2 5807   5.185   2.198   8.388  1.3020  0.4827  0.1807
34007SOL     OW 5808   9.717   7.277   8.474 -0.4801 -0.2181 -0.1370
34007SOL    HW1 5809   9.730   7.305   8.383  0.8121  0.5903  0.2845
34007SOL    HW2 5810   9.803   7.247   8.503 -0.9544 -0.7733  0.7323
34008SOL     OW 5811   8.988   5.856   7.106  0.3863  0.1817 -0.6024
34008SOL    HW1 5812   9.053   5.799   7.064  0.6667  0.4391 -0.5211
34008SOL    HW2 5813   9.001   5.941   7.064 -0.0813  0.1746 -0.7771
34009SOL     OW 5814   1.054   5.580   3.170  0.3508  0.1115  0.0065
34009SOL    HW1 5815   1.002   5.655   3.140 -0.2507 -0.2334  0.1779
34009SOL    HW2 5816   0.990   5.512   3.189  0.7752  0.0392  1.2806
34010SOL     OW 5817   3.470   2.115   7.706  0.3882  0.1881  0.5542
34010SOL    HW1 5818   3.470   2.041   7.645  0.8238  1.1159 -0.6056
34010SOL    HW2 5819   3.377   2.137   7.718  0.3328  0.8363 -0.8561
34011SOL     OW 5820   2.464   7.802   7.843 -0.3950  0.2166  0.1170
34011SOL    HW1 5821   2.555   7.819   7.870 -0.8609  2.8389  0.2766
34011SOL    HW2 5822   2.452   7.708   7.858  1.1789  0.3859  3.6061
34012SOL     OW 5823   0.457   7.787   1.940  0.0573  0.1902  0.3207
34012SOL    HW1 5824   0.390   7.801   2.006 -0.7244  0.5397 -0.5261
34012SOL    HW2 5825   0.501   7.871   1.931  2.0333 -0.5325  2.3394
34013SOL     OW 5826   0.711   0.247   2.520  0.0320 -0.4238  0.5778
34013SOL    HW1 5827   0.774   0.184   2.484 -1.1776 -1.8547  0.8731
34013SOL    HW2 5828   0.655   0.270   2.446  1.5292  1.7675  0.0177
34014SOL     OW 5829   9.240   4.463   0.004 -0.1029 -0.3522 -0.1626
34014SOL    HW1 5830   9.231   4.379   0.050 -0.3143  0.5010  1.4495
34014SOL    HW2 5831   9.156   4.508   0.020  0.1418  0.3148 -0.6977
34015SOL     OW 5832   6.294  10.281   0.887 -0.6105 -0.0148  0.0524
34015SOL    HW1 5833   6.242  10.217   0.935 -2.0181  1.6925  0.9282
34015SOL    HW2 5834   6.385  10.263   0.913 -0.9001 -1.9479 -0.1604
34016SOL     OW 5835   1.859   2.330   1.747 -0.4319 -0.0458  0.5779
34016SOL    HW1 5836   1.799   2.290   1.809 -0.0089 -0.7512  0.5436
34016SOL    HW2 5837   1.936   2.272   1.747 -0.2755  0.1463 -0.3191
34017SOL     OW 5838   7.830   4.052   9.228 -0.1598  0.1504  0.2755
34017SOL    HW1 5839   7.833   4.147   9.235 -1.9948  0.1439  2.0829
34017SOL    HW2 5840   7.822   4.021   9.318  2.3081 -1.8830 -0.0749
34018SOL     OW 5841   7.874   2.970   5.096  0.0415  0.7294 -0.4237
34018SOL    HW1 5842   7.941   2.988   5.031  1.0400  0.3266  0.4594
34018SOL    HW2 5843   7.916   2.988   5.180 -1.0359  0.7055  0.1464
34019SOL     OW 5844   9.154   7.830   2.666 -0.7966 -0.2219 -0.4057
34019SOL    HW1 5845   9.211   7.788   2.730 -1.7448 -0.9601 -0.0065
34019SOL    HW2 5846   9.069   7.837   2.711 -1.0734  0.6841 -1.0373
34020SOL     OW 5847   2.208   1.786   9.030 -0.0227 -0.7786  0.1757
34020SOL    HW1 5848   2.248   1.822   8.951 -1.7175  1.6163  0.3098
34020SOL    HW2 5849   2.272   1.802   9.099 -0.4372  1.4900  0.0946
34021SOL     OW 5850   9.647   9.185   0.922 -0.0067  0.8873 -0.5712
34021SOL    HW1 5851   9.687   9.268   0.898  1.0663  0.3142 -0.8507
34021SOL    HW2 5852   9.559   9.188   0.884  1.1159  0.6072 -3.4780
34022SOL     OW 5853   9.221   8.742   3.942  0.0980  0.4968  0.5961
34022SOL    HW1 5854   9.128   8.748   3.918  0.4082  0.2663 -0.7210
34022SOL    HW2 5855   9.220   8.719   4.035 -1.1625  0.6118  0.6301
34023SOL     OW 5856   8.233   0.696   0.826 -0.7058  0.0491 -0.1115
34023SOL    HW1 5857   8.184   0.615   0.812 -0.3529  0.1552 -2.4099
34023SOL    HW2 5858   8.168   0.765   0.822 -0.8148 -0.0223  0.3896
34024SOL     OW 5859   9.091   5.401   9.941 -0.1997  0.2023 -0.2797
34024SOL    HW1 5860   9.130   5.317   9.919 -0.7625 -0.3897  0.9133
34024SOL    HW2 5861   8.997   5.383   9.947 -0.5445  1.2955 -1.7086
34025SOL     OW 5862   8.417   2.545   3.120 -0.2751  0.0819 -0.1107
34025SOL    HW1 5863   8.390   2.604   3.190  0.0171  1.7035 -1.3018
34025SOL    HW2 5864   8.339   2.539   3.063  0.5535  1.6359 -1.4841
34026SOL     OW 5865   9.387   9.611   3.866 -0.3615 -0.2043  0.5924
34026SOL    HW1 5866   9.417   9.589   3.778  0.5680  0.3010  0.7776
34026SOL    HW2 5867   9.409   9.534   3.919  1.4127  0.4687  0.8986
34027SOL     OW 5868   9.840   7.823   1.389  0.2760  0.5456  0.0374
34027SOL    HW1 5869   9.919   7.833   1.336  0.4549 -0.8214  0.0104
34027SOL    HW2 5870   9.855   7.742   1.439 -1.1157  0.2568  0.0191
34028SOL     OW 5871   6.082   9.823   2.206 -0.4655  0.2971  0.3540
34028SOL    HW1 5872   5.991   9.794   2.209 -0.4916  0.0844 -1.4586
34028SOL    HW2 5873   6.111   9.804   2.117  1.2338  0.7613  0.7601
34029SOL     OW 5874   7.668   5.344   7.605 -0.7293  0.2013  0.9197
34029SOL    HW1 5875   7.710   5.349   7.690 -0.1209  0.9111  0.5932
34029SOL    HW2 5876   7.587   5.393   7.615  0.2865  2.0616  0.5825
34030SOL     OW 5877  10.016   3.107   7.164 -0.8920 -0.1146 -0.5953
34030SOL    HW1 5878   9.943   3.082   7.107 -0.8887 -1.5561 -0.0180
34030SOL    HW2 5879  10.020   3.037   7.229  1.0568 -0.1166 -0.6611
34031SOL     OW 5880   1.337   6.373   7.754  0.1030 -0.0326 -0.3944
34031SOL    HW1 5881   1.423   6.344   7.783 -0.5874 -0.7538  1.0350
34031SOL    HW2 5882   1.336   6.467   7.770  0.7040  0.0226 -0.6605
34032SOL     OW 5883   6.854   1.613   6.783  0.0939  0.2082 -0.2229
34032SOL    HW1 5884   6.805   1.679   6.831 -1.8228 -0.6603 -0.9027
34032SOL    HW2 5885   6.900   1.662   6.715  0.4420  1.0717  0.6094
34033SOL     OW 5886   5.819   1.448   2.111  0.3075 -0.1812  0.1153
34033SOL    HW1 5887   5.869   1.525   2.083 -1.3908  0.6134 -0.9309
34033SOL    HW2 5888   5.732   1.483   2.133  0.2972 -1.4265  2.3511
34034SOL     OW 5889   9.203   2.368   9.494  0.1131  0.2661  0.4423
34034SOL    HW1 5890   9.171   2.296   9.547 -0.1685  0.2278  0.2235
34034SOL    HW2 5891   9.203   2.334   9.404  0.2741  0.4362  0.3765
34035SOL     OW 5892   0.349   5.743   8.442  1.1395  0.1207 -0.2298
34035SOL    HW1 5893   0.288   5.680   8.480 -0.4047  1.1117 -0.9544
34035SOL    HW2 5894   0.367   5.805   8.513  1.9573 -0.6094  0.2174
34036SOL     OW 5895   5.795   5.599   6.344  0.3500  0.2701  1.1273
34036SOL    HW1 5896   5.785   5.550   6.263 -2.2238  1.6796  0.4724
34036SOL    HW2 5897   5.853   5.672   6.321 -0.0678  0.4520  0.6383
34037SOL     OW 5898   0.311   1.598   6.172  0.2062  0.4779 -0.4890
34037SOL    HW1 5899   0.239   1.553   6.127  0.3106 -0.5126  0.2904
34037SOL    HW2 5900   0.272   1.680   6.202 -0.2418  0.5278 -1.1672
34038SOL     OW 5901   3.178   5.156   6.343  0.0013  0.1972  0.2385
34038SOL    HW1 5902   3.087   5.157   6.312  0.6362 -2.0608 -2.0937
34038SOL    HW2 5903   3.224   5.215   6.283  0.1951  0.8552  1.0248
34039SOL     OW 5904   0.742   6.941   3.295 -0.0471 -0.9867  0.2919
34039SOL    HW1 5905   0.754   6.868   3.235  0.3947 -1.7326  1.2649
34039SOL    HW2 5906   0.747   7.019   3.240  1.0424 -1.6218 -0.5301
34040SOL     OW 5907   3.620   7.416   7.942 -0.2903 -0.0456 -0.1704
34040SOL    HW1 5908   3.556   7.462   7.888  0.2083 -1.8513 -2.4406
34040SOL    HW2 5909   3.566   7.363   8.002 -0.8816  0.3656 -0.3276
34041SOL     OW 5910   2.584   6.671   6.027 -0.2234 -0.5572  0.3382
34041SOL    HW1 5911   2.584   6.745   6.089 -0.2771  0.3348 -0.7020
34041SOL    HW2 5912   2.512   6.616   6.056 -0.9130  0.3790  0.4749
34042SOL     OW 5913   2.673   8.034   1.943  0.1451  0.2702  0.0522
34042SOL    HW1 5914   2.630   7.960   1.901 -0.7032  0.7660  0.0149
34042SOL    HW2 5915   2.647   8.029   2.035  2.0918 -0.8778  0.5898
34043SOL     OW 5916   5.954   3.002   7.401 -0.5587  0.9754  0.1863
34043SOL    HW1 5917   5.885   2.939   7.419  0.2562  0.3278  1.2136
34043SOL    HW2 5918   6.011   2.958   7.338  0.7790  0.0210  1.9429
34044SOL     OW 5919   5.328   5.628  10.169  0.0401  0.3735 -0.7599
34044SOL    HW1 5920   5.274   5.687  10.222 -0.7112  0.1080 -1.2215
34044SOL    HW2 5921   5.418   5.655  10.188 -0.1370 -0.3883  1.4760
34045SOL     OW 5922   4.748   8.837   8.904  0.2087 -0.1613  0.2406
34045SOL    HW1 5923   4.709   8.823   8.991  1.8637  1.8231  1.4062
34045SOL    HW2 5924   4.689   8.898   8.860  1.2363  1.9159  1.5547
34046SOL     OW 5925   8.345   0.061   1.643  0.2570  0.3016 -0.4459
34046SOL    HW1 5926   8.356   0.077   1.549 -0.7158  0.4734 -0.5488
34046SOL    HW2 5927   8.434   0.054   1.677  0.6865 -2.2488 -1.7915
34047SOL     OW 5928   4.497   5.436   3.299 -0.2316  0.6255 -0.0109
34047SOL    HW1 5929   4.553   5.380   3.245 -0.4269  1.5790 -1.2500
34047SOL    HW2 5930   4.445   5.486   3.236 -2.1722  0.1115  1.0853
34048SOL     OW 5931   0.156   8.582   9.167  0.4413  0.2630  0.1556
34048SOL    HW1 5932   0.245   8.591   9.201 -0.2868 -1.2843  2.7014
34048SOL    HW2 5933   0.143   8.488   9.157 -1.1646  0.4010  0.6399
34049SOL     OW 5934   8.522   8.657   7.546  0.2357  0.6553 -0.0630
34049SOL    HW1 5935   8.568   8.634   7.465  0.2543  1.5979 -0.3325
34049SOL    HW2 5936   8.461   8.585   7.560  0.8585  0.0381 -0.4221
34050SOL     OW 5937   0.936  10.250   5.226  0.5269  0.2404 -0.9099
34050SOL    HW1 5938   1.008  10.202   5.186  0.2056 -0.6951 -0.4007
34050SOL    HW2 5939   0.973  10.336   5.246  1.3408 -0.0417 -1.1457
34051SOL     OW 5940   4.898   4.942   3.857  0.9061  0.6289 -0.0960
34051SOL    HW1 5941   4.982   4.914   3.893  0.8470 -0.7827 -0.9703
34051SOL    HW2 5942   4.910   5.036   3.839  2.5430  0.3147 -0.8465
34052SOL     OW 5943  10.350   7.890   4.305 -0.7757  0.1980 -0.0243
34052SOL    HW1 5944  10.366   7.975   4.265  0.0535 -0.1732 -0.4999
34052SOL    HW2 5945  10.429   7.873   4.358 -0.5462 -0.6490 -0.6134
34053SOL     OW 5946   5.073   3.666   6.875 -0.1322  0.6906 -0.7437
34053SOL    HW1 5947   5.047   3.620   6.795 -0.0556 -0.1686 -0.2961
34053SOL    HW2 5948   5.148   3.616   6.907  0.9762  2.0829 -1.0768
34054SOL     OW 5949   7.728   3.645   9.479 -0.2856  0.0216  0.2040
34054SOL    HW1 5950   7.721   3.739   9.493  0.2138  0.3358 -1.4694
34054SOL    HW2 5951   7.642   3.619   9.447 -0.3817 -0.0673  0.5332
34055SOL     OW 5952   2.788   9.408   7.735  0.3039 -0.2950 -0.6479
34055SOL    HW1 5953   2.760   9.495   7.709 -0.9299 -1.0457 -1.9751
34055SOL    HW2 5954   2.877   9.400   7.701  0.5424  0.5351 -0.2454
34056SOL     OW 5955   2.502   2.592   7.702 -0.4361  0.3072  0.0265
34056SOL    HW1 5956   2.518   2.587   7.797 -0.4760  0.5194  0.0446
34056SOL    HW2 5957   2.551   2.670   7.674 -1.6108  1.1034  0.1222
34057SOL     OW 5958   7.761   8.095   1.802  0.3580  0.5683 -0.2539
34057SOL    HW1 5959   7.738   8.062   1.889 -1.9123  1.1421 -0.5714
34057SOL    HW2 5960   7.801   8.020   1.758 -0.5078 -0.4084  0.5681
34058SOL     OW 5961   7.536   2.425   5.621  0.6317 -0.1038  0.3803
34058SOL    HW1 5962   7.487   2.447   5.700 -0.4992  1.8158 -0.7859
34058SOL    HW2 5963   7.618   2.387   5.653  0.8383  1.9456  2.5285
34059SOL     OW 5964   3.377   7.246   1.976  0.2054 -0.2723 -0.3777
34059SOL    HW1 5965   3.397   7.258   2.069 -0.0355 -2.5555  0.0160
34059SOL    HW2 5966   3.292   7.289   1.965 -0.9636 -2.0672  1.0829
34060SOL     OW 5967   1.914   0.998   5.009 -0.3468 -0.0321  0.3227
34060SOL    HW1 5968   1.891   1.091   5.010  0.4647  0.1965 -0.8243
34060SOL    HW2 5969   1.855   0.959   4.945 -0.8570 -0.3748  0.9821
34061SOL     OW 5970   4.780   7.332   1.098 -0.6230 -0.1474  0.1521
34061SOL    HW1 5971   4.729   7.345   1.019 -0.3881  0.6503  0.1184
34061SOL    HW2 5972   4.803   7.421   1.127 -0.4483 -0.4335  0.9405
34062SOL     OW 5973   7.381   6.727   4.004 -0.1561  0.1779 -0.1680
34062SOL    HW1 5974   7.462   6.677   4.011 -0.9264 -1.0359  0.3236
34062SOL    HW2 5975   7.322   6.669   3.955 -0.9503  0.7642  0.0920
34063SOL     OW 5976   3.775   1.453   5.382  0.1204  0.1962  0.4524
34063SOL    HW1 5977   3.770   1.547   5.371  2.5880  0.2310 -1.0986
34063SOL    HW2 5978   3.809   1.441   5.471  1.5721  0.9065  0.0313
34064SOL     OW 5979   3.720   9.353   9.035 -0.0630  0.0691  0.9150
34064SOL    HW1 5980   3.702   9.430   9.089 -0.0710 -0.6992  2.0496
34064SOL    HW2 5981   3.742   9.285   9.098  0.8058 -0.6318 -0.1204
34065SOL     OW 5982   8.081   0.219   4.109 -0.2145 -0.0551 -0.2737
34065SOL    HW1 5983   8.017   0.155   4.137  2.3661 -2.0905  1.4801
34065SOL    HW2 5984   8.030   0.297   4.087 -3.2585 -1.7768  0.2441
34066SOL     OW 5985   4.244   0.202   3.831  0.3079 -0.2189 -0.3759
34066SOL    HW1 5986   4.272   0.117   3.795  1.4714  0.0028 -0.0432
34066SOL    HW2 5987   4.325   0.252   3.839  0.1428 -0.2426  2.5585
34067SOL     OW 5988   3.996   3.963   7.948 -0.2905  0.2758  0.3752
34067SOL    HW1 5989   3.960   3.972   8.036 -1.0637  1.7349 -0.0431
34067SOL    HW2 5990   3.939   4.018   7.893 -0.2653 -1.1658 -1.1684
34068SOL     OW 5991   2.243   4.025   9.397  0.4339  0.0915 -0.4334
34068SOL    HW1 5992   2.224   4.031   9.491  1.5120 -1.0130 -0.1237
34068SOL    HW2 5993   2.199   4.101   9.359  1.5668  1.6425  1.2139
34069SOL     OW 5994   2.937   6.724   4.669  0.7795 -0.8684  0.0512
34069SOL    HW1 5995   2.999   6.764   4.609  0.3943  1.8538  1.3256
34069SOL    HW2 5996   2.855   6.718   4.618  0.8567 -0.0537 -0.1716
34070SOL     OW 5997   6.884   4.936   6.755  0.2705 -0.0803  0.0882
34070SOL    HW1 5998   6.972   4.973   6.745 -0.4588  1.5345 -0.7007
34070SOL    HW2 5999   6.889   4.850   6.713  1.4686 -0.0235  0.0905
34071SOL     OW 6000   5.558   4.660   7.461 -0.2411  0.4048  0.3315
34071SOL    HW1 6001   5.468   4.633   7.439  0.0266 -0.1910 -0.0432
34071SOL    HW2 6002   5.613   4.609   7.403  0.3465  0.8186  0.5205
34072SOL     OW 6003   2.425   1.854   2.996  0.1255 -1.0180  1.1745
34072SOL    HW1 6004   2.460   1.930   3.043  2.3320 -0.1257 -1.6254
34072SOL    HW2 6005   2.331   1.872   2.988  0.2556  0.3710  2.3219
34073SOL     OW 6006   3.963   5.278   2.317  1.0444 -0.1185  0.0074
34073SOL    HW1 6007   3.894   5.212   2.317 -1.3429  2.1748 -1.7373
34073SOL    HW2 6008   3.968   5.308   2.407  0.8141 -1.2987  0.4316
34074SOL     OW 6009   6.979   0.806   8.823 -0.1756 -0.2244 -0.4815
34074SOL    HW1 6010   6.967   0.893   8.786  1.7018  1.2846  2.1798
34074SOL    HW2 6011   6.902   0.792   8.878 -0.0951  0.0825 -0.2909
34075SOL     OW 6012   0.260   5.321   2.429 -0.4253 -0.7794  0.1897
34075SOL    HW1 6013   0.168   5.318   2.456 -1.2215 -2.4188 -2.3107
34075SOL    HW2 6014   0.303   5.376   2.495 -3.4035  1.0602  0.7986
34076SOL     OW 6015   5.108   3.447   3.298  0.0447 -0.5700  0.1238
34076SOL    HW1 6016   5.189   3.399   3.317  0.9123  1.2015  1.1610
34076SOL    HW2 6017   5.065   3.395   3.230  2.2221 -1.4150 -0.7161
34077SOL     OW 6018   1.757   0.142   8.320  0.0313 -0.5280 -0.3206
34077SOL    HW1 6019   1.793   0.142   8.409 -1.2962 -0.4102  0.2331
34077SOL    HW2 6020   1.807   0.073   8.275  0.1987 -1.1250  0.7309
34078SOL     OW 6021   7.940   3.144   5.552 -0.1432  1.1608  0.4783
34078SOL    HW1 6022   7.846   3.129   5.561 -0.5718  1.5675 -2.3982
34078SOL    HW2 6023   7.981   3.066   5.591 -1.6292  0.8700  1.5504
34079SOL     OW 6024   5.547   0.741   1.199 -0.1682  0.7523 -0.4193
34079SOL    HW1 6025   5.524   0.652   1.169  0.6983  0.5819 -0.6144
34079SOL    HW2 6026   5.464   0.789   1.198 -0.3363  0.5129 -2.3117
34080SOL     OW 6027   2.686   5.148   3.613  0.3185 -0.3779 -0.0247
34080SOL    HW1 6028   2.703   5.054   3.619  1.5672 -0.3465 -1.9504
34080SOL    HW2 6029   2.755   5.180   3.554  1.5959  2.2183  2.6472
34081SOL     OW 6030   8.765   1.807   1.670  0.0560  0.0005  0.0488
34081SOL    HW1 6031   8.817   1.777   1.745  0.8085  1.5141  0.1621
34081SOL    HW2 6032   8.817   1.780   1.594 -0.1812 -0.5974  0.0961
34082SOL     OW 6033   0.904   0.225   2.924 -0.4076 -0.2641 -0.4223
34082SOL    HW1 6034   0.865   0.298   2.971  1.3205  1.7531 -1.9168
34082SOL    HW2 6035   0.842   0.205   2.854 -0.4421  0.4407 -0.5936
34083SOL     OW 6036   9.195   3.419   7.499  0.7071  0.3496  0.2823
34083SOL    HW1 6037   9.242   3.359   7.556 -0.3712  0.0163  0.8537
34083SOL    HW2 6038   9.260   3.448   7.435  1.4588 -0.7359  0.5361
34084SOL     OW 6039   3.975   2.608   5.976  0.0494  0.0656 -0.2635
34084SOL    HW1 6040   4.035   2.569   6.039  0.1296  1.8667  0.8615
34084SOL    HW2 6041   3.934   2.534   5.932 -1.2059 -1.3792  3.0439
34085SOL     OW 6042   2.375   9.241   4.511  0.5971 -0.2469 -0.4493
34085SOL    HW1 6043   2.287   9.226   4.546  0.3957  0.3453 -0.6950
34085SOL    HW2 6044   2.400   9.156   4.473  0.4772 -0.6593  0.3547
34086SOL     OW 6045   5.503   6.980   1.016  0.2318 -0.1861 -0.0111
34086SOL    HW1 6046   5.410   6.985   1.040  0.2268 -2.5194  0.7503
34086SOL    HW2 6047   5.548   6.967   1.100  1.1004 -0.4942 -0.5148
34087SOL     OW 6048   1.490   3.706   0.895 -0.1007  0.0079 -0.6682
34087SOL    HW1 6049   1.459   3.701   0.805  1.1151  0.5291 -1.1411
34087SOL    HW2 6050   1.570   3.759   0.890 -0.8730  1.4527  0.9371
34088SOL     OW 6051   6.930   3.681   0.065 -0.1034 -0.2439  0.3624
34088SOL    HW1 6052   6.915   3.772   0.092 -1.4329 -0.3028 -0.1492
34088SOL    HW2 6053   6.869   3.630   0.118 -1.8064 -0.4948 -1.7354
34089SOL     OW 6054   1.316   2.694   9.125 -0.3123  0.3035 -0.1401
34089SOL    HW1 6055   1.242   2.671   9.069 -0.8029  1.2923  0.0776
34089SOL    HW2 6056   1.390   2.646   9.087 -1.2066 -1.4214  0.1811
34090SOL     OW 6057   8.742   9.332   8.723 -0.1341  0.2753 -0.1011
34090SOL    HW1 6058   8.703   9.251   8.689  0.6119 -0.7214  1.3486
34090SOL    HW2 6059   8.827   9.305   8.757  0.9151  2.0177 -1.1978
34091SOL     OW 6060   3.157   3.262   6.034  0.0331 -0.9719  0.3343
34091SOL    HW1 6061   3.118   3.244   6.120 -0.5677 -1.4419 -0.0241
34091SOL    HW2 6062   3.235   3.206   6.032  0.6758 -0.1413  0.9936
34092SOL     OW 6063   8.408   4.193   0.239 -0.2939 -0.5443  0.4392
34092SOL    HW1 6064   8.406   4.215   0.332 -0.1289  0.5490  0.1928
34092SOL    HW2 6065   8.495   4.157   0.224 -0.0116  0.0976  0.5303
34093SOL     OW 6066   6.800   7.304   5.962  0.1305 -0.0858 -0.3434
34093SOL    HW1 6067   6.880   7.283   5.914 -0.1226 -1.6833 -0.1253
34093SOL    HW2 6068   6.730   7.298   5.896  0.1264  0.8889 -0.4426
34094SOL     OW 6069   4.071   2.671   7.496  0.3963 -0.2770 -0.1080
34094SOL    HW1 6070   4.005   2.713   7.551  0.8290 -0.0221  0.2267
34094SOL    HW2 6071   4.152   2.717   7.517  0.4391  0.3397 -1.5203
34095SOL     OW 6072   8.083   2.692   6.802 -0.1541  0.4776 -0.0250
34095SOL    HW1 6073   8.133   2.728   6.875  0.6222 -1.0450  0.2281
34095SOL    HW2 6074   8.003   2.745   6.799  0.1762  1.0882  1.4090
34096SOL     OW 6075   2.122   8.424   2.329 -0.0184  0.5763 -0.0301
34096SOL    HW1 6076   2.130   8.344   2.276 -0.3236  0.4498  0.1065
34096SOL    HW2 6077   2.083   8.393   2.411 -1.1864  1.0318 -0.3948
34097SOL     OW 6078   8.662   4.958   3.432 -0.3789  0.0152  0.1601
34097SOL    HW1 6079   8.592   4.903   3.395 -0.6775  0.6496 -0.2300
34097SOL    HW2 6080   8.630   5.047   3.421  0.3033  0.2878  0.3875
34098SOL     OW 6081   8.149   7.548   1.295 -0.3928  0.7381 -0.1483
34098SOL    HW1 6082   8.077   7.575   1.238 -0.9420  1.0583  0.6788
34098SOL    HW2 6083   8.105   7.508   1.371  0.3144 -3.2415 -1.5689
34099SOL     OW 6084   1.457   3.003   4.840  0.1774  0.0989  0.7824
34099SOL    HW1 6085   1.474   3.025   4.748 -0.4598 -0.3019  0.5607
34099SOL    HW2 6086   1.392   2.933   4.836 -0.6038  0.7583  1.5593
34100SOL     OW 6087   4.790   2.095  10.267  0.1742  0.1960 -0.5784
34100SOL    HW1 6088   4.854   2.028  10.244 -1.2325 -0.9877 -1.2183
34100SOL    HW2 6089   4.743   2.059  10.342  1.3981  1.8496  1.0685
34101SOL     OW 6090   1.407   5.081   5.039  0.5340 -0.1064  0.0656
34101SOL    HW1 6091   1.334   5.126   4.996  0.5583  0.0113  0.1457
34101SOL    HW2 6092   1.400   4.991   5.010  0.3989 -0.0806  0.0147
34102SOL     OW 6093   7.802   7.253   7.175 -0.1378 -0.0442  0.0528
34102SOL    HW1 6094   7.836   7.172   7.136 -0.5452  0.2005 -0.8164
34102SOL    HW2 6095   7.880   7.300   7.205  0.1073 -0.7290  0.5284
34103SOL     OW 6096  10.355   8.195   4.257 -0.3555 -0.1537 -0.0263
34103SOL    HW1 6097  10.295   8.214   4.329 -2.3343  0.8769 -1.8084
34103SOL    HW2 6098  10.383   8.282   4.226  0.3020 -0.5723 -0.6444
34104SOL     OW 6099   7.350   5.623  10.119  0.3085 -0.7257 -0.3345
34104SOL    HW1 6100   7.307   5.700  10.081 -0.1545 -0.9039 -0.1800
34104SOL    HW2 6101   7.285   5.587  10.180  1.1143 -0.3239  0.7985
34105SOL     OW 6102  10.329   1.233   1.295 -0.0982  0.2350 -0.7843
34105SOL    HW1 6103  10.260   1.237   1.228 -0.1633  1.9091 -0.6752
34105SOL    HW2 6104  10.297   1.289   1.365 -0.3927 -2.1310  1.0634
34106SOL     OW 6105   0.484   2.061   8.969 -0.0130 -0.1894 -0.3779
34106SOL    HW1 6106   0.452   2.000   8.902 -1.8044 -1.6136  1.6251
34106SOL    HW2 6107   0.414   2.063   9.034  0.3931  3.3331  0.1449
34107SOL     OW 6108   2.268   3.763   8.987  0.1184 -0.5686 -0.0240
34107SOL    HW1 6109   2.325   3.836   8.963 -0.5463  0.3311  0.9769
34107SOL    HW2 6110   2.207   3.801   9.051 -1.7512 -1.4119 -1.2029
34108SOL     OW 6111   8.085   2.508   9.852 -0.5240 -0.2287  0.0459
34108SOL    HW1 6112   8.157   2.509   9.915  1.4944 -2.9237 -1.9706
34108SOL    HW2 6113   8.080   2.598   9.819  0.7569  0.4004  1.4382
34109SOL     OW 6114   3.552   7.717   4.609 -0.4181  0.3355 -0.7203
34109SOL    HW1 6115   3.550   7.624   4.589 -0.2424  0.2998 -0.5780
34109SOL    HW2 6116   3.461   7.745   4.603 -0.1996  0.7333 -3.3841
34110SOL     OW 6117   9.856   6.987   5.911 -0.3426  0.4208  0.0649
34110SOL    HW1 6118   9.895   6.917   5.859 -2.6822  0.4344 -1.9029
34110SOL    HW2 6119   9.930   7.030   5.953  1.2963 -2.3059  0.2196
34111SOL     OW 6120   1.642   4.219   0.277 -0.2216  0.3903  0.1628
34111SOL    HW1 6121   1.634   4.290   0.213 -0.2704 -0.8041 -1.1764
34111SOL    HW2 6122   1.553   4.207   0.310 -0.2495  0.8009  0.2468
34112SOL     OW 6123   7.772   5.279   9.956  0.2453 -0.1807  0.4330
34112SOL    HW1 6124   7.836   5.220   9.915 -0.0971 -1.4978  1.7295
34112SOL    HW2 6125   7.689   5.230   9.953 -1.0001  1.8235 -1.9786
34113SOL     OW 6126   7.346  10.309   5.923  0.2550 -0.0212  0.2069
34113SOL    HW1 6127   7.419  10.312   5.984  0.1298 -1.3289  0.4501
34113SOL    HW2 6128   7.382  10.341   5.840  1.0040 -0.3519  0.4024
34114SOL     OW 6129   8.672   7.500   4.450  0.1260 -0.0409 -0.0470
34114SOL    HW1 6130   8.695   7.503   4.357  1.5215 -1.7153  0.2039
34114SOL    HW2 6131   8.577   7.514   4.451 -0.1182 -1.1400 -1.8210
34115SOL     OW 6132   6.646   5.432   8.680 -0.2127  0.1122 -0.1136
34115SOL    HW1 6133   6.645   5.341   8.709 -1.8299  0.0912 -0.1458
34115SOL    HW2 6134   6.585   5.476   8.739  2.9897  1.9543  2.1113
34116SOL     OW 6135   1.131   6.211   5.713  0.0691  0.6348 -0.3757
34116SOL    HW1 6136   1.170   6.295   5.735  0.8671  0.0871  0.3605
34116SOL    HW2 6137   1.038   6.221   5.734  0.2318  1.1960  0.0810
34117SOL     OW 6138   8.882   5.322   8.150  0.1811 -0.1977 -0.1842
34117SOL    HW1 6139   8.860   5.243   8.199 -0.4749  0.5803  0.8325
34117SOL    HW2 6140   8.977   5.320   8.143  0.1295 -1.4498 -0.8563
34118SOL     OW 6141  10.114   8.697   1.313 -0.1578 -0.4059 -0.1674
34118SOL    HW1 6142  10.119   8.699   1.409 -0.7531 -0.7462 -0.1234
34118SOL    HW2 6143  10.053   8.625   1.294  0.7572 -1.0240 -0.8349
34119SOL     OW 6144   4.576   7.391   2.154  0.5771  0.1859 -0.0853
34119SOL    HW1 6145   4.592   7.359   2.065  1.1301 -0.2126  0.1540
34119SOL    HW2 6146   4.640   7.461   2.166 -0.5920  1.3991 -0.5895
34120SOL     OW 6147   0.983   9.323   4.994  0.3480  0.2622  0.1916
34120SOL    HW1 6148   1.064   9.273   4.987 -0.2775 -0.5332 -1.8558
34120SOL    HW2 6149   0.925   9.267   5.047 -0.3769 -1.3293 -2.1446
34121SOL     OW 6150   8.993   5.966   4.676 -0.4631 -0.2313 -0.4632
34121SOL    HW1 6151   8.969   5.936   4.589 -0.7340  0.2655 -0.5614
34121SOL    HW2 6152   9.084   5.995   4.668  0.7110 -3.3179  0.1988
34122SOL     OW 6153   0.921   4.545   4.648 -0.1797  0.0760  0.7832
34122SOL    HW1 6154   0.868   4.541   4.569  0.3447 -1.5511  0.4750
34122SOL    HW2 6155   0.997   4.489   4.629  0.1736 -0.0009  2.2762
34123SOL     OW 6156   1.133   7.283   1.634 -0.2466  0.6463 -0.1286
34123SOL    HW1 6157   1.108   7.363   1.588  0.4010  0.3830 -0.9614
34123SOL    HW2 6158   1.146   7.310   1.725 -0.2540  1.4392 -0.3592
34124SOL     OW 6159   1.846   1.551   4.842  0.4566  0.3701  0.7004
34124SOL    HW1 6160   1.817   1.605   4.915  0.1990 -0.2677  1.0800
34124SOL    HW2 6161   1.765   1.517   4.804  0.4726  2.0058 -0.9337
34125SOL     OW 6162   8.142   2.389   0.294 -0.2611  0.3752 -0.2492
34125SOL    HW1 6163   8.061   2.382   0.344 -0.7473 -2.2125 -1.2111
34125SOL    HW2 6164   8.116   2.424   0.209 -0.6601 -1.5221 -0.9659
34126SOL     OW 6165   2.213   9.655   6.735 -0.1594  0.3826 -0.1311
34126SOL    HW1 6166   2.159   9.662   6.813 -0.8926 -0.5494 -0.5360
34126SOL    HW2 6167   2.153   9.675   6.663  0.5674  1.4993 -0.4524
34127SOL     OW 6168   2.571   1.668  10.341  0.5381  1.0882 -0.2151
34127SOL    HW1 6169   2.567   1.621  10.425  1.8023 -0.7232 -1.1004
34127SOL    HW2 6170   2.479   1.672  10.312  0.4451 -3.0871 -1.1787
34128SOL     OW 6171   1.677   8.086   7.976  0.3566 -0.4364  0.3073
34128SOL    HW1 6172   1.684   8.180   7.959  0.0147 -0.6423 -1.1172
34128SOL    HW2 6173   1.673   8.078   8.071  0.5715  0.9763  0.4456
34129SOL     OW 6174   4.250   3.460   6.447 -0.1269 -0.3361  0.6781
34129SOL    HW1 6175   4.209   3.389   6.398  0.6395  0.6702 -1.5289
34129SOL    HW2 6176   4.282   3.418   6.527 -0.1538 -2.3657 -0.3161
34130SOL     OW 6177   9.795   3.983   6.973 -0.9115  0.4465 -0.1068
34130SOL    HW1 6178   9.860   4.000   7.041  0.6793  0.7549 -1.6372
34130SOL    HW2 6179   9.735   4.057   6.979  0.2230  1.4021 -0.1648
34131SOL     OW 6180   8.225   9.801   4.785 -0.3749  0.2287 -0.3242
34131SOL    HW1 6181   8.237   9.896   4.792 -0.9314  0.2057  1.1373
34131SOL    HW2 6182   8.289   9.774   4.719  0.2253  1.5241 -0.3028
34132SOL     OW 6183  10.206   8.317  10.323 -0.6845  0.4821 -0.3813
34132SOL    HW1 6184  10.265   8.254  10.365 -2.0888 -1.0387 -0.5985
34132SOL    HW2 6185  10.140   8.337  10.389 -1.6729 -0.2548 -1.1092
34133SOL     OW 6186   6.168   1.152   2.435 -0.2766  0.2654  0.1546
34133SOL    HW1 6187   6.186   1.058   2.436  1.5612  0.5282 -1.5381
34133SOL    HW2 6188   6.205   1.183   2.352 -2.5452  2.1964 -0.2733
34134SOL     OW 6189   0.847   9.389   7.797 -0.4512  0.0126  0.0696
34134SOL    HW1 6190   0.920   9.375   7.858 -1.7554 -0.5180  1.5962
34134SOL    HW2 6191   0.835   9.303   7.756 -0.1534  0.1339 -0.2788
34135SOL     OW 6192   0.714   1.715   8.899 -0.1854  0.1871 -0.2936
34135SOL    HW1 6193   0.752   1.692   8.984 -3.0370  1.1457  1.3755
34135SOL    HW2 6194   0.697   1.631   8.856 -0.3767 -0.4063  0.9112
34136SOL     OW 6195   0.153   5.729   4.926 -0.2565 -0.2440  0.1126
34136SOL    HW1 6196   0.215   5.730   4.998  1.0700 -3.4886 -0.8132
34136SOL    HW2 6197   0.074   5.691   4.962 -1.0191  1.7648  0.7154
34137SOL     OW 6198   9.349   1.565   2.517 -0.6008 -0.0402 -0.0815
34137SOL    HW1 6199   9.286   1.504   2.555  0.1682 -1.4116 -0.9293
34137SOL    HW2 6200   9.424   1.511   2.494  1.5672  1.7336  2.2639
34138SOL     OW 6201   4.008   2.440   0.265 -0.1767  0.1672  0.0864
34138SOL    HW1 6202   4.045   2.352   0.256  0.3971  0.1087  2.2913
34138SOL    HW2 6203   3.959   2.455   0.185 -1.2834 -2.6453  0.1421
34139SOL     OW 6204   8.083   4.936   5.499 -0.1459  0.1010 -0.1859
34139SOL    HW1 6205   8.164   4.939   5.549 -0.0317 -0.6507 -0.3163
34139SOL    HW2 6206   8.029   4.872   5.546 -1.2614  1.6548  0.7668
34140SOL     OW 6207   4.137   5.099   1.070  0.1484  0.1498 -0.5347
34140SOL    HW1 6208   4.130   5.092   0.975 -0.7279  0.2069 -0.4793
34140SOL    HW2 6209   4.231   5.096   1.087  0.2996 -0.2016 -1.3742
34141SOL     OW 6210   7.115   3.084   6.078  0.5290  0.2222  0.0181
34141SOL    HW1 6211   7.109   2.989   6.072 -0.4404  0.3499 -1.7260
34141SOL    HW2 6212   7.085   3.104   6.167  1.1378 -1.1143  0.5533
34142SOL     OW 6213   0.781   0.393   3.099  0.1861 -1.0360  0.0439
34142SOL    HW1 6214   0.839   0.383   3.174  1.3560 -0.7556 -0.7956
34142SOL    HW2 6215   0.743   0.480   3.109  1.4320 -0.4156 -0.4003
34143SOL     OW 6216   7.944   8.676   2.926 -0.5013  0.4752 -0.2960
34143SOL    HW1 6217   7.935   8.756   2.875  0.8455  0.6241 -0.3206
34143SOL    HW2 6218   7.909   8.607   2.869  0.8494  0.6601 -1.3835
34144SOL     OW 6219   8.219   8.454   2.205  0.2001 -0.0857 -0.2929
34144SOL    HW1 6220   8.292   8.508   2.235 -0.5194  0.7825 -0.0506
34144SOL    HW2 6221   8.194   8.403   2.283  1.3343 -1.3393 -0.7075
34145SOL     OW 6222   9.645   8.654   0.944 -0.1538 -0.1934  0.5849
34145SOL    HW1 6223   9.573   8.650   1.008  0.7829 -1.0932  1.6163
34145SOL    HW2 6224   9.610   8.707   0.872 -1.7957 -0.4841  1.1314
34146SOL     OW 6225   7.370   3.560   6.590 -0.3780 -0.0709 -0.0236
34146SOL    HW1 6226   7.417   3.588   6.669  0.3379  0.4075 -0.6059
34146SOL    HW2 6227   7.420   3.483   6.560  0.3778  0.7588 -0.9442
34147SOL     OW 6228   9.045   8.882   5.235  0.0829  0.3743  0.0968
34147SOL    HW1 6229   9.134   8.907   5.214  0.6711  0.0277  2.0128
34147SOL    HW2 6230   9.003   8.963   5.265  0.4318  0.1222  1.3053
34148SOL     OW 6231   9.275   4.591  10.092  0.1039  0.0314  0.1194
34148SOL    HW1 6232   9.235   4.554  10.171 -0.1917 -0.6532 -0.3433
34148SOL    HW2 6233   9.365   4.558  10.092  0.0436 -0.1322  0.0647
34149SOL     OW 6234   7.781   4.608   8.601  0.0568  0.0509 -0.3041
34149SOL    HW1 6235   7.786   4.703   8.604  2.2289 -0.0015  3.0250
34149SOL    HW2 6236   7.716   4.586   8.669  0.5738 -0.8521 -0.0907
34150SOL     OW 6237   0.555   6.679   8.751  0.2096  0.2272 -0.2314
34150SOL    HW1 6238   0.630   6.625   8.724 -1.0290 -0.8544 -1.6872
34150SOL    HW2 6239   0.589   6.769   8.749  1.1630 -0.1128 -2.1446
34151SOL     OW 6240   3.380   2.325   5.718 -0.5697 -0.4472 -0.1565
34151SOL    HW1 6241   3.337   2.405   5.748 -0.4325 -0.8053  1.0796
34151SOL    HW2 6242   3.315   2.283   5.662  0.0022  1.3394 -2.2662
34152SOL     OW 6243   7.323   7.248   1.867 -0.0770  0.1242 -0.1173
34152SOL    HW1 6244   7.256   7.245   1.936  1.0497 -1.8246  1.0010
34152SOL    HW2 6245   7.309   7.169   1.816  1.0547 -0.0873 -0.1420
34153SOL     OW 6246   0.508   1.482   3.635 -0.0624  0.3030 -0.2911
34153SOL    HW1 6247   0.469   1.397   3.653 -1.0628  0.3337 -2.1095
34153SOL    HW2 6248   0.599   1.473   3.663 -0.9422 -0.2179  2.7470
34154SOL     OW 6249   1.569   9.576   8.538 -0.3866 -0.0076 -0.1357
34154SOL    HW1 6250   1.504   9.572   8.609 -0.5705 -0.5246 -0.3296
34154SOL    HW2 6251   1.640   9.519   8.567 -0.8721 -0.9672 -0.7657
34155SOL     OW 6252   7.258   3.572   6.206  0.4119 -0.3345  0.1232
34155SOL    HW1 6253   7.190   3.541   6.266  0.8749 -1.4512  0.0898
34155SOL    HW2 6254   7.308   3.636   6.257 -1.0027  0.9827 -0.0428
34156SOL     OW 6255   9.928   5.774   6.684  0.0861  0.2129 -0.1399
34156SOL    HW1 6256   9.982   5.741   6.613 -0.8114 -0.3920 -0.5625
34156SOL    HW2 6257   9.872   5.700   6.708 -0.8378  0.9403 -0.0009
34157SOL     OW 6258   3.279   3.197   6.702 -0.4502  0.1075  0.5011
34157SOL    HW1 6259   3.303   3.130   6.766 -1.6768  0.6835  1.5952
34157SOL    HW2 6260   3.223   3.151   6.639 -1.1624  0.0609  1.1616
34158SOL     OW 6261   1.594   7.779   6.035 -0.2411 -0.5329  0.4267
34158SOL    HW1 6262   1.601   7.873   6.050  1.5426 -0.5273 -0.1460
34158SOL    HW2 6263   1.513   7.769   5.986  0.7588  1.0466 -1.7143
34159SOL     OW 6264   3.432   7.564   7.818  0.0291  0.2805  0.2703
34159SOL    HW1 6265   3.428   7.659   7.824 -1.8174  0.2551  0.0461
34159SOL    HW2 6266   3.351   7.539   7.773  0.5971 -1.3845  0.0818
34160SOL     OW 6267   3.568   2.193   1.362  0.4820 -0.2706 -0.3110
34160SOL    HW1 6268   3.500   2.162   1.302 -1.4560  1.3037  0.9484
34160SOL    HW2 6269   3.632   2.236   1.305 -0.4855 -0.2000 -1.3861
34161SOL     OW 6270   6.546   0.686   6.357  0.1782 -0.0085  0.4676
34161SOL    HW1 6271   6.557   0.591   6.360 -1.0764 -0.1778  0.2435
34161SOL    HW2 6272   6.542   0.706   6.264  0.3367  0.2575  0.5178
34162SOL     OW 6273   0.236  10.105   0.451 -0.4132  0.7005 -0.1795
34162SOL    HW1 6274   0.151  10.113   0.408 -0.1197 -0.5660 -1.0880
34162SOL    HW2 6275   0.218  10.059   0.533 -0.8749  2.4533  0.7512
34163SOL     OW 6276   9.588   3.129   7.332 -0.4423  0.3519  1.1357
34163SOL    HW1 6277   9.540   3.092   7.406  1.8508  0.6727  2.8810
34163SOL    HW2 6278   9.643   3.197   7.370  0.6496  0.7013 -0.9091
34164SOL     OW 6279   4.749   4.450   3.422  0.0300  0.0280 -0.2726
34164SOL    HW1 6280   4.796   4.434   3.504 -0.1946  0.8400  0.0331
34164SOL    HW2 6281   4.705   4.534   3.436 -1.3906 -0.6278 -0.6112
34165SOL     OW 6282   3.668   8.261   9.655 -0.4146  0.0993  0.5030
34165SOL    HW1 6283   3.639   8.352   9.654  0.3677  0.3464 -0.6542
34165SOL    HW2 6284   3.637   8.225   9.572  1.4954  0.0480 -0.2321
34166SOL     OW 6285   5.158   9.905   7.779  0.2420  0.5273  0.2128
34166SOL    HW1 6286   5.112   9.851   7.715 -2.0688  1.7146  0.7435
34166SOL    HW2 6287   5.209   9.843   7.831 -0.9466 -0.9195 -0.2698
34167SOL     OW 6288   8.528   4.310   7.909  0.2469  0.1435 -0.4628
34167SOL    HW1 6289   8.491   4.222   7.905  0.8585 -0.1981  0.8311
34167SOL    HW2 6290   8.605   4.306   7.852  1.2402 -0.6791  0.8803
34168SOL     OW 6291   5.961   1.591   4.926  0.1323 -0.2844 -0.5826
34168SOL    HW1 6292   5.867   1.587   4.905 -0.0240  2.1595 -0.6851
34168SOL    HW2 6293   5.965   1.567   5.019 -0.8443  1.1106 -0.1401
34169SOL     OW 6294   1.963   2.368   7.662  0.2814  0.3913  0.3238
34169SOL    HW1 6295   2.004   2.451   7.637  1.0427 -0.4188 -1.2901
34169SOL    HW2 6296   2.034   2.304   7.658 -0.1008 -0.2423  2.3525
34170SOL     OW 6297   4.769   1.331   8.499  0.6335 -0.3596 -0.0240
34170SOL    HW1 6298   4.855   1.373   8.504  1.1323 -1.3616  0.0407
34170SOL    HW2 6299   4.775   1.270   8.427  0.2792 -1.1117  0.5676
34171SOL     OW 6300   9.989   3.017   1.439 -0.0773 -0.0341  0.5695
34171SOL    HW1 6301  10.006   2.947   1.376 -0.2202 -0.5996  1.1487
34171SOL    HW2 6302  10.027   3.095   1.399  2.9722 -0.9992  1.2933
34172SOL     OW 6303   6.282   0.718   7.678  0.0591 -0.0770 -0.2546
34172SOL    HW1 6304   6.279   0.670   7.595  1.6008  1.4599 -1.2622
34172SOL    HW2 6305   6.374   0.741   7.689 -0.3200  0.8380  1.2463
34173SOL     OW 6306   6.239   6.259   9.320 -0.1699  0.3514 -0.1087
34173SOL    HW1 6307   6.202   6.195   9.259  1.3159 -0.2928 -0.3804
34173SOL    HW2 6308   6.298   6.207   9.375 -1.0195  1.0257  1.5003
34174SOL     OW 6309   0.258   0.517   2.294  0.2695  0.7277  0.1615
34174SOL    HW1 6310   0.189   0.502   2.359 -1.3030  2.3004 -1.0627
34174SOL    HW2 6311   0.337   0.530   2.346  0.3734 -3.7677  1.5574
34175SOL     OW 6312   2.451   1.687   1.109  0.3827  0.2051  0.1182
34175SOL    HW1 6313   2.421   1.681   1.200  0.6808 -0.7979  0.1720
34175SOL    HW2 6314   2.546   1.678   1.115  0.7350  2.9310 -0.0805
34176SOL     OW 6315   7.549   1.116   3.665  0.4215  0.5519 -0.7351
34176SOL    HW1 6316   7.561   1.024   3.685 -0.9019  0.5716  0.2335
34176SOL    HW2 6317   7.507   1.117   3.579 -1.1785  0.1491 -0.0006
34177SOL     OW 6318   6.442   3.607   1.356 -0.1704  0.1597 -0.0627
34177SOL    HW1 6319   6.416   3.697   1.335 -1.1567  0.0511  0.6238
34177SOL    HW2 6320   6.367   3.554   1.331 -0.7785 -0.1452  2.1386
34178SOL     OW 6321   3.692   7.420   6.872  0.3787 -0.2533  0.2095
34178SOL    HW1 6322   3.609   7.445   6.830 -0.9066 -1.5152  1.8339
34178SOL    HW2 6323   3.721   7.344   6.821  1.4389  1.1404 -1.3593
34179SOL     OW 6324  10.099   9.536   0.700 -0.6190  0.2357  0.6044
34179SOL    HW1 6325  10.101   9.610   0.639 -0.0365 -0.4980 -0.2906
34179SOL    HW2 6326  10.104   9.577   0.787  1.1415  1.1977  0.0985
34180SOL     OW 6327   2.543   4.840   7.337 -0.0929  0.2445  0.0483
34180SOL    HW1 6328   2.481   4.808   7.403  1.7506 -0.5672  1.4667
34180SOL    HW2 6329   2.554   4.933   7.357 -0.6607  0.3439 -0.0777
34181SOL     OW 6330  10.092   4.073   9.401  0.2966 -0.0375  0.0734
34181SOL    HW1 6331  10.050   4.049   9.318  0.5229 -0.6675  0.1322
34181SOL    HW2 6332  10.124   3.990   9.436 -0.1017  0.1723  0.9649
34182SOL     OW 6333   5.725   0.337   5.651  0.2896  0.2292  0.1933
34182SOL    HW1 6334   5.694   0.249   5.672 -0.4560  0.3302 -0.4440
34182SOL    HW2 6335   5.692   0.392   5.722  1.4950 -0.1196  1.0693
34183SOL     OW 6336   6.893   7.034   0.923  0.4443  0.3467 -0.3392
34183SOL    HW1 6337   6.844   7.042   0.842  0.9941 -1.6080 -0.9317
34183SOL    HW2 6338   6.826   7.023   0.991  0.0075 -0.4711 -0.8861
34184SOL     OW 6339   7.930   9.878   9.041  0.1511 -0.3600  0.2239
34184SOL    HW1 6340   7.930   9.819   8.966  0.5297 -0.3775  0.2404
34184SOL    HW2 6341   8.008   9.855   9.091  0.7699  0.7040 -0.2092
34185SOL     OW 6342   0.812   6.182   4.096  0.4149 -0.4584 -0.1656
34185SOL    HW1 6343   0.736   6.156   4.045  0.4075 -1.7262  0.4430
34185SOL    HW2 6344   0.777   6.201   4.183  0.3499  2.1695 -0.6685
34186SOL     OW 6345   5.708   6.609   8.947 -0.5758 -0.5907  0.0731
34186SOL    HW1 6346   5.760   6.684   8.919  0.8921 -2.0919 -1.4460
34186SOL    HW2 6347   5.619   6.629   8.918 -0.5392  1.1878  1.0499
34187SOL     OW 6348   3.351   3.831   7.738  0.3505  0.7534  0.3334
34187SOL    HW1 6349   3.409   3.890   7.785  2.1846 -0.8797  0.2607
34187SOL    HW2 6350   3.354   3.749   7.788  0.1130 -0.1424 -1.0525
34188SOL     OW 6351   8.483   7.584   8.704 -0.0141  0.0788 -0.3222
34188SOL    HW1 6352   8.401   7.558   8.662 -0.3081  0.0463  0.2675
34188SOL    HW2 6353   8.546   7.517   8.677 -0.6576 -1.0260  0.8257
34189SOL     OW 6354   6.283   6.552   8.849  0.1998  0.3274  0.7241
34189SOL    HW1 6355   6.223   6.588   8.784 -0.6086 -0.6366  0.9229
34189SOL    HW2 6356   6.320   6.474   8.808  0.8609  0.5631  0.8449
34190SOL     OW 6357   8.755   1.783   2.555  0.5637 -0.3532  0.1268
34190SOL    HW1 6358   8.836   1.809   2.510  0.5000  0.7350  0.6234
34190SOL    HW2 6359   8.686   1.828   2.507  0.2324 -1.2568 -0.2754
34191SOL     OW 6360   6.495   8.206   3.848  0.1772  0.2875 -0.5019
34191SOL    HW1 6361   6.518   8.220   3.757 -1.1823  3.3456 -0.4637
34191SOL    HW2 6362   6.517   8.288   3.892 -1.3341 -0.2727  1.4544
34192SOL     OW 6363   5.192  10.158   7.893 -0.5142 -0.2823  0.1399
34192SOL    HW1 6364   5.176  10.229   7.831 -2.0498  0.0551  0.8761
34192SOL    HW2 6365   5.164  10.079   7.847  2.4305 -0.6602 -1.1791
34193SOL     OW 6366   3.480   1.414   9.953 -0.4875 -0.3385 -0.3257
34193SOL    HW1 6367   3.451   1.430   9.864 -0.5322 -0.3940 -0.3217
34193SOL    HW2 6368   3.560   1.466   9.962 -1.5524  1.2684  0.2433
34194SOL     OW 6369   5.978   7.298   5.511  0.0313 -0.2286  0.3013
34194SOL    HW1 6370   5.993   7.375   5.456 -1.4334 -1.6012 -2.2143
34194SOL    HW2 6371   6.049   7.238   5.487  1.5162  0.4487  2.6822
34195SOL     OW 6372   9.111   3.077   8.717  0.3311  0.0674  0.0931
34195SOL    HW1 6373   9.071   3.144   8.773 -0.3659 -0.2456 -0.0196
34195SOL    HW2 6374   9.039   3.018   8.696  0.9188 -0.6660  0.1149
34196SOL     OW 6375   3.321   8.704   7.443  0.2058  0.7772  0.1438
34196SOL    HW1 6376   3.253   8.752   7.395 -0.5216  0.2418  0.6156
34196SOL    HW2 6377   3.341   8.760   7.518  1.9098  1.9947 -1.1240
34197SOL     OW 6378   7.813   4.973   9.926 -0.3938  0.1586  0.1513
34197SOL    HW1 6379   7.872   5.035   9.969  0.3701 -0.6742  0.3341
34197SOL    HW2 6380   7.726   5.000   9.954  0.0903 -0.7640  2.8056
34198SOL     OW 6381   1.333   9.330   3.390 -0.0388 -0.0064  0.3862
34198SOL    HW1 6382   1.424   9.301   3.390  0.0060 -0.0703 -1.7888
34198SOL    HW2 6383   1.304   9.318   3.480  1.6329 -1.4562  0.7991
34199SOL     OW 6384   3.458   8.452   0.092 -0.3682 -0.0722 -0.1134
34199SOL    HW1 6385   3.456   8.543   0.120 -1.4313 -0.0900 -0.0824
34199SOL    HW2 6386   3.417   8.453   0.005 -0.5090 -0.5341 -0.0547
34200SOL     OW 6387   7.629   4.063   7.019 -0.9301 -0.2801  0.7092
34200SOL    HW1 6388   7.577   4.138   7.047  0.3760  1.2301 -0.6766
34200SOL    HW2 6389   7.657   4.085   6.930  0.2679 -1.9969  0.6074
34201SOL     OW 6390  10.305   0.275   1.578  0.3499 -0.0438 -0.2321
34201SOL    HW1 6391  10.361   0.220   1.523  1.0987 -0.0301  0.5005
34201SOL    HW2 6392  10.253   0.326   1.516  0.8849 -0.3211 -0.9229
34202SOL     OW 6393   5.807   5.948   1.448  0.0712  0.2313  0.0477
34202SOL    HW1 6394   5.897   5.917   1.461 -0.3886 -0.9896  0.4744
34202SOL    HW2 6395   5.761   5.922   1.528 -1.6822 -3.1602 -1.8180
34203SOL     OW 6396  10.137   1.145   3.123  0.5444  0.1248 -0.3755
34203SOL    HW1 6397  10.148   1.236   3.095 -0.6104  0.2428 -0.4922
34203SOL    HW2 6398  10.167   1.093   3.049 -1.2994  0.4362 -1.4118
34204SOL     OW 6399   0.586   0.396   8.375  0.0503  0.5689 -0.4951
34204SOL    HW1 6400   0.670   0.359   8.346 -1.0304 -0.3574 -2.6695
34204SOL    HW2 6401   0.545   0.427   8.294 -2.0276  0.3241  0.4192
34205SOL     OW 6402   9.858   7.251   2.759 -0.5947  0.3363 -0.1922
34205SOL    HW1 6403   9.879   7.258   2.666  0.5036  0.3033  0.0472
34205SOL    HW2 6404   9.820   7.164   2.768  0.2619 -0.0692 -0.4343
34206SOL     OW 6405   8.670   4.765   2.991  0.0162  0.3091 -0.2805
34206SOL    HW1 6406   8.595   4.795   3.043 -0.2910 -0.2466 -0.3962
34206SOL    HW2 6407   8.741   4.825   3.015 -0.0854 -0.0051  0.8517
34207SOL     OW 6408   9.759   0.298   6.742  0.7689  0.4769 -0.0712
34207SOL    HW1 6409   9.767   0.393   6.729  0.6142  0.3428 -1.2238
34207SOL    HW2 6410   9.671   0.286   6.776  0.0536  0.6044 -1.7571
34208SOL     OW 6411   0.881   4.542   2.879 -0.5355 -0.1331  0.0925
34208SOL    HW1 6412   0.972   4.543   2.909 -0.6752  1.5426  0.6228
34208SOL    HW2 6413   0.838   4.476   2.934  0.7482 -2.5392 -1.6284
34209SOL     OW 6414   1.438   4.449   3.969 -0.3511 -0.3169  0.0222
34209SOL    HW1 6415   1.469   4.387   3.903 -2.6713 -1.3174 -0.2153
34209SOL    HW2 6416   1.381   4.397   4.026  0.6271  0.8029  2.1151
34210SOL     OW 6417   4.862   6.726   9.987 -0.0226  0.2755  0.1754
34210SOL    HW1 6418   4.859   6.637  10.021 -0.1182  0.1808 -0.0741
34210SOL    HW2 6419   4.772   6.743   9.959  0.0291  0.3946  0.0835
34211SOL     OW 6420   0.468   7.110   5.437 -0.6333  0.1159 -0.3788
34211SOL    HW1 6421   0.484   7.106   5.343 -2.0034 -1.6984 -0.5931
34211SOL    HW2 6422   0.374   7.094   5.446 -0.7722  1.5077  1.2514
34212SOL     OW 6423   9.946   6.362  10.245 -0.7234 -0.2047  0.1196
34212SOL    HW1 6424  10.040   6.378  10.247 -0.7903  0.2803 -0.4199
34212SOL    HW2 6425   9.916   6.403  10.164 -1.3482 -0.6388  0.1199
34213SOL     OW 6426   2.297   7.413   3.794 -0.3211  0.3267  0.1183
34213SOL    HW1 6427   2.215   7.367   3.813  0.1496 -1.0170 -0.8941
34213SOL    HW2 6428   2.364   7.365   3.844  0.0975  0.2991 -0.4580
34214SOL     OW 6429   3.802   8.236   0.929 -0.4832  0.4957 -0.2324
34214SOL    HW1 6430   3.879   8.189   0.962 -1.1663 -1.4625 -1.2563
34214SOL    HW2 6431   3.762   8.273   1.008  0.8000  0.4575  0.4665
34215SOL     OW 6432   6.852   5.209   6.576 -0.1626 -0.1460  0.2417
34215SOL    HW1 6433   6.809   5.124   6.588  1.6689 -1.1550  0.0994
34215SOL    HW2 6434   6.845   5.226   6.482  1.0690 -1.1117 -0.0648
34216SOL     OW 6435   5.876   4.639   9.668  0.0245 -0.3596 -0.0433
34216SOL    HW1 6436   5.897   4.582   9.594  0.3295 -0.5011  0.1454
34216SOL    HW2 6437   5.928   4.602   9.740  1.8245  1.3245 -0.3884
34217SOL     OW 6438   7.270   3.403   2.949  0.1981 -0.1058  0.5671
34217SOL    HW1 6439   7.210   3.418   3.023  1.2314  2.9285  0.9314
34217SOL    HW2 6440   7.357   3.418   2.986  0.6840  2.7638 -1.4459
34218SOL     OW 6441   1.942   2.133   3.311 -0.0055 -0.1753  0.1865
34218SOL    HW1 6442   2.032   2.134   3.281  0.1017 -1.9987  0.3825
34218SOL    HW2 6443   1.923   2.225   3.332  0.6346  0.8736 -3.1515
34219SOL     OW 6444   1.911   7.029   0.855 -0.2443 -0.2804  0.1923
34219SOL    HW1 6445   2.001   7.021   0.823 -0.1870 -0.6707  0.4446
34219SOL    HW2 6446   1.881   7.113   0.820  0.4848  0.2409  0.7631
34220SOL     OW 6447   9.779   9.818   8.724  0.5133  0.1408  0.6022
34220SOL    HW1 6448   9.786   9.797   8.631 -0.5729  2.8500 -0.1858
34220SOL    HW2 6449   9.694   9.783   8.751 -0.3369  1.5503 -0.1409
34221SOL     OW 6450   1.640   7.687   1.217  0.1189 -0.6676 -0.5123
34221SOL    HW1 6451   1.725   7.729   1.207  0.1570 -0.1573  1.5590
34221SOL    HW2 6452   1.661   7.593   1.224  0.5226 -0.5442  0.0141
34222SOL     OW 6453   7.343   6.990   3.853 -0.8101  0.4380  0.4300
34222SOL    HW1 6454   7.412   6.935   3.817 -1.0886 -0.6624  1.5185
34222SOL    HW2 6455   7.380   7.079   3.851  0.0581  0.0749 -0.3451
34223SOL     OW 6456   1.833   2.278   0.603  0.5377  0.4137 -0.8325
34223SOL    HW1 6457   1.907   2.220   0.583  1.5369  1.1598  0.5732
34223SOL    HW2 6458   1.873   2.354   0.645 -1.1107  0.4915  0.6854
34224SOL     OW 6459  10.272   2.970   2.984 -0.3021 -0.3617  0.6571
34224SOL    HW1 6460  10.197   3.014   2.943 -0.0151  0.9752  1.4887
34224SOL    HW2 6461  10.349   3.014   2.947  0.0835 -1.5908 -0.0409
34225SOL     OW 6462   9.686   7.747   4.259  0.3915 -0.8309 -0.2879
34225SOL    HW1 6463   9.696   7.781   4.348 -0.6976 -0.7736 -0.1700
34225SOL    HW2 6464   9.772   7.757   4.219  1.0717 -1.4766  0.9741
34226SOL     OW 6465   2.192   1.020   1.757  0.6867  0.0438  0.2544
34226SOL    HW1 6466   2.195   0.958   1.685 -0.5097  0.1947  0.0459
34226SOL    HW2 6467   2.100   1.047   1.762  1.0271  1.1802  0.8625
34227SOL     OW 6468   2.811   3.978   0.721  0.0155  0.0279 -0.4236
34227SOL    HW1 6469   2.860   3.954   0.642  1.2998 -0.6959  0.5621
34227SOL    HW2 6470   2.804   3.897   0.770 -0.7157  0.4871  0.2521
34228SOL     OW 6471   4.631   4.467   2.444  0.7052 -0.1235 -0.4415
34228SOL    HW1 6472   4.544   4.432   2.424  0.5067  0.5859 -0.8595
34228SOL    HW2 6473   4.624   4.498   2.534  0.3727  0.3756 -0.6353
34229SOL     OW 6474   5.964   5.687   2.623 -0.0671  0.1247  0.1151
34229SOL    HW1 6475   6.039   5.687   2.683  1.4374 -1.5602 -1.6365
34229SOL    HW2 6476   6.002   5.707   2.538 -1.8629  0.6026 -0.6077
34230SOL     OW 6477   1.264   5.320   9.904  0.1594  0.1368 -0.2233
34230SOL    HW1 6478   1.254   5.412   9.881  1.0753 -0.0251 -1.3364
34230SOL    HW2 6479   1.317   5.283   9.834 -2.1315 -1.7934 -1.0721
34231SOL     OW 6480   4.363   5.330   0.896  0.2441  0.4180  0.0236
34231SOL    HW1 6481   4.351   5.339   0.991 -1.8510 -1.0114 -0.0323
34231SOL    HW2 6482   4.301   5.393   0.858  1.8697  1.7903 -0.4471
34232SOL     OW 6483   4.196   4.894   2.473 -0.5305  0.3781  0.8676
34232SOL    HW1 6484   4.176   4.941   2.554  1.3936  1.1047  0.9735
34232SOL    HW2 6485   4.277   4.847   2.492  0.7842  1.7316 -1.0420
34233SOL     OW 6486   0.043   8.897   5.942  0.3461 -0.4242  0.2458
34233SOL    HW1 6487   0.094   8.969   5.905  0.5956 -0.7472 -0.0411
34233SOL    HW2 6488  -0.012   8.867   5.870 -0.4439  0.0911  0.6235
34234SOL     OW 6489  10.208   2.900   0.946  0.6175  0.0899  0.1451
34234SOL    HW1 6490  10.122   2.865   0.923 -0.0650  0.6459  1.7538
34234SOL    HW2 6491  10.264   2.822   0.950 -0.4904 -0.6776  1.9643
34235SOL     OW 6492   1.559   7.769   6.373 -0.6839  0.1902 -0.5578
34235SOL    HW1 6493   1.606   7.687   6.383 -0.7340  0.1710 -0.4808
34235SOL    HW2 6494   1.589   7.804   6.289 -1.4698 -0.4245 -1.0961
34236SOL     OW 6495   8.303   5.118   1.745  0.6383  0.0764  0.1179
34236SOL    HW1 6496   8.367   5.046   1.738  1.6185  0.5662  2.9927
34236SOL    HW2 6497   8.245   5.092   1.816  1.0674  2.1440  1.2937
34237SOL     OW 6498   8.194   2.923   7.527 -0.3665 -0.5407  0.2999
34237SOL    HW1 6499   8.171   3.009   7.493  1.3481  0.4555  1.4940
34237SOL    HW2 6500   8.273   2.898   7.478  2.3482  1.0627  3.4615
34238SOL     OW 6501   1.942   8.779   0.169  0.2258 -0.1427 -0.0400
34238SOL    HW1 6502   1.868   8.788   0.229 -1.0373 -0.5925 -1.4803
34238SOL    HW2 6503   2.017   8.764   0.227 -0.5800  1.4650  1.5101
34239SOL     OW 6504   1.284   6.221   9.645 -0.4163 -0.0460  0.1912
34239SOL    HW1 6505   1.351   6.281   9.613 -0.6941 -0.6758 -1.7019
34239SOL    HW2 6506   1.210   6.277   9.668  0.3166  0.5489  1.1876
34240SOL     OW 6507   3.484   3.773   5.244 -0.0846 -0.4644 -0.6587
34240SOL    HW1 6508   3.431   3.765   5.323 -1.8636 -3.5334 -1.9909
34240SOL    HW2 6509   3.554   3.709   5.255  0.6092  0.2373 -0.9027
34241SOL     OW 6510   6.661   3.304   5.984 -0.6145  0.2912  0.3672
34241SOL    HW1 6511   6.686   3.213   5.968 -2.0652 -0.3324  1.4530
34241SOL    HW2 6512   6.604   3.327   5.911 -0.0799  0.4075 -0.0177
34242SOL     OW 6513   7.341   3.798   0.190 -0.4115  0.3778 -0.2923
34242SOL    HW1 6514   7.267   3.798   0.250 -1.0021  1.3674 -0.9916
34242SOL    HW2 6515   7.410   3.749   0.236 -0.5215  1.8492  1.5571
34243SOL     OW 6516   0.400   2.615   0.121 -0.2927  0.1271 -0.1522
34243SOL    HW1 6517   0.369   2.669   0.049 -0.0945  0.1110 -0.2501
34243SOL    HW2 6518   0.495   2.629   0.122 -0.3275  0.3436  0.2807
34244SOL     OW 6519   2.447   7.084   8.843  0.0476  0.4332 -0.0414
34244SOL    HW1 6520   2.523   7.095   8.787  1.1330 -0.9325  1.0766
34244SOL    HW2 6521   2.476   7.024   8.911 -1.1935  2.0171  2.0189
34245SOL     OW 6522   6.775   5.753   9.004 -0.0531 -0.6641 -0.1715
34245SOL    HW1 6523   6.822   5.680   8.965  1.6125 -0.4857  1.3709
34245SOL    HW2 6524   6.694   5.715   9.037  1.3670 -2.1601  1.7958
34246SOL     OW 6525   8.602   3.473   9.485  0.2987 -0.5265  0.0254
34246SOL    HW1 6526   8.577   3.558   9.521 -0.1706 -0.3749 -0.6312
34246SOL    HW2 6527   8.695   3.481   9.466 -0.0225  0.3555 -1.3610
34247SOL     OW 6528   9.904   8.120   2.626  0.1926  0.2996 -0.0147
34247SOL    HW1 6529   9.979   8.159   2.581  0.3950 -1.6553 -1.4987
34247SOL    HW2 6530   9.935   8.104   2.715  1.2742  0.2208 -0.3943
34248SOL     OW 6531   2.825   1.100   7.586  0.0951  0.8571 -0.0475
34248SOL    HW1 6532   2.888   1.167   7.611  0.0269  0.9156 -0.0313
34248SOL    HW2 6533   2.761   1.146   7.531  1.5916  0.2311 -2.4431
34249SOL     OW 6534   1.256   2.272   9.065  0.5884  0.3249 -0.4478
34249SOL    HW1 6535   1.264   2.180   9.087 -0.9550  0.0994 -0.7252
34249SOL    HW2 6536   1.282   2.318   9.145  0.9947 -0.3493 -0.1835
34250SOL     OW 6537   1.893   0.198   6.849  0.2141  0.1083 -0.2025
34250SOL    HW1 6538   1.882   0.234   6.937 -0.7111  1.2913 -0.7674
34250SOL    HW2 6539   1.858   0.109   6.855 -3.5519  1.3927 -0.1810
34251SOL     OW 6540   5.293   3.134   7.048  0.2150  0.6780 -0.1137
34251SOL    HW1 6541   5.309   3.085   7.128 -0.4618 -0.2072 -0.4993
34251SOL    HW2 6542   5.371   3.121   6.995  0.7052  1.3468  0.4322
34252SOL     OW 6543   5.187   1.550   2.353  0.2978 -0.7777  0.6260
34252SOL    HW1 6544   5.132   1.519   2.281 -1.1392  0.1085  1.2773
34252SOL    HW2 6545   5.255   1.603   2.311 -0.2295 -0.6745 -0.1179
34253SOL     OW 6546   8.666   6.656   6.582 -0.1807 -0.2265 -0.3528
34253SOL    HW1 6547   8.712   6.578   6.614  0.6714  0.4153  0.0235
34253SOL    HW2 6548   8.667   6.717   6.656 -1.3408 -0.0605 -0.4547
34254SOL     OW 6549   4.330   4.199   6.141  0.2253  0.8771  0.2298
34254SOL    HW1 6550   4.365   4.120   6.182 -2.3216  0.4011  1.6744
34254SOL    HW2 6551   4.388   4.269   6.172  1.4517 -0.1740  0.3919
34255SOL     OW 6552   8.659   6.400   9.543  0.2046 -0.0661 -0.6128
34255SOL    HW1 6553   8.586   6.352   9.505 -1.1975  0.6247  1.0646
34255SOL    HW2 6554   8.655   6.486   9.501 -1.3020  0.6750  0.9350
34256SOL     OW 6555   0.937   7.294   1.047 -0.2117  0.2526  0.3163
34256SOL    HW1 6556   0.950   7.201   1.028  1.7663 -0.1991  3.1650
34256SOL    HW2 6557   0.903   7.295   1.137 -0.3170  2.2587  0.2912
34257SOL     OW 6558   1.650   5.356   7.717  0.0307 -0.4259  0.0203
34257SOL    HW1 6559   1.662   5.353   7.622  1.0342 -1.6918  0.1574
34257SOL    HW2 6560   1.642   5.449   7.738 -0.8194 -0.1612 -1.3663
34258SOL     OW 6561   8.365   0.982   0.064 -0.0634  0.5904 -0.3954
34258SOL    HW1 6562   8.400   0.901   0.101  1.5990  1.1967 -0.5584
34258SOL    HW2 6563   8.362   1.043   0.138  1.2356  1.1578 -0.7793
34259SOL     OW 6564   8.232   0.122   8.714  0.0866  0.1827 -0.1180
34259SOL    HW1 6565   8.175   0.045   8.708 -3.6338  2.7559 -0.9169
34259SOL    HW2 6566   8.271   0.129   8.627 -0.1584 -0.3409 -0.2774
34260SOL     OW 6567   8.860   3.604   9.723 -0.1254 -0.5081 -0.0758
34260SOL    HW1 6568   8.902   3.568   9.801  2.1586  1.5384 -0.2548
34260SOL    HW2 6569   8.813   3.681   9.754  0.9210  0.4066 -0.6795
34261SOL     OW 6570   6.669   1.341   6.557 -0.6747 -0.6121 -0.0693
34261SOL    HW1 6571   6.709   1.334   6.644  2.8809 -0.1864 -1.5095
34261SOL    HW2 6572   6.731   1.299   6.498 -1.4256  1.7612 -2.7959
34262SOL     OW 6573   6.255   6.638   4.211 -0.5790  0.1508 -0.1900
34262SOL    HW1 6574   6.277   6.642   4.304  0.9183  0.2375 -0.5112
34262SOL    HW2 6575   6.166   6.603   4.208 -1.0419  1.0934  1.3088
34263SOL     OW 6576   3.157   1.709   9.088 -0.5871  0.2299  0.3710
34263SOL    HW1 6577   3.075   1.742   9.124 -0.4798 -0.5459  1.3855
34263SOL    HW2 6578   3.217   1.708   9.162 -0.7353 -2.6896  0.5702
34264SOL     OW 6579   2.142   5.521   1.060  0.0515  0.0850  0.0842
34264SOL    HW1 6580   2.178   5.454   1.003 -2.2798 -2.5706  1.4359
34264SOL    HW2 6581   2.218   5.562   1.102  1.6157 -2.9103  0.4104
34265SOL     OW 6582   1.095   0.620   1.660  0.2247 -0.6097  0.1664
34265SOL    HW1 6583   1.030   0.564   1.703  0.0364 -0.2715  0.3295
34265SOL    HW2 6584   1.121   0.571   1.582 -0.4136 -0.6395 -0.0389
34266SOL     OW 6585   1.680   1.635   7.883  0.1060  0.4296 -0.5324
34266SOL    HW1 6586   1.675   1.601   7.794  2.2194  0.1027 -0.5664
34266SOL    HW2 6587   1.651   1.726   7.876 -1.2757 -0.0337 -1.2354
34267SOL     OW 6588   1.721   4.233   8.438 -0.4696  0.6021 -0.7005
34267SOL    HW1 6589   1.756   4.320   8.459  1.4755  0.0305 -1.3608
34267SOL    HW2 6590   1.682   4.203   8.521 -0.6045  1.8309 -0.2945
34268SOL     OW 6591   5.583   0.722   8.495 -0.2252  0.0519  0.4562
34268SOL    HW1 6592   5.606   0.673   8.574 -0.7847 -0.6548  0.1923
34268SOL    HW2 6593   5.662   0.719   8.440  0.2417  0.7441  1.0732
34269SOL     OW 6594   1.478   3.799   2.225 -0.5572  0.3591  0.0575
34269SOL    HW1 6595   1.509   3.754   2.303 -1.7865 -0.5566  0.0466
34269SOL    HW2 6596   1.447   3.730   2.167  0.1079  1.0375 -1.1623
34270SOL     OW 6597   1.069   5.903   0.522 -0.3322  0.6531  0.5221
34270SOL    HW1 6598   1.028   5.989   0.521 -0.7419  0.4726 -0.9047
34270SOL    HW2 6599   1.070   5.878   0.614 -1.7082  1.4713  0.7939
34271SOL     OW 6600   5.044   6.620   9.122 -0.6367  0.0774  0.2759
34271SOL    HW1 6601   4.963   6.653   9.162 -0.7190 -1.6747  1.6485
34271SOL    HW2 6602   5.030   6.632   9.028 -2.3610  0.1457  0.5102
34272SOL     OW 6603   9.339   6.254   7.777 -0.2996  0.5232  0.2451
34272SOL    HW1 6604   9.428   6.281   7.753 -0.0358  1.3584  1.9955
34272SOL    HW2 6605   9.290   6.336   7.783 -1.3470  0.0351 -1.1606
34273SOL     OW 6606   6.888   8.267   1.991 -0.2865 -0.2176 -0.8721
34273SOL    HW1 6607   6.810   8.322   1.979  1.3950  2.1842 -1.4708
34273SOL    HW2 6608   6.919   8.251   1.902  0.3893 -0.4651 -0.5935
34274SOL     OW 6609   2.672   6.783   5.532  0.1157  0.1259  0.5147
34274SOL    HW1 6610   2.594   6.799   5.480  1.2660 -1.1963 -1.7990
34274SOL    HW2 6611   2.640   6.751   5.616 -1.8280  0.6184 -0.0108
34275SOL     OW 6612   3.545   9.889   7.221  0.3373  0.6434 -0.2991
34275SOL    HW1 6613   3.526   9.981   7.206  1.1023  0.6692 -1.2480
34275SOL    HW2 6614   3.539   9.877   7.315  0.4494  1.7076 -0.1530
34276SOL     OW 6615   0.447   2.131   7.034  0.4625 -0.4343 -0.5952
34276SOL    HW1 6616   0.437   2.051   6.983  2.6819 -0.7664 -0.5695
34276SOL    HW2 6617   0.357   2.161   7.049 -0.3220 -1.5006 -2.8150
34277SOL     OW 6618   6.097   8.323   9.763 -0.5882 -0.5049 -0.1041
34277SOL    HW1 6619   6.133   8.250   9.813 -0.7084  0.0330  0.7872
34277SOL    HW2 6620   6.167   8.347   9.702 -0.6472 -1.5212 -0.5885
34278SOL     OW 6621   0.185   5.111   0.891  0.5997  0.8824  0.1975
34278SOL    HW1 6622   0.152   5.104   0.801  1.5525  2.5445 -0.3320
34278SOL    HW2 6623   0.132   5.050   0.941  1.6596 -1.9806 -1.9046
34279SOL     OW 6624   4.025   8.648   4.054  0.0765 -0.1619 -0.0466
34279SOL    HW1 6625   4.115   8.682   4.049  0.2579 -0.8064 -1.4567
34279SOL    HW2 6626   4.030   8.580   4.121  0.4771  0.2859  0.3884
34280SOL     OW 6627   3.433   4.678   5.642  0.8172  0.2490  0.2091
34280SOL    HW1 6628   3.525   4.653   5.643  0.9430  0.6720  1.1723
34280SOL    HW2 6629   3.433   4.771   5.667  0.2836  0.8929 -2.0134
34281SOL     OW 6630  10.137   5.294   6.934 -0.1227 -0.0146  0.1089
34281SOL    HW1 6631  10.190   5.215   6.925 -1.2338 -0.7328 -0.3471
34281SOL    HW2 6632  10.047   5.262   6.943 -0.4917  1.1659  0.9202
34282SOL     OW 6633   2.762   6.585   5.371 -0.2077  0.3440  0.2054
34282SOL    HW1 6634   2.856   6.600   5.360 -0.5141  2.8031  0.4643
34282SOL    HW2 6635   2.733   6.656   5.428 -1.5632 -2.6309  3.6961
34283SOL     OW 6636   0.721   6.872  10.136  0.0805  0.2326 -0.5953
34283SOL    HW1 6637   0.696   6.939  10.199  0.2647  0.4715 -0.7756
34283SOL    HW2 6638   0.647   6.868  10.075  1.6690  3.1509 -2.9876
34284SOL     OW 6639   2.824   1.292   4.176 -0.6192 -0.1741  0.1168
34284SOL    HW1 6640   2.730   1.280   4.189 -0.6974  0.5004  0.1783
34284SOL    HW2 6641   2.833   1.382   4.147 -0.0061 -0.2961 -0.0702
34285SOL     OW 6642   2.068   5.704   0.379 -0.6631  0.4645 -0.4143
34285SOL    HW1 6643   2.148   5.718   0.430  1.5580 -1.8728 -2.9641
34285SOL    HW2 6644   2.010   5.656   0.439  0.4057  0.8505  0.9957
34286SOL     OW 6645   9.607   0.057   4.468  0.2872 -0.4126 -0.2704
34286SOL    HW1 6646   9.682   0.061   4.410  0.3256 -1.6630 -0.3386
34286SOL    HW2 6647   9.560  -0.022   4.442  0.0298 -0.7281  1.0638
34287SOL     OW 6648   3.283   4.348   1.454  0.0276 -0.8161 -0.2369
34287SOL    HW1 6649   3.261   4.406   1.527 -1.0243 -1.2426 -0.1947
34287SOL    HW2 6650   3.368   4.378   1.424 -0.3713  0.5836 -0.0460
34288SOL     OW 6651   7.267   9.140   1.284  0.5785  0.1597 -0.1413
34288SOL    HW1 6652   7.261   9.124   1.190 -0.6734  1.4677 -0.3117
34288SOL    HW2 6653   7.176   9.152   1.312  0.9428 -0.0925  1.2235
34289SOL     OW 6654   3.519   8.013   8.919 -0.0639  0.2252 -0.5502
34289SOL    HW1 6655   3.545   7.925   8.948  0.7337  0.7615  0.4550
34289SOL    HW2 6656   3.527   8.067   8.998  0.2621  1.3667 -1.3346
34290SOL     OW 6657   6.386   3.696   5.105 -0.2452  0.1163  0.3013
34290SOL    HW1 6658   6.469   3.658   5.132  0.2321 -0.0440 -1.3120
34290SOL    HW2 6659   6.346   3.726   5.187  2.2333  1.9646  0.9267
34291SOL     OW 6660   7.749   1.300  10.223  0.0531 -0.5874 -0.1392
34291SOL    HW1 6661   7.758   1.385  10.180 -0.2518 -0.6024 -0.2314
34291SOL    HW2 6662   7.661   1.271  10.201 -0.9835  0.4033  2.2973
34292SOL     OW 6663   5.891   0.053   8.626 -0.1548 -0.0385  0.2569
34292SOL    HW1 6664   5.938   0.008   8.696 -0.2943 -0.0581  0.3397
34292SOL    HW2 6665   5.938   0.030   8.546 -0.2404 -0.3530  0.2947
34293SOL     OW 6666   4.213   7.832  10.238  0.0516  0.6689 -0.2166
34293SOL    HW1 6667   4.169   7.751  10.213 -1.1925  1.4784 -0.7279
34293SOL    HW2 6668   4.162   7.865  10.312  3.0948 -1.1901  3.0435
34294SOL     OW 6669   1.601   1.960   7.785 -0.2045 -0.2712  0.9424
34294SOL    HW1 6670   1.620   2.053   7.798  1.4669 -0.4793  0.2767
34294SOL    HW2 6671   1.605   1.922   7.872 -3.1148  0.5793  1.5658
34295SOL     OW 6672   7.755   2.777   8.450  0.1626 -0.3575  0.2372
34295SOL    HW1 6673   7.673   2.804   8.408 -0.7085 -1.0240  1.4746
34295SOL    HW2 6674   7.770   2.843   8.518  1.1576  0.2724 -0.5530
34296SOL     OW 6675   6.246   5.721   7.480 -0.2690  0.4374 -0.4573
34296SOL    HW1 6676   6.172   5.755   7.430 -0.5473 -0.2386 -0.5215
34296SOL    HW2 6677   6.256   5.631   7.450 -1.1248 -0.3479  1.4016
34297SOL     OW 6678   4.313   8.085   4.027 -0.3765  0.1367 -0.2731
34297SOL    HW1 6679   4.398   8.066   4.068 -0.9293  0.8606  1.2968
34297SOL    HW2 6680   4.326   8.065   3.935  1.6181  0.5826 -0.1386
34298SOL     OW 6681   4.786   4.005   3.703 -0.0874  0.3397 -0.6574
34298SOL    HW1 6682   4.741   3.996   3.619  0.1478 -0.2650 -0.7248
34298SOL    HW2 6683   4.840   3.926   3.709 -0.0209  0.4341  0.0093
34299SOL     OW 6684   5.723   7.839   4.086  0.5170  0.1996 -0.7480
34299SOL    HW1 6685   5.649   7.802   4.134 -0.8059  2.4673 -0.9113
34299SOL    HW2 6686   5.772   7.763   4.054 -2.0139 -1.3981 -1.0578
34300SOL     OW 6687  10.241   5.871   2.313  0.5565  0.0089  0.1020
34300SOL    HW1 6688  10.156   5.859   2.269 -0.3661  0.5336  1.6807
34300SOL    HW2 6689  10.290   5.928   2.254 -0.0866 -0.4663 -0.9372
34301SOL     OW 6690  10.340   0.354   1.141 -0.0844  0.1579 -0.0506
34301SOL    HW1 6691  10.334   0.378   1.234 -0.1686  1.0887 -0.2883
34301SOL    HW2 6692  10.428   0.381   1.116 -0.7398  1.7628 -0.7358
34302SOL     OW 6693   7.264   6.570   7.725 -0.2825  0.0924 -0.2954
34302SOL    HW1 6694   7.317   6.642   7.759 -0.4606 -0.2946  0.8546
34302SOL    HW2 6695   7.177   6.584   7.762 -0.1627 -1.0485  0.4968
34303SOL     OW 6696   9.243   5.248   1.264  0.0243 -0.0947  0.4229
34303SOL    HW1 6697   9.229   5.338   1.293  0.5364  0.1947 -0.2013
34303SOL    HW2 6698   9.242   5.196   1.345  2.4669  0.8133  1.1219
34304SOL     OW 6699   0.766   7.677   7.096  0.0627 -0.5240  0.3864
34304SOL    HW1 6700   0.778   7.610   7.163  1.0861  0.0653  0.8103
34304SOL    HW2 6701   0.766   7.760   7.144  0.9054 -0.0921 -0.3291
34305SOL     OW 6702   6.610   2.656   1.381 -0.5687 -0.5589 -0.0830
34305SOL    HW1 6703   6.519   2.671   1.359 -0.4399 -0.8568 -0.8449
34305SOL    HW2 6704   6.627   2.714   1.455 -1.3584 -0.4659  0.0322
34306SOL     OW 6705   6.216   2.435   3.076 -1.2231 -0.0297  0.1152
34306SOL    HW1 6706   6.214   2.430   2.980  0.4415  3.0807 -0.2026
34306SOL    HW2 6707   6.135   2.480   3.099 -0.9117  0.5966  0.0064
34307SOL     OW 6708   3.596   2.483   2.070 -1.0391  0.0732  0.6425
34307SOL    HW1 6709   3.681   2.440   2.065 -0.8314  0.2620  2.1040
34307SOL    HW2 6710   3.538   2.428   2.017 -0.4835 -1.3055  1.4035
34308SOL     OW 6711   8.478   3.449   3.137 -0.0844  0.5002  0.0319
34308SOL    HW1 6712   8.465   3.397   3.058 -1.6034  0.0372  0.5636
34308SOL    HW2 6713   8.479   3.385   3.208  0.6157  0.9706  0.4560
34309SOL     OW 6714  10.004   0.770   3.258 -0.4232 -0.0192  0.4796
34309SOL    HW1 6715   9.913   0.799   3.261 -0.6527 -0.5685 -0.5074
34309SOL    HW2 6716  10.031   0.764   3.349 -2.1423 -2.1721  0.9424
34310SOL     OW 6717   7.267   2.624   9.373 -0.2478 -0.0423 -0.2872
34310SOL    HW1 6718   7.200   2.571   9.329 -0.0310 -0.1251 -0.5185
34310SOL    HW2 6719   7.315   2.665   9.301  0.8206 -1.0396 -0.1519
34311SOL     OW 6720   3.976   0.763   8.064  0.1052  0.4754  0.0735
34311SOL    HW1 6721   4.033   0.723   7.998  0.8815  1.0426  0.3850
34311SOL    HW2 6722   3.940   0.689   8.113  0.3088  0.0946 -0.3477
34312SOL     OW 6723   1.148   2.400   1.402  0.3770  0.2074  0.0157
34312SOL    HW1 6724   1.189   2.325   1.359  2.2127  0.9963  0.2737
34312SOL    HW2 6725   1.120   2.456   1.330 -0.9442 -0.6540 -0.1767
34313SOL     OW 6726   3.603   3.340   4.372 -0.5407 -0.9289 -1.1128
34313SOL    HW1 6727   3.521   3.380   4.401  0.0306 -0.0800 -0.6544
34313SOL    HW2 6728   3.583   3.306   4.284 -1.0665  0.2728 -1.4776
34314SOL     OW 6729   6.273   5.250   9.968  0.0265  0.0028 -0.2824
34314SOL    HW1 6730   6.275   5.313   9.896 -0.0296  0.5638  0.1904
34314SOL    HW2 6731   6.365   5.224   9.979 -0.1346 -1.0855 -1.3953
34315SOL     OW 6732   6.235   3.114   0.787 -0.2144 -0.4213 -0.3037
34315SOL    HW1 6733   6.302   3.146   0.726  1.7031 -3.9038 -0.2982
34315SOL    HW2 6734   6.167   3.077   0.731  1.1310 -2.8131 -0.5351
34316SOL     OW 6735   6.311   0.678   1.985 -0.1399 -0.7035  0.6055
34316SOL    HW1 6736   6.310   0.769   1.957 -1.9102 -0.6852  0.6264
34316SOL    HW2 6737   6.387   0.640   1.941 -0.9104  0.1408 -1.6166
34317SOL     OW 6738   2.929   7.532   4.580  0.2176  0.3167  0.1659
34317SOL    HW1 6739   2.959   7.610   4.628 -1.7687  0.0480  2.0426
34317SOL    HW2 6740   2.888   7.477   4.648 -2.7055 -0.1572 -1.7971
34318SOL     OW 6741   3.226   3.070   1.231  0.3661 -0.4644  0.0497
34318SOL    HW1 6742   3.293   3.003   1.216 -1.8889 -2.4249 -2.0119
34318SOL    HW2 6743   3.203   3.061   1.324  0.7166 -1.9942  0.0128
34319SOL     OW 6744   8.207   6.110   2.261 -0.4542 -0.1274  0.3956
34319SOL    HW1 6745   8.258   6.191   2.255 -0.0085 -0.4754 -0.7635
34319SOL    HW2 6746   8.158   6.107   2.179 -1.8919 -0.1148  1.2225
34320SOL     OW 6747   9.724   5.672   2.332 -0.3966 -0.5045  0.8388
34320SOL    HW1 6748   9.803   5.629   2.366 -0.3798 -0.0438  1.3870
34320SOL    HW2 6749   9.684   5.714   2.408 -0.7087 -0.0026  0.4058
34321SOL     OW 6750   9.223   0.192   2.957 -0.3535  0.2589 -0.2371
34321SOL    HW1 6751   9.276   0.205   3.036  0.3566  1.7453 -0.9242
34321SOL    HW2 6752   9.220   0.097   2.945 -0.3253  0.0075  1.4578
34322SOL     OW 6753   9.019   8.311   2.331  0.9280 -0.4994  0.6635
34322SOL    HW1 6754   9.064   8.374   2.388  1.5403 -1.2211  1.0038
34322SOL    HW2 6755   9.015   8.231   2.383  2.2312 -1.4285 -0.5793
34323SOL     OW 6756   8.322   3.618   5.115 -0.2242  0.3338  0.7516
34323SOL    HW1 6757   8.323   3.700   5.164  0.7300  0.6025  0.3142
34323SOL    HW2 6758   8.399   3.571   5.146  0.6894  0.7288 -0.8281
34324SOL     OW 6759   9.378   4.875   8.714  0.4178 -0.1356 -0.2455
34324SOL    HW1 6760   9.405   4.951   8.767  1.0037 -0.9074  0.6026
34324SOL    HW2 6761   9.337   4.913   8.637 -2.2117  1.0485  1.5832
34325SOL     OW 6762   9.853   1.551   9.264 -0.4705 -0.7451  0.2917
34325SOL    HW1 6763   9.788   1.545   9.195 -1.1001  2.1549  0.4905
34325SOL    HW2 6764   9.937   1.545   9.219 -0.8648 -1.7452 -0.3293
34326SOL     OW 6765   3.218   8.438   2.478 -0.9415  0.3471  0.6059
34326SOL    HW1 6766   3.309   8.409   2.479 -1.0399 -0.0908 -0.9606
34326SOL    HW2 6767   3.219   8.520   2.529  0.2103  0.0756  1.0550
34327SOL     OW 6768   3.418   3.182   3.564 -0.2157  0.0459 -0.3831
34327SOL    HW1 6769   3.344   3.133   3.598  0.5046 -0.6613  0.2172
34327SOL    HW2 6770   3.392   3.274   3.573 -0.3889 -0.1269  1.3733
34328SOL     OW 6771   6.137   5.628   8.873 -0.5940 -0.4092 -0.0988
34328SOL    HW1 6772   6.086   5.593   8.799 -0.2259 -1.1148 -0.0315
34328SOL    HW2 6773   6.136   5.557   8.938 -1.0595  0.2750  0.6493
34329SOL     OW 6774   1.895   7.768   3.523 -0.0436  0.0471 -0.1818
34329SOL    HW1 6775   1.884   7.688   3.472 -0.6108 -0.4642  0.7141
34329SOL    HW2 6776   1.885   7.740   3.614  0.6180  0.9939  0.1983
34330SOL     OW 6777   1.826   6.335  10.338 -0.5085  0.0237  0.1870
34330SOL    HW1 6778   1.740   6.326  10.296 -1.0261  0.2984  1.1362
34330SOL    HW2 6779   1.887   6.349  10.266 -1.3630  0.4689 -0.4717
34331SOL     OW 6780   2.130   2.899   5.946 -0.6832  0.0830  0.0357
34331SOL    HW1 6781   2.106   2.923   6.035  0.3877  0.4989  0.2349
34331SOL    HW2 6782   2.224   2.920   5.940 -0.7305  0.0442 -1.1746
34332SOL     OW 6783   7.261   2.895   8.136 -0.5422 -0.2596  0.0086
34332SOL    HW1 6784   7.311   2.815   8.118 -0.5212 -0.2038 -0.1806
34332SOL    HW2 6785   7.209   2.909   8.057  0.6176  0.7815 -0.5876
34333SOL     OW 6786   8.444   5.119   2.581  0.0513 -0.2802  0.3190
34333SOL    HW1 6787   8.493   5.046   2.617  0.8086  0.1924  0.2733
34333SOL    HW2 6788   8.428   5.095   2.490  0.2898 -0.3885  0.3066
34334SOL     OW 6789   2.471   4.112   4.557  0.1369  0.0929  0.2520
34334SOL    HW1 6790   2.529   4.048   4.598 -2.4053 -1.2199  2.1154
34334SOL    HW2 6791   2.446   4.171   4.628  0.0492  1.3135 -0.7572
34335SOL     OW 6792   5.305   5.061   1.371  0.1780  0.5755 -0.2992
34335SOL    HW1 6793   5.303   4.968   1.395  0.1813  0.9283  1.1916
34335SOL    HW2 6794   5.354   5.102   1.442  0.5668  1.6666 -1.1728
34336SOL     OW 6795   1.685   8.902   9.364  0.0849  0.3477  0.6375
34336SOL    HW1 6796   1.603   8.854   9.371 -0.5582  1.1081 -1.0307
34336SOL    HW2 6797   1.753   8.835   9.370 -0.5737 -0.2282  2.6979
34337SOL     OW 6798   0.977   1.483   9.198 -0.0863 -0.1421  0.2517
34337SOL    HW1 6799   0.973   1.503   9.291  0.7051 -4.9614  1.5787
34337SOL    HW2 6800   1.066   1.508   9.172  0.4419 -0.7470  1.4103
34338SOL     OW 6801   2.476   7.317   7.242  0.5100  0.3612 -0.5638
34338SOL    HW1 6802   2.492   7.244   7.302  0.6230 -0.3139 -1.3990
34338SOL    HW2 6803   2.563   7.354   7.226  0.7908 -0.8041 -1.9636
34339SOL     OW 6804   5.074  10.070  10.238 -0.0663  0.3839 -0.2929
34339SOL    HW1 6805   5.165  10.063  10.209  0.0637  0.6440  0.0388
34339SOL    HW2 6806   5.055   9.986  10.280  1.1236  1.4823  2.6787
34340SOL     OW 6807   0.997   8.182   1.575  0.3584 -0.2418 -0.4386
34340SOL    HW1 6808   1.045   8.145   1.650 -0.7842 -0.3328  0.2708
34340SOL    HW2 6809   0.916   8.131   1.571  0.8829 -1.0342 -2.4924
34341SOL     OW 6810   4.111   9.723   1.547 -0.2921 -0.1772 -0.2426
34341SOL    HW1 6811   4.026   9.709   1.588  1.1088  1.1960  3.5292
34341SOL    HW2 6812   4.161   9.644   1.567  0.0660  0.0114 -0.3799
34342SOL     OW 6813   4.036   0.848   6.683  0.1556  0.2765  0.1929
34342SOL    HW1 6814   4.123   0.870   6.650  0.8004  0.0647  1.6452
34342SOL    HW2 6815   3.997   0.933   6.706  0.0169  0.3660 -0.3745
34343SOL     OW 6816   8.604   2.071   9.443 -0.1406 -0.2035 -0.1284
34343SOL    HW1 6817   8.598   2.005   9.374 -1.5098  2.0443 -2.3150
34343SOL    HW2 6818   8.662   2.138   9.407  2.1571 -0.5965  2.4869
34344SOL     OW 6819   6.507   8.505   0.325  0.1244  0.0305 -0.5112
34344SOL    HW1 6820   6.516   8.586   0.275  0.1053 -0.9537 -2.2057
34344SOL    HW2 6821   6.594   8.465   0.322 -0.0498 -0.3707 -0.3250
34345SOL     OW 6822   0.680   6.649   5.452 -0.4103 -0.2723  0.0757
34345SOL    HW1 6823   0.595   6.690   5.465 -0.5642 -0.5443 -0.0487
34345SOL    HW2 6824   0.732   6.714   5.404  0.0697  0.6260  1.7510
34346SOL     OW 6825   5.428   7.816   2.355 -0.0528  0.0126 -0.8999
34346SOL    HW1 6826   5.352   7.759   2.337 -1.0772 -0.8141  4.3269
34346SOL    HW2 6827   5.394   7.905   2.344 -1.5120 -0.3638  0.1864
34347SOL     OW 6828   5.859   6.649   1.038 -0.5438  0.6070 -0.4078
34347SOL    HW1 6829   5.815   6.729   1.007 -3.0988 -0.7811 -0.6232
34347SOL    HW2 6830   5.883   6.603   0.958  0.0312  0.6854 -0.2824
34348SOL     OW 6831   1.897   2.350   5.258  0.1937 -0.1378  0.0469
34348SOL    HW1 6832   1.853   2.431   5.233  0.8577  0.5287  0.9827
34348SOL    HW2 6833   1.987   2.361   5.227  0.2318 -0.6186 -0.0267
34349SOL     OW 6834   9.009   1.696   3.804 -0.1563  0.0695 -0.0080
34349SOL    HW1 6835   9.093   1.740   3.812 -0.0374 -0.3573  1.4284
34349SOL    HW2 6836   9.031   1.603   3.801 -0.5134  0.0103 -0.9632
34350SOL     OW 6837   9.673   4.181   6.139  0.7190 -0.0102  0.2453
34350SOL    HW1 6838   9.708   4.135   6.215  1.3566  1.2841  0.7563
34350SOL    HW2 6839   9.654   4.112   6.076  0.9319 -1.0331  1.2726
34351SOL     OW 6840   1.750   1.098   6.244 -0.2974 -0.6647  0.1732
34351SOL    HW1 6841   1.753   1.038   6.168  0.4884 -0.6637  0.1898
34351SOL    HW2 6842   1.684   1.163   6.221  0.5241 -0.1690 -0.9055
34352SOL     OW 6843   9.135   6.963   6.695 -0.2881  0.1875  0.3306
34352SOL    HW1 6844   9.191   6.939   6.769 -1.2031 -1.4610  0.5270
34352SOL    HW2 6845   9.079   6.887   6.681 -1.3782  1.1656 -0.9069
34353SOL     OW 6846   8.739   7.375   0.944 -0.1770  0.0132 -1.0807
34353SOL    HW1 6847   8.788   7.380   1.027 -1.2536 -1.3951 -0.3123
34353SOL    HW2 6848   8.678   7.448   0.948  0.9276  0.9832 -1.4397
34354SOL     OW 6849   0.739   9.849   6.619 -0.4178  0.4089 -0.1808
34354SOL    HW1 6850   0.705   9.761   6.636 -1.7621  0.4162 -2.3921
34354SOL    HW2 6851   0.832   9.835   6.598  0.0426 -0.1077  1.9557
34355SOL     OW 6852   5.538   0.342   8.641  0.1928  0.0482  0.2348
34355SOL    HW1 6853   5.447   0.343   8.611  0.4624 -1.0372 -0.6906
34355SOL    HW2 6854   5.554   0.430   8.674 -0.6793  0.7614 -1.1645
34356SOL     OW 6855   9.951   0.833   1.874 -0.5038 -0.4869 -0.0460
34356SOL    HW1 6856  10.035   0.875   1.890  0.0188 -1.3339 -0.5278
34356SOL    HW2 6857   9.917   0.813   1.962 -0.1171 -0.3079  0.1431
34357SOL     OW 6858   2.078   3.288   4.701 -0.3734  0.6342  0.5623
34357SOL    HW1 6859   2.103   3.206   4.745 -0.1222  0.7119  0.5641
34357SOL    HW2 6860   2.110   3.278   4.611  2.6068  2.0272  1.3297
34358SOL     OW 6861   9.352   1.017   3.535 -0.0581 -0.0127 -0.5585
34358SOL    HW1 6862   9.299   0.992   3.611  1.9085 -1.0291  0.5639
34358SOL    HW2 6863   9.292   1.010   3.461 -2.0564  1.0226  0.8615
34359SOL     OW 6864   1.385   7.400   6.301  0.0492 -0.4450  0.9813
34359SOL    HW1 6865   1.380   7.449   6.218 -1.0565 -0.6893  0.8811
34359SOL    HW2 6866   1.474   7.416   6.333  0.3490  0.0207 -0.0294
34360SOL     OW 6867   9.894   9.021   5.366  0.3578  0.3653  0.1293
34360SOL    HW1 6868   9.939   8.957   5.421  0.6074 -0.3765 -0.9079
34360SOL    HW2 6869   9.804   9.023   5.400  0.3711 -0.4634  0.2256
34361SOL     OW 6870   5.502   4.184   7.218 -0.4215 -0.3029 -0.1251
34361SOL    HW1 6871   5.415   4.220   7.198  0.2078  1.3074 -0.0805
34361SOL    HW2 6872   5.563   4.252   7.190  0.9513 -2.1198 -1.8448
34362SOL     OW 6873   9.284   3.865   9.128  0.3428  0.0360  0.0350
34362SOL    HW1 6874   9.252   3.896   9.213  0.0169 -1.0803  0.3308
34362SOL    HW2 6875   9.209   3.819   9.089 -0.6504  3.2514 -2.3451
34363SOL     OW 6876   8.264   0.781   3.825 -0.7868  0.6767  1.0092
34363SOL    HW1 6877   8.332   0.793   3.891  0.0316 -0.5504  0.4197
34363SOL    HW2 6878   8.295   0.832   3.750 -0.9908  0.8686  1.0525
34364SOL     OW 6879   2.396   8.467   2.429  0.2872 -0.1737 -0.0531
34364SOL    HW1 6880   2.406   8.372   2.434 -0.7083 -0.2551  0.4452
34364SOL    HW2 6881   2.307   8.480   2.397  1.0778  0.5787 -2.1143
34365SOL     OW 6882   0.212   4.976   6.292 -0.6360  0.8122 -0.6385
34365SOL    HW1 6883   0.201   4.882   6.307 -0.2485  0.7212 -0.9035
34365SOL    HW2 6884   0.259   4.981   6.208  1.5505  1.1611  0.5452
34366SOL     OW 6885   1.479   5.935   1.051  0.2066 -0.2878  0.9644
34366SOL    HW1 6886   1.549   5.966   1.108  0.9492  0.7464 -0.4342
34366SOL    HW2 6887   1.520   5.928   0.964 -1.4224  0.4516  0.0908
34367SOL     OW 6888   2.340   5.932   6.889  0.0801  0.7674 -0.0515
34367SOL    HW1 6889   2.394   5.945   6.812  0.5987 -0.5391  0.0590
34367SOL    HW2 6890   2.354   6.010   6.943  0.1664  1.4140 -0.9926
34368SOL     OW 6891   7.916   7.541   6.098  0.5048 -0.0493  0.3219
34368SOL    HW1 6892   7.929   7.454   6.060 -0.5250 -1.2267  2.4620
34368SOL    HW2 6893   7.999   7.562   6.140  0.2016 -0.8907  1.3912
34369SOL     OW 6894   5.024   8.063   2.140 -0.9513  0.5369 -0.0680
34369SOL    HW1 6895   5.049   8.132   2.079 -1.0592 -0.9827 -1.9217
34369SOL    HW2 6896   5.001   7.989   2.084  1.2756 -1.7627  1.8084
34370SOL     OW 6897   4.083   8.669   1.423  0.8523  0.2510  0.2733
34370SOL    HW1 6898   4.012   8.606   1.436  2.4336 -1.7533 -0.1831
34370SOL    HW2 6899   4.128   8.671   1.508  0.5002  1.2450  0.4540
34371SOL     OW 6900   4.066   4.525   7.217 -0.1989 -0.0024 -0.0714
34371SOL    HW1 6901   3.993   4.464   7.224  0.1173 -0.3938 -0.1483
34371SOL    HW2 6902   4.050   4.572   7.134  0.4907 -1.2251 -0.9276
34372SOL     OW 6903   0.144   2.771   4.005  0.4504 -0.2337 -0.4256
34372SOL    HW1 6904   0.235   2.800   4.006  0.5971 -0.6502  0.9949
34372SOL    HW2 6905   0.093   2.852   4.005  0.8327  0.0111  0.0960
34373SOL     OW 6906   3.184   6.871   2.858 -0.0978  0.2921 -0.2016
34373SOL    HW1 6907   3.123   6.819   2.910  0.4324 -0.0235  0.1116
34373SOL    HW2 6908   3.152   6.961   2.866 -0.8616  0.0527 -0.5305
34374SOL     OW 6909   7.306   4.690   5.124 -0.0223  0.1888  0.0274
34374SOL    HW1 6910   7.345   4.667   5.040 -1.2724  2.4828 -1.2498
34374SOL    HW2 6911   7.357   4.765   5.154 -0.5338  0.3142  0.5967
34375SOL     OW 6912   9.941   0.054   8.786 -0.0394  0.3864  0.7202
34375SOL    HW1 6913   9.851   0.024   8.768  0.5250 -0.9663  0.0182
34375SOL    HW2 6914   9.970   0.093   8.703  0.3090  0.0283  0.6681
34376SOL     OW 6915   9.120   4.638   3.479 -0.3672  0.5158  0.0531
34376SOL    HW1 6916   9.123   4.721   3.433 -1.6976  0.9309  0.6636
34376SOL    HW2 6917   9.167   4.577   3.422 -1.0688  1.2361 -1.3518
34377SOL     OW 6918   1.555   1.990   6.596 -0.5638  0.2059 -0.2841
34377SOL    HW1 6919   1.597   2.056   6.542  2.0788  0.8676  2.2808
34377SOL    HW2 6920   1.613   1.913   6.588 -1.2294 -0.3445  0.0797
34378SOL     OW 6921   3.851   5.732   3.896 -0.0365  0.2147 -0.0083
34378SOL    HW1 6922   3.791   5.657   3.895 -1.3943  1.2399  0.8527
34378SOL    HW2 6923   3.795   5.807   3.877  1.3868  0.9922 -1.4096
34379SOL     OW 6924   0.286   0.538   8.734 -0.5906 -0.1967  0.2149
34379SOL    HW1 6925   0.298   0.505   8.823 -1.4985 -0.4406  0.2549
34379SOL    HW2 6926   0.347   0.486   8.681  0.0752  0.0639  0.7037
34380SOL     OW 6927   7.399   9.560   9.861 -0.1899 -0.6107 -0.3176
34380SOL    HW1 6928   7.482   9.566   9.908 -0.3700  0.3712 -0.0933
34380SOL    HW2 6929   7.392   9.642   9.813 -0.7123 -0.9751 -0.8804
34381SOL     OW 6930   6.991   4.688   6.689 -0.4142 -0.2329 -0.2249
34381SOL    HW1 6931   6.916   4.633   6.667 -0.6835  0.2861 -0.6322
34381SOL    HW2 6932   7.027   4.648   6.768 -0.4452 -1.1356 -0.6521
34382SOL     OW 6933   0.400   0.551   9.917 -0.0227  0.1848 -0.4342
34382SOL    HW1 6934   0.441   0.479   9.869  0.5443 -0.5448  1.0720
34382SOL    HW2 6935   0.405   0.625   9.857  1.7847 -0.3673 -1.0466
34383SOL     OW 6936   1.907   9.329   2.282  0.6390 -0.4345  0.1237
34383SOL    HW1 6937   1.839   9.273   2.245  0.4988 -0.7108  0.7929
34383SOL    HW2 6938   1.911   9.404   2.222 -0.6102 -0.1647  0.3388
34384SOL     OW 6939   5.735   6.430   1.301  0.7051  0.2737  0.2365
34384SOL    HW1 6940   5.794   6.497   1.266  1.1129  0.2874  0.9268
34384SOL    HW2 6941   5.700   6.469   1.382  1.1963 -0.4648  0.8168
34385SOL     OW 6942   3.350   8.897   8.916 -0.4121  0.3084 -0.1970
34385SOL    HW1 6943   3.364   8.812   8.957 -0.4154  0.0414 -0.7447
34385SOL    HW2 6944   3.399   8.893   8.834 -0.1599  0.9459 -0.0847
34386SOL     OW 6945   9.060   1.780   1.026 -0.1814 -0.5045 -0.6552
34386SOL    HW1 6946   8.981   1.767   0.973  0.0590 -0.2526 -1.0782
34386SOL    HW2 6947   9.120   1.828   0.968 -0.0357  0.0550 -0.0450
34387SOL     OW 6948   2.596   2.501   8.822 -1.2597  0.0907  0.1592
34387SOL    HW1 6949   2.625   2.442   8.752  0.2678 -0.0841  0.8853
34387SOL    HW2 6950   2.501   2.492   8.823 -1.2373 -0.6617 -1.2225
34388SOL     OW 6951   2.473   8.942  10.361 -0.2647  0.1411  0.7563
34388SOL    HW1 6952   2.396   8.964  10.414 -1.3407 -0.1813 -0.6397
34388SOL    HW2 6953   2.465   8.848  10.345  0.8187 -0.0433  1.1708
34389SOL     OW 6954   6.676   5.531   8.422  0.3979 -0.4378 -0.0367
34389SOL    HW1 6955   6.623   5.493   8.352 -0.2308 -0.3449  0.3738
34389SOL    HW2 6956   6.660   5.473   8.497 -0.8422  0.7941  0.6985
34390SOL     OW 6957   9.315   7.530   7.016 -0.7315  0.1153 -0.2375
34390SOL    HW1 6958   9.291   7.497   6.929 -1.3583 -0.6596  0.2193
34390SOL    HW2 6959   9.254   7.488   7.075  0.0016  0.2630  0.6456
34391SOL     OW 6960   1.296   0.227   1.166  0.6369 -0.2424  0.3231
34391SOL    HW1 6961   1.242   0.151   1.187  0.9236 -1.5809 -3.1575
34391SOL    HW2 6962   1.268   0.253   1.078  2.1901  2.2395  0.4562
34392SOL     OW 6963   6.452   6.542   1.007 -0.0836  0.3623 -0.2638
34392SOL    HW1 6964   6.412   6.461   0.975  0.1679 -0.7590  2.0526
34392SOL    HW2 6965   6.544   6.535   0.980  0.0340 -0.3524  0.2929
34393SOL     OW 6966   7.730   5.310   5.074  0.2053 -0.1942  0.1648
34393SOL    HW1 6967   7.792   5.281   5.140  1.4285 -1.3784 -1.4210
34393SOL    HW2 6968   7.754   5.401   5.056 -0.6742  0.4149  1.8852
34394SOL     OW 6969   1.625   9.764   7.148  0.6722  0.0137 -0.3046
34394SOL    HW1 6970   1.605   9.858   7.153  1.3299  0.2063 -0.9950
34394SOL    HW2 6971   1.693   9.758   7.081  0.5804 -0.9727 -0.3251
34395SOL     OW 6972   8.110   4.132   3.050  0.1200 -0.2287 -0.7543
34395SOL    HW1 6973   8.051   4.180   2.992 -0.8289 -0.9510 -0.4161
34395SOL    HW2 6974   8.052   4.089   3.113  1.1891  1.9995  1.9300
34396SOL     OW 6975   6.906   4.920   4.776  0.1712  0.3005 -0.3760
34396SOL    HW1 6976   6.992   4.962   4.774 -0.0603  0.9167  1.2289
34396SOL    HW2 6977   6.915   4.844   4.718  2.6552 -1.1553  1.6710
34397SOL     OW 6978   2.444   7.196   6.858 -0.1144 -0.5054 -0.2236
34397SOL    HW1 6979   2.395   7.222   6.780 -0.8242 -0.8518  0.1021
34397SOL    HW2 6980   2.479   7.110   6.837 -0.7717 -0.8410  0.0459
34398SOL     OW 6981   3.816   4.714   6.758  0.2895  0.4838 -0.2621
34398SOL    HW1 6982   3.845   4.803   6.779  1.2931  0.4018 -1.2122
34398SOL    HW2 6983   3.833   4.704   6.665  0.1836 -0.7077 -0.1706
34399SOL     OW 6984   6.308   9.952   7.270  0.6221  0.0424 -0.0886
34399SOL    HW1 6985   6.379   9.925   7.328  0.7605 -0.9134 -0.6864
34399SOL    HW2 6986   6.324  10.045   7.255  0.6275  0.2782  1.3279
34400SOL     OW 6987   3.422   7.517   8.274 -0.5509  0.0668  0.1092
34400SOL    HW1 6988   3.420   7.468   8.192  0.0657  0.3170 -0.0623
34400SOL    HW2 6989   3.393   7.605   8.250 -0.7242  0.0436  0.2314
34401SOL     OW 6990   2.484   8.496   1.669 -0.7691  0.7525 -0.2344
34401SOL    HW1 6991   2.474   8.494   1.574 -0.9863 -1.5361 -0.2170
34401SOL    HW2 6992   2.562   8.442   1.686 -0.0012  2.1305  0.8370
34402SOL     OW 6993   6.633   6.077   0.808 -0.4164  0.1925 -0.0709
34402SOL    HW1 6994   6.727   6.094   0.816 -0.1198 -1.3756  0.0855
34402SOL    HW2 6995   6.599   6.087   0.896 -0.4307  0.8744 -0.1467
34403SOL     OW 6996   8.088   0.370   6.723  0.2962  0.7714 -0.3987
34403SOL    HW1 6997   8.080   0.295   6.664 -0.6766  0.5934 -0.0726
34403SOL    HW2 6998   8.050   0.339   6.806 -0.7445  1.8061 -0.4525
34404SOL     OW 6999   7.973   7.307   3.395  0.5509  0.5184  0.0560
34404SOL    HW1 7000   8.000   7.391   3.357 -1.0607  0.4449 -1.3719
34404SOL    HW2 7001   8.030   7.242   3.354 -1.1549  0.4400 -2.4163
34405SOL     OW 7002   5.211   8.687   8.414 -0.2496  0.6263 -0.0872
34405SOL    HW1 7003   5.163   8.747   8.470  0.1381  0.1048  0.8230
34405SOL    HW2 7004   5.295   8.673   8.459 -0.1976 -0.3245 -0.4510
34406SOL     OW 7005   7.117   3.721   3.217  0.5331 -0.4953 -0.5959
34406SOL    HW1 7006   7.025   3.746   3.214 -0.1993 -2.9776 -1.0874
34406SOL    HW2 7007   7.165   3.804   3.218 -1.6727  0.8488 -0.8394
34407SOL     OW 7008   9.497   3.191   8.675 -0.6380 -0.2077  0.6271
34407SOL    HW1 7009   9.462   3.148   8.598  1.7677 -2.9030  0.8817
34407SOL    HW2 7010   9.427   3.188   8.740 -2.0246  0.3966 -0.7973
34408SOL     OW 7011   0.904   0.633   0.156 -0.4528  0.2702  1.0869
34408SOL    HW1 7012   0.845   0.691   0.107 -0.8763 -0.6553  0.4842
34408SOL    HW2 7013   0.988   0.679   0.155 -0.2628 -0.0378 -1.1582
34409SOL     OW 7014  10.237   7.518   8.026 -0.1723  0.2033 -0.0836
34409SOL    HW1 7015  10.244   7.562   8.110 -1.1044  1.7578 -0.7624
34409SOL    HW2 7016  10.310   7.551   7.974  0.6855 -1.1146  0.2334
34410SOL     OW 7017   8.142   8.921   1.205 -0.4831 -0.1593  0.2183
34410SOL    HW1 7018   8.093   8.885   1.131 -1.5230  0.0304  0.7937
34410SOL    HW2 7019   8.185   8.845   1.245  0.1463 -0.2522 -0.6112
34411SOL     OW 7020   2.758   1.867   5.725  0.1712  0.1029 -0.4682
34411SOL    HW1 7021   2.813   1.912   5.661  0.8154  1.8097  1.1992
34411SOL    HW2 7022   2.684   1.835   5.674  0.7068  1.3219 -2.0915
34412SOL     OW 7023   2.680   8.250   0.499 -0.2044 -0.0970  0.3115
34412SOL    HW1 7024   2.753   8.233   0.440 -1.4459  0.5812 -1.4854
34412SOL    HW2 7025   2.603   8.249   0.443 -1.2467  2.6058  1.5403
34413SOL     OW 7026   8.703   8.122   1.869  0.5456 -0.2021 -0.0529
34413SOL    HW1 7027   8.609   8.112   1.862  0.6089 -1.3876  0.6522
34413SOL    HW2 7028   8.728   8.168   1.789 -0.4998 -0.7171 -0.6878
34414SOL     OW 7029   1.519   2.168   5.925 -0.0776 -0.6692  0.2730
34414SOL    HW1 7030   1.514   2.102   5.855  1.4005  0.2531 -0.7862
34414SOL    HW2 7031   1.439   2.220   5.915  0.9631  0.7003 -2.1706
34415SOL     OW 7032   5.043  10.128   1.018  0.1837  0.1448 -0.5841
34415SOL    HW1 7033   4.969  10.097   0.965  0.2104  0.2953 -0.7106
34415SOL    HW2 7034   5.069  10.210   0.977 -0.3293  0.6921  0.1545
34416SOL     OW 7035   5.940   0.198   1.655  0.0145  0.1001  0.2484
34416SOL    HW1 7036   6.000   0.155   1.594 -0.7834  0.4895 -0.8432
34416SOL    HW2 7037   5.853   0.183   1.618 -0.5566 -0.2341  1.6639
34417SOL     OW 7038   8.441   3.971   1.137 -0.2006  0.8458  0.3291
34417SOL    HW1 7039   8.536   3.974   1.129 -0.0632  1.6546  1.7958
34417SOL    HW2 7040   8.409   3.960   1.048  1.3510 -3.3198  0.0925
34418SOL     OW 7041   0.179   5.272   8.188  0.2067  0.3742  1.0747
34418SOL    HW1 7042   0.201   5.196   8.133 -0.4512  1.0332 -0.1544
34418SOL    HW2 7043   0.180   5.346   8.128 -0.0974  1.2019  2.0617
34419SOL     OW 7044   9.806   0.034   5.518 -0.1304 -0.2616  0.0489
34419SOL    HW1 7045   9.821   0.124   5.488 -1.3727  0.0467  0.3223
34419SOL    HW2 7046   9.800  -0.018   5.438 -0.5215  0.0796 -0.1429
34420SOL     OW 7047   5.595   9.787   2.376  0.4004 -0.7112 -0.7228
34420SOL    HW1 7048   5.555   9.796   2.290 -0.1252 -2.9377 -0.7735
34420SOL    HW2 7049   5.542   9.720   2.420  0.7792  0.2232  1.2550
34421SOL     OW 7050   7.818   4.015   8.055 -0.6582 -0.2855  0.1893
34421SOL    HW1 7051   7.796   4.050   7.969 -0.7114  0.0159  0.3262
34421SOL    HW2 7052   7.840   4.092   8.108 -1.4635 -0.3940  0.6974
34422SOL     OW 7053   3.555   6.480   9.911 -0.2649  0.0996 -0.0544
34422SOL    HW1 7054   3.604   6.437   9.841  0.7030 -0.0370  0.6908
34422SOL    HW2 7055   3.569   6.425   9.988  0.2158  1.2285  0.6955
34423SOL     OW 7056   3.810   9.956   7.848 -0.0654 -0.2498  0.2829
34423SOL    HW1 7057   3.799   9.973   7.942  0.6963 -0.6458  0.4457
34423SOL    HW2 7058   3.760  10.025   7.806  1.0761  1.0325  0.9590
34424SOL     OW 7059   5.506   5.532   3.444 -0.4111  0.1703  0.3858
34424SOL    HW1 7060   5.519   5.626   3.444  0.7987  0.0265  1.0866
34424SOL    HW2 7061   5.558   5.500   3.370 -0.0381 -0.0321  0.7301
34425SOL     OW 7062   7.478   0.768   3.415 -0.0937  0.3470  0.2660
34425SOL    HW1 7063   7.500   0.755   3.323 -1.0406 -0.8903  0.2002
34425SOL    HW2 7064   7.562   0.793   3.456  0.0846  2.3049 -1.1342
34426SOL     OW 7065  10.093   5.711   3.731 -0.0535  0.0458 -0.2536
34426SOL    HW1 7066  10.149   5.767   3.785 -0.2770  0.4951 -0.4893
34426SOL    HW2 7067  10.016   5.763   3.714 -0.3525 -0.4096 -0.3128
34427SOL     OW 7068   2.798   2.358   3.345  0.4381 -0.0461  0.4894
34427SOL    HW1 7069   2.791   2.266   3.319  0.8149  0.2879 -0.8683
34427SOL    HW2 7070   2.709   2.382   3.373  0.3082 -0.7711  0.7182
34428SOL     OW 7071   8.265   1.941   9.518 -0.4057 -0.1946  0.6556
34428SOL    HW1 7072   8.170   1.946   9.521 -0.4508  0.8130 -0.7869
34428SOL    HW2 7073   8.284   1.849   9.503 -1.2279 -0.2562 -0.1236
34429SOL     OW 7074   7.785   9.012   9.744 -0.7948 -0.0745  0.2344
34429SOL    HW1 7075   7.774   9.103   9.771  1.5832  0.8356 -1.5169
34429SOL    HW2 7076   7.775   9.014   9.649 -0.6398 -1.6365  0.1572
34430SOL     OW 7077   1.701   4.338   4.283 -0.5019  0.2160 -0.3207
34430SOL    HW1 7078   1.695   4.396   4.359  1.6481  0.8115 -0.5240
34430SOL    HW2 7079   1.721   4.396   4.210 -1.6134 -0.4570 -1.1842
34431SOL     OW 7080   0.910   0.331   3.321 -0.1135  0.1256  0.5180
34431SOL    HW1 7081   0.936   0.252   3.369  3.0897  0.4618 -0.4064
34431SOL    HW2 7082   0.931   0.403   3.380  0.9248  0.4186 -0.1912
34432SOL     OW 7083   2.833   7.110   2.562 -0.4825 -0.1012  0.0162
34432SOL    HW1 7084   2.889   7.032   2.559 -2.1237 -1.2885 -1.0227
34432SOL    HW2 7085   2.826   7.138   2.471  1.3401  2.2765  0.5049
34433SOL     OW 7086   0.138   0.554   0.222 -0.1848  0.1632  0.1369
34433SOL    HW1 7087   0.204   0.590   0.281 -1.2653 -0.3655  1.7406
34433SOL    HW2 7088   0.069   0.620   0.220 -0.5867 -0.2534  0.2202
34434SOL     OW 7089  10.141   0.318   4.042 -0.1024 -0.3014 -0.8316
34434SOL    HW1 7090  10.157   0.353   3.955 -2.6822 -0.7142 -1.5578
34434SOL    HW2 7091  10.145   0.223   4.031 -0.3425 -0.3553 -0.4874
34435SOL     OW 7092   9.527   8.028   2.421  0.1492 -0.1109 -0.2269
34435SOL    HW1 7093   9.455   7.970   2.396  0.2301 -0.2784 -0.0753
34435SOL    HW2 7094   9.606   7.977   2.402  0.2182 -0.1173  0.0690
34436SOL     OW 7095   2.386   5.924   9.503 -0.1947 -0.3804  0.6160
34436SOL    HW1 7096   2.392   5.836   9.466  1.3700 -0.2289  0.4496
34436SOL    HW2 7097   2.368   5.911   9.596  0.2100 -0.8846  0.6255
34437SOL     OW 7098   8.061   1.540  10.241  0.1182 -0.3071  0.0317
34437SOL    HW1 7099   8.076   1.496  10.325  2.1740  1.3141  0.6009
34437SOL    HW2 7100   7.989   1.600  10.258 -1.1324 -1.7277 -0.0972
34438SOL     OW 7101   3.609   1.386   1.329 -0.2294 -0.3229  0.3021
34438SOL    HW1 7102   3.572   1.467   1.364  0.3045  0.0902 -0.0909
34438SOL    HW2 7103   3.639   1.338   1.407  2.0572  1.1282  0.4064
34439SOL     OW 7104   9.024   8.816   3.124 -0.4717 -0.0093  0.1718
34439SOL    HW1 7105   8.975   8.889   3.163  0.4583  0.6390  0.1497
34439SOL    HW2 7106   9.020   8.832   3.029  1.0280  0.8873  0.2315
34440SOL     OW 7107   6.183   2.377   5.016  0.8919  0.3168 -0.1998
34440SOL    HW1 7108   6.115   2.379   4.949  0.0403  0.9470  0.6726
34440SOL    HW2 7109   6.201   2.469   5.035  0.2945  0.1628  1.2460
34441SOL     OW 7110   9.336   0.767  10.015 -0.2812 -0.0188  0.1205
34441SOL    HW1 7111   9.334   0.826  10.090  1.5816  1.1188 -0.6405
34441SOL    HW2 7112   9.338   0.679  10.053 -1.1884  0.4656  1.3251
34442SOL     OW 7113   2.833   5.297   3.818 -0.2895  0.0336  0.2264
34442SOL    HW1 7114   2.775   5.238   3.769 -0.0141 -0.3789  0.3872
34442SOL    HW2 7115   2.853   5.367   3.756 -0.4445 -0.1568 -0.0445
34443SOL     OW 7116   3.423   0.775   3.575  0.2450 -0.7698  0.1493
34443SOL    HW1 7117   3.444   0.683   3.594  1.1294 -0.1585  2.3836
34443SOL    HW2 7118   3.490   0.802   3.513  0.6014 -1.3366  0.2776
34444SOL     OW 7119   7.986   2.355   3.815  0.3713  0.1651 -0.2403
34444SOL    HW1 7120   7.994   2.426   3.751  0.4590  1.0339  0.6917
34444SOL    HW2 7121   7.892   2.344   3.826  0.3520 -0.2162 -0.7537
34445SOL     OW 7122   6.329   0.674   5.585 -0.4810 -0.1722  0.0876
34445SOL    HW1 7123   6.307   0.621   5.509 -1.4968  2.5397 -1.6786
34445SOL    HW2 7124   6.422   0.696   5.573 -0.1909 -1.0969  0.5627
34446SOL     OW 7125   4.721   0.378   3.625 -0.1341 -0.0780  0.4939
34446SOL    HW1 7126   4.702   0.289   3.655 -1.6271  0.5926  1.6995
34446SOL    HW2 7127   4.635   0.415   3.604  0.3629  1.3482  0.8257
34447SOL     OW 7128   2.128   6.186   7.349  0.3231 -0.1611  0.1238
34447SOL    HW1 7129   2.066   6.194   7.421  0.9060 -0.6282  0.6901
34447SOL    HW2 7130   2.159   6.095   7.353  1.6978  0.2877  0.4192
34448SOL     OW 7131   2.223   1.624   7.640 -0.2883 -0.2287  0.0190
34448SOL    HW1 7132   2.274   1.581   7.709  1.7388  2.1223  0.1214
34448SOL    HW2 7133   2.149   1.663   7.686  1.2684  1.6812  1.0451
34449SOL     OW 7134   5.699   4.298   7.054 -0.4506 -0.2419  0.5217
34449SOL    HW1 7135   5.772   4.241   7.079  0.6615  0.7207 -0.4136
34449SOL    HW2 7136   5.678   4.273   6.964  0.9962  1.6636 -0.4399
34450SOL     OW 7137   1.373   5.488   8.600 -0.1334 -0.1051 -0.2726
34450SOL    HW1 7138   1.328   5.450   8.524  0.8952  0.7726 -1.3787
34450SOL    HW2 7139   1.375   5.417   8.665 -0.9311 -0.9254 -1.1060
34451SOL     OW 7140  10.104   1.361   9.957  0.1770  0.2379  0.1059
34451SOL    HW1 7141  10.086   1.433  10.016 -0.5865  0.7691 -0.7471
34451SOL    HW2 7142  10.195   1.373   9.930  0.2086  0.5765  0.3723
34452SOL     OW 7143   1.959   9.175   9.850 -0.6059  0.1597  0.5685
34452SOL    HW1 7144   2.046   9.171   9.812 -0.5555  2.3717  0.3106
34452SOL    HW2 7145   1.920   9.090   9.831  1.2099 -0.5817  0.0111
34453SOL     OW 7146   1.646   1.818   4.527  0.2946  0.2238 -0.2204
34453SOL    HW1 7147   1.620   1.903   4.562 -0.5683  0.7021 -1.9109
34453SOL    HW2 7148   1.696   1.839   4.449  0.9521 -0.8257 -0.0949
34454SOL     OW 7149   5.814   0.227   1.270  0.3110 -0.1382 -0.3246
34454SOL    HW1 7150   5.841   0.157   1.210  0.6699 -0.0233 -0.3008
34454SOL    HW2 7151   5.787   0.182   1.349  0.1431 -0.2741 -0.4590
34455SOL     OW 7152   9.756   1.089   8.892 -0.0328  1.2208 -0.1384
34455SOL    HW1 7153   9.800   1.037   8.959  0.3745  2.7055  0.8083
34455SOL    HW2 7154   9.765   1.038   8.811 -1.2267 -1.0046  1.0405
34456SOL     OW 7155   6.489   5.764   0.457 -0.8304  0.6642 -0.4744
34456SOL    HW1 7156   6.534   5.770   0.542 -0.3045  1.7386 -0.8108
34456SOL    HW2 7157   6.396   5.762   0.479 -0.6732 -0.9225  0.2061
34457SOL     OW 7158   4.218   1.898   2.945  0.0024 -0.1173 -0.4139
34457SOL    HW1 7159   4.304   1.939   2.951  0.6133 -1.4317  0.4166
34457SOL    HW2 7160   4.216   1.858   2.858  0.8476 -1.3364  0.1075
34458SOL     OW 7161   1.060   7.862   1.388  0.0748 -0.1753  0.3540
34458SOL    HW1 7162   0.979   7.888   1.345  0.0111  0.8644  1.0498
34458SOL    HW2 7163   1.069   7.924   1.461  2.6675  1.2273 -1.0378
34459SOL     OW 7164   5.501   7.286   8.158 -0.5565 -0.0020 -0.0777
34459SOL    HW1 7165   5.557   7.210   8.142 -0.2909 -0.2581  1.8164
34459SOL    HW2 7166   5.414   7.258   8.131 -0.2419 -0.5329 -0.5634
34460SOL     OW 7167   5.250   2.951   1.567  0.4528 -0.3044  0.1617
34460SOL    HW1 7168   5.334   2.949   1.521 -0.2996 -0.2813 -1.2854
34460SOL    HW2 7169   5.220   2.860   1.566 -0.2148 -0.0942 -0.6862
34461SOL     OW 7170   6.798   0.936   7.794 -0.4495  0.4979  0.5378
34461SOL    HW1 7171   6.722   0.989   7.767 -0.0106  0.6675 -0.3853
34461SOL    HW2 7172   6.846   0.920   7.713  0.1522 -0.1730  1.0215
34462SOL     OW 7173   6.473   7.757   9.909 -0.2214 -0.3252  0.3289
34462SOL    HW1 7174   6.401   7.715   9.863 -1.3454 -1.5743  3.0135
34462SOL    HW2 7175   6.431   7.811   9.975  1.2818 -0.7378  1.6863
34463SOL     OW 7176   5.840   9.168   6.134 -0.3137 -0.1934 -0.3085
34463SOL    HW1 7177   5.749   9.177   6.107 -0.4761  0.1718  0.3223
34463SOL    HW2 7178   5.851   9.076   6.155 -0.2898 -0.4051 -1.2299
34464SOL     OW 7179   1.843   3.537   6.917 -0.2314  0.0531  0.2828
34464SOL    HW1 7180   1.752   3.566   6.915 -0.2927 -0.1636 -0.4058
34464SOL    HW2 7181   1.870   3.537   6.825  0.6711  0.7729  0.5269
34465SOL     OW 7182   4.310   6.677   9.817 -0.4340 -0.0389  0.3706
34465SOL    HW1 7183   4.252   6.612   9.857 -2.7171 -0.2000 -2.8220
34465SOL    HW2 7184   4.376   6.625   9.771  0.3630  0.0702  1.3623
34466SOL     OW 7185  10.207   5.870   1.527 -0.3245 -0.1233  0.4234
34466SOL    HW1 7186  10.288   5.919   1.517 -0.3635  0.3031  1.9342
34466SOL    HW2 7187  10.234   5.778   1.526 -0.2685 -0.1596 -2.5151
34467SOL     OW 7188   4.634   3.417   2.353 -0.1081  0.2273 -0.2558
34467SOL    HW1 7189   4.703   3.476   2.383  0.7788 -1.2883  0.8388
34467SOL    HW2 7190   4.581   3.400   2.431 -0.7809  0.1146 -0.7219
34468SOL     OW 7191   7.935   7.471   0.329  0.2703  0.2117 -0.4380
34468SOL    HW1 7192   7.960   7.521   0.251 -1.5227  1.4432 -0.3027
34468SOL    HW2 7193   7.846   7.440   0.310  0.8506 -1.9152  0.0141
34469SOL     OW 7194   9.652   1.650   9.424  0.0468  0.5417 -0.1072
34469SOL    HW1 7195   9.726   1.643   9.363 -0.4486  0.4517 -0.7013
34469SOL    HW2 7196   9.693   1.658   9.510  0.7831 -2.9722  0.0218
34470SOL     OW 7197  10.130   9.578   1.760 -0.5487  0.1561  0.0211
34470SOL    HW1 7198  10.051   9.629   1.744 -0.4236  0.2541 -0.3011
34470SOL    HW2 7199  10.177   9.580   1.676  0.7362  1.7606  0.7049
34471SOL     OW 7200   3.719   5.801   0.997 -0.6578  0.1639 -0.3622
34471SOL    HW1 7201   3.711   5.748   0.918 -0.1738 -0.2607 -0.1332
34471SOL    HW2 7202   3.738   5.738   1.066 -2.3995  0.3617  0.3469
34472SOL     OW 7203   6.748   3.576   4.198 -0.4240  0.8906 -0.2212
34472SOL    HW1 7204   6.760   3.652   4.141 -1.5734 -0.2551 -2.1091
34472SOL    HW2 7205   6.837   3.541   4.211  0.0980  2.4358  0.5686
34473SOL     OW 7206   2.884  10.241  10.252  0.6448  0.5734 -0.2710
34473SOL    HW1 7207   2.834  10.285  10.183 -0.6670 -0.6991 -0.1636
34473SOL    HW2 7208   2.965  10.213  10.209 -0.3678 -0.6442 -1.4552
34474SOL     OW 7209   4.112   5.686   1.524  0.1107 -0.3859 -0.3202
34474SOL    HW1 7210   4.066   5.602   1.523  0.6222 -0.6719 -0.4878
34474SOL    HW2 7211   4.122   5.707   1.617 -1.7642  0.4797 -0.2846
34475SOL     OW 7212   4.300   0.101   9.492 -0.0176  0.1748  0.2165
34475SOL    HW1 7213   4.290   0.103   9.587 -1.2751 -0.6587  0.1185
34475SOL    HW2 7214   4.256   0.181   9.462 -1.0805 -0.3789  0.2411
34476SOL     OW 7215   3.132   0.347   9.173  0.3188  0.1537  0.3688
34476SOL    HW1 7216   3.179   0.357   9.090 -0.1959  2.0399  0.2620
34476SOL    HW2 7217   3.045   0.315   9.147  1.0524 -2.0852  0.4651
34477SOL     OW 7218   2.228   1.819   6.999 -0.1631  0.5269 -0.0148
34477SOL    HW1 7219   2.195   1.757   6.933  3.0328 -1.3123 -0.1214
34477SOL    HW2 7220   2.218   1.905   6.959  1.1095 -0.4868 -2.7769
34478SOL     OW 7221   2.662   8.567   3.720 -0.8632  0.7259  0.0838
34478SOL    HW1 7222   2.659   8.508   3.796 -0.0893  1.1428  0.4426
34478SOL    HW2 7223   2.713   8.642   3.750 -1.9117  1.6309 -0.3475
34479SOL     OW 7224   2.879   9.615   9.630  0.7380 -0.0584  0.0650
34479SOL    HW1 7225   2.916   9.680   9.690 -0.5494 -0.5328  1.4251
34479SOL    HW2 7226   2.817   9.665   9.577  0.3730  0.0024  0.5376
34480SOL     OW 7227   2.731   7.995   5.845  0.0054  0.4084 -0.0318
34480SOL    HW1 7228   2.708   7.943   5.768  2.0809  1.1977 -1.2923
34480SOL    HW2 7229   2.666   8.064   5.848 -0.5952 -0.1184 -0.5692
34481SOL     OW 7230   9.406   5.598   2.936  0.0334 -0.2498 -0.3639
34481SOL    HW1 7231   9.350   5.521   2.950 -1.0692  0.6342  0.2613
34481SOL    HW2 7232   9.403   5.613   2.842 -0.2309 -0.6283 -0.4216
34482SOL     OW 7233   9.441   2.335   9.025  0.3958 -0.2640 -0.0772
34482SOL    HW1 7234   9.405   2.298   8.944 -0.6173  1.5978 -0.5207
34482SOL    HW2 7235   9.532   2.355   9.003 -0.2976  1.7439 -1.3380
34483SOL     OW 7236   7.823   0.527   6.796 -0.2670  0.5533 -0.2709
34483SOL    HW1 7237   7.826   0.605   6.741 -1.7899  0.5405 -0.4017
34483SOL    HW2 7238   7.895   0.472   6.764  0.1754  1.4497 -0.8543
34484SOL     OW 7239   9.601   6.557   2.187 -0.3861 -0.0232 -0.2390
34484SOL    HW1 7240   9.679   6.514   2.222 -0.4167 -0.2153 -0.4071
34484SOL    HW2 7241   9.583   6.512   2.105  0.9157  1.8079 -1.5974
34485SOL     OW 7242   2.885  10.217   2.952  0.4744  0.0635  0.2064
34485SOL    HW1 7243   2.842  10.274   2.888 -2.3397 -2.7255 -0.6179
34485SOL    HW2 7244   2.838  10.232   3.034  0.2316 -0.5117  0.1750
34486SOL     OW 7245   8.739   6.560   2.974 -0.4176 -0.0503 -0.0205
34486SOL    HW1 7246   8.684   6.546   3.051  1.5183  1.1742  1.7187
34486SOL    HW2 7247   8.781   6.476   2.958 -0.3198 -0.1515  0.7276
34487SOL     OW 7248   0.848   7.222   5.921 -0.3681  0.3362  0.0271
34487SOL    HW1 7249   0.777   7.283   5.901 -0.6242  0.9422  2.4576
34487SOL    HW2 7250   0.918   7.247   5.861 -1.2704  1.5270 -0.5779
34488SOL     OW 7251   6.591   9.292   3.223 -0.2532 -0.3932  0.4367
34488SOL    HW1 7252   6.570   9.291   3.316 -0.3068  0.8500  0.4572
34488SOL    HW2 7253   6.561   9.208   3.190 -0.5042 -0.7204  1.4851
34489SOL     OW 7254   4.469   0.492   5.153  0.1595  0.4709  0.6788
34489SOL    HW1 7255   4.536   0.520   5.215  1.2224 -0.3857 -0.0496
34489SOL    HW2 7256   4.406   0.443   5.206  1.1688 -0.4412  1.0662
34490SOL     OW 7257   4.022   3.677   9.737  0.2102 -0.6354 -0.2065
34490SOL    HW1 7258   4.031   3.592   9.695  0.0320  0.2285 -2.1161
34490SOL    HW2 7259   4.080   3.735   9.688 -0.2978  0.5279  0.5125
34491SOL     OW 7260   4.893   4.484   6.403 -0.1339 -0.3084 -0.0072
34491SOL    HW1 7261   4.849   4.522   6.480 -2.4582 -3.2945  0.3069
34491SOL    HW2 7262   4.947   4.414   6.439  1.8408  0.6921 -0.8375
34492SOL     OW 7263   2.733   8.196  10.159 -0.2490 -0.1248  0.3439
34492SOL    HW1 7264   2.825   8.173  10.153 -0.6697 -1.6116 -1.3957
34492SOL    HW2 7265   2.716   8.247  10.079 -1.0299 -0.2853  0.3995
34493SOL     OW 7266   9.411   6.108   8.890 -0.2780 -0.5382 -0.1472
34493SOL    HW1 7267   9.393   6.202   8.887  0.4285 -0.3542  0.9413
34493SOL    HW2 7268   9.474   6.098   8.961  1.7296 -1.4898 -1.9508
34494SOL     OW 7269   1.640   6.048   2.230  0.0601  0.4617  0.0222
34494SOL    HW1 7270   1.595   6.067   2.313 -0.2819 -0.3250  0.0234
34494SOL    HW2 7271   1.629   6.128   2.178 -2.3348 -0.0772 -0.4148
34495SOL     OW 7272   7.218   4.914   6.090 -0.3316  0.1145  0.7138
34495SOL    HW1 7273   7.287   4.848   6.080 -0.2897  0.3071 -0.4723
34495SOL    HW2 7274   7.138   4.868   6.064  0.1231  1.3331 -3.6064
34496SOL     OW 7275   1.910   2.504   2.571 -0.2061 -0.1052  0.6116
34496SOL    HW1 7276   1.842   2.539   2.629 -0.3969 -1.9674  1.6133
34496SOL    HW2 7277   1.944   2.428   2.618  0.9074 -0.6299 -0.9540
34497SOL     OW 7278   1.509   9.357  10.354 -0.0884  0.4356  0.1907
34497SOL    HW1 7279   1.580   9.304  10.318 -0.6721 -0.7085  0.6824
34497SOL    HW2 7280   1.435   9.296  10.362 -0.8827  1.4104  0.4387
34498SOL     OW 7281   6.883   7.627   4.612 -0.0954  0.2481 -0.9935
34498SOL    HW1 7282   6.961   7.588   4.571 -0.3279 -0.6737 -0.5844
34498SOL    HW2 7283   6.862   7.568   4.685 -1.3506  0.3306 -1.2697
34499SOL     OW 7284   7.215   6.343   0.479  0.0106 -0.5962  0.0770
34499SOL    HW1 7285   7.247   6.394   0.404  1.2874 -1.7954 -0.2246
34499SOL    HW2 7286   7.154   6.280   0.441 -0.9626  0.1448  0.3519
34500SOL     OW 7287   8.232   5.529   8.011  0.2061 -0.0986 -0.0147
34500SOL    HW1 7288   8.184   5.567   7.937  1.8009  1.0706 -0.5123
34500SOL    HW2 7289   8.281   5.603   8.048  1.5494 -1.1972  0.4983
34501SOL     OW 7290   1.609   7.105   1.734 -0.3248 -1.1276  0.2579
34501SOL    HW1 7291   1.649   7.192   1.725 -1.2644 -0.7808 -0.9343
34501SOL    HW2 7292   1.671   7.056   1.788  0.5409  0.0873  0.4321
34502SOL     OW 7293   7.405   7.138   3.610  0.3921  0.0094 -0.2557
34502SOL    HW1 7294   7.348   7.063   3.623 -0.2446  0.1650 -1.9298
34502SOL    HW2 7295   7.435   7.130   3.520  0.8106  1.4214 -0.2647
34503SOL     OW 7296   8.402   2.307   9.850  0.1278 -0.0356  0.3061
34503SOL    HW1 7297   8.433   2.277   9.935 -0.7748 -0.3448  0.5343
34503SOL    HW2 7298   8.410   2.231   9.793 -2.5421 -0.9302  0.9807
34504SOL     OW 7299   6.707   2.161   3.383  0.1505  0.0184  0.0887
34504SOL    HW1 7300   6.701   2.066   3.387  1.5649 -0.0871  0.1140
34504SOL    HW2 7301   6.787   2.179   3.335  1.1401  1.1653  2.0254
34505SOL     OW 7302   9.277   3.326   8.379 -0.0258 -0.2310 -0.1915
34505SOL    HW1 7303   9.197   3.305   8.428 -0.3238 -0.1031 -0.6152
34505SOL    HW2 7304   9.257   3.300   8.289  0.3777 -0.1072 -0.3164
34506SOL     OW 7305   3.973   4.914   3.374 -0.3001 -0.1096 -0.0829
34506SOL    HW1 7306   3.994   5.001   3.341 -0.3623 -0.2564 -0.5107
34506SOL    HW2 7307   3.878   4.910   3.372 -0.3116 -0.0514  0.2921
34507SOL     OW 7308   4.497   1.305   7.018  0.7003  0.5465 -0.3654
34507SOL    HW1 7309   4.515   1.212   7.029 -0.0839 -0.0439 -3.3019
34507SOL    HW2 7310   4.419   1.321   7.071  0.3090 -0.6799 -0.5587
34508SOL     OW 7311   3.887   6.176   6.095 -0.7575  0.5638 -0.4187
34508SOL    HW1 7312   3.800   6.157   6.062 -1.0755  1.1119  0.0824
34508SOL    HW2 7313   3.884   6.268   6.121 -0.1748  0.4623  0.0405
34509SOL     OW 7314   8.842   8.639   1.774 -0.2372  0.5736 -0.2990
34509SOL    HW1 7315   8.877   8.671   1.857 -0.7524 -0.1656  0.2235
34509SOL    HW2 7316   8.748   8.631   1.789 -0.6612  2.4045 -1.6352
34510SOL     OW 7317   7.485   4.337   9.626 -0.2226 -0.2357  0.0541
34510SOL    HW1 7318   7.503   4.346   9.533 -0.4343 -1.5891 -0.1341
34510SOL    HW2 7319   7.425   4.409   9.646 -0.0557  0.1593 -0.8103
34511SOL     OW 7320   0.248   8.809   6.160  0.4720 -0.0056 -0.0406
34511SOL    HW1 7321   0.212   8.820   6.072 -0.5315  0.2871  0.3983
34511SOL    HW2 7322   0.204   8.731   6.195  0.1514  0.4363  0.5514
34512SOL     OW 7323   7.592   9.627   0.662 -0.1890 -0.3868 -0.0135
34512SOL    HW1 7324   7.668   9.674   0.696 -0.0206 -1.6459  1.4607
34512SOL    HW2 7325   7.567   9.675   0.583  0.0761  2.0281  1.2803
34513SOL     OW 7326   3.501   5.990   1.490 -1.0205 -0.3905 -0.2253
34513SOL    HW1 7327   3.446   6.012   1.565 -1.1432 -1.5226  0.0382
34513SOL    HW2 7328   3.471   6.048   1.420 -1.6123 -0.0474  0.3059
34514SOL     OW 7329   5.977   0.861   4.359 -0.3118 -0.4997  0.3220
34514SOL    HW1 7330   6.071   0.854   4.340 -0.7115 -3.1611 -1.1819
34514SOL    HW2 7331   5.974   0.880   4.453  1.6990  1.6393  0.0485
34515SOL     OW 7332   4.530   2.315   0.500 -0.0436 -0.4389  0.2181
34515SOL    HW1 7333   4.442   2.350   0.492 -0.4101 -1.2620  0.6304
34515SOL    HW2 7334   4.587   2.390   0.481 -0.8187  0.1550  0.1972
34516SOL     OW 7335  10.022   9.710   5.794 -0.7196  0.2171 -0.1621
34516SOL    HW1 7336   9.943   9.708   5.848 -0.0869  0.2827  0.7819
34516SOL    HW2 7337   9.990   9.700   5.704 -1.6250 -2.5460  0.3655
34517SOL     OW 7338   7.617   2.415  10.359 -0.0921 -0.6202 -0.4091
34517SOL    HW1 7339   7.544   2.439  10.416 -0.3075  0.2888 -1.0469
34517SOL    HW2 7340   7.651   2.499  10.327  0.4501 -1.0854 -1.0851
34518SOL     OW 7341   1.311   8.912   7.884  0.2337 -0.9202  0.4498
34518SOL    HW1 7342   1.287   8.947   7.969 -1.1488  0.7283 -0.5561
34518SOL    HW2 7343   1.236   8.859   7.858 -0.5579  0.7533 -0.8521
34519SOL     OW 7344   1.666   1.517   8.129 -0.7444  0.0838  0.3125
34519SOL    HW1 7345   1.670   1.550   8.040 -3.1715  0.0838  0.1309
34519SOL    HW2 7346   1.686   1.592   8.184  0.3836  0.1735 -0.1818
34520SOL     OW 7347   2.399   0.854   5.176 -0.2551 -0.9801  0.9066
34520SOL    HW1 7348   2.448   0.936   5.166 -1.7692 -0.0193  1.0113
34520SOL    HW2 7349   2.369   0.834   5.087  0.5164 -1.7172  0.7954
34521SOL     OW 7350   3.610   3.044   0.090  0.1657  0.1860 -0.0963
34521SOL    HW1 7351   3.591   3.138   0.090 -0.0806  0.1386 -0.0901
34521SOL    HW2 7352   3.663   3.030   0.012 -1.5597 -0.0027 -1.3126
34522SOL     OW 7353   5.182   7.269   2.185 -0.7172 -0.2987  0.0240
34522SOL    HW1 7354   5.132   7.213   2.245 -2.1612  0.3015 -0.5767
34522SOL    HW2 7355   5.254   7.302   2.239 -2.4285  0.8863  1.7401
34523SOL     OW 7356   8.985   3.647   1.952 -0.3728 -0.1398  0.0114
34523SOL    HW1 7357   8.917   3.617   2.012  0.4287  0.2496  1.1701
34523SOL    HW2 7358   8.986   3.582   1.882 -1.7867 -0.2528  0.0709
34524SOL     OW 7359   5.867   1.027   3.981  0.1404 -0.0284 -0.0082
34524SOL    HW1 7360   5.862   1.120   4.004  1.7649  0.0898  0.0153
34524SOL    HW2 7361   5.852   0.981   4.063  1.2193  0.2733  0.3692
34525SOL     OW 7362   4.314   1.650   0.431 -0.0896  0.2323 -0.0629
34525SOL    HW1 7363   4.229   1.689   0.452  0.2119  1.6246 -1.2630
34525SOL    HW2 7364   4.378   1.703   0.478  0.2210  0.2514 -0.4931
34526SOL     OW 7365   0.517   1.118   8.073  0.0502 -0.6833  0.8565
34526SOL    HW1 7366   0.582   1.086   8.010 -1.8438 -1.2866 -0.9059
34526SOL    HW2 7367   0.444   1.058   8.065 -1.3660  0.8559  1.6125
34527SOL     OW 7368   8.524  10.148   9.733 -0.0212 -0.3560  0.0632
34527SOL    HW1 7369   8.541  10.107   9.818  0.9571  1.0671  0.5813
34527SOL    HW2 7370   8.555  10.237   9.743  2.0228 -0.6857 -2.4327
34528SOL     OW 7371   6.624   9.857   6.371 -0.0208  0.1257 -0.6928
34528SOL    HW1 7372   6.686   9.883   6.439 -0.3554 -1.6528  0.3633
34528SOL    HW2 7373   6.679   9.836   6.296  0.3367  2.3909 -1.1452
34529SOL     OW 7374   7.819   6.609   5.095 -0.1723 -0.0676  0.8112
34529SOL    HW1 7375   7.901   6.565   5.118  0.4795  1.8217  2.3168
34529SOL    HW2 7376   7.846   6.693   5.058 -1.4184  0.3995  0.9093
34530SOL     OW 7377   3.931   2.589   4.091 -0.6371 -0.1524  0.3823
34530SOL    HW1 7378   3.840   2.598   4.062 -0.7916  2.7728  1.4723
34530SOL    HW2 7379   3.982   2.634   4.023 -0.2278  0.0393  0.8157
34531SOL     OW 7380   3.493   8.459   1.558  0.1100 -0.3402  0.2078
34531SOL    HW1 7381   3.465   8.407   1.483  0.6798 -0.5564  0.1353
34531SOL    HW2 7382   3.573   8.416   1.588  1.1064  0.9978 -0.4161
34532SOL     OW 7383   3.916   0.393   7.275  0.1816  0.1294 -0.0973
34532SOL    HW1 7384   3.924   0.309   7.321 -1.5567 -1.7788 -2.9425
34532SOL    HW2 7385   3.971   0.384   7.198 -1.0556  1.0335 -1.1371
34533SOL     OW 7386   5.589   1.237   5.831  0.2373  0.0681 -0.2270
34533SOL    HW1 7387   5.614   1.296   5.760  1.0650  0.2433  0.1905
34533SOL    HW2 7388   5.653   1.166   5.826 -0.7684 -0.8084 -0.7363
34534SOL     OW 7389   3.595   3.468   3.799  0.9085 -0.0330  0.1445
34534SOL    HW1 7390   3.542   3.446   3.723  0.2635 -1.8280  1.0653
34534SOL    HW2 7391   3.547   3.538   3.842 -1.6166 -2.5328  1.7324
34535SOL     OW 7392   8.071   4.016   7.469 -0.1497 -0.4438  0.3246
34535SOL    HW1 7393   8.073   4.107   7.439  1.9593 -0.7629 -0.6429
34535SOL    HW2 7394   8.038   4.022   7.559 -1.6029  1.0797 -0.2614
34536SOL     OW 7395   1.758   1.046   6.713  0.1856 -0.3495 -0.7672
34536SOL    HW1 7396   1.818   1.083   6.649 -0.3666 -0.0916 -1.1419
34536SOL    HW2 7397   1.808   0.976   6.756  0.8880  0.1377 -0.7769
34537SOL     OW 7398   0.982   8.127   8.019  0.2775 -0.2792  0.1039
34537SOL    HW1 7399   1.069   8.167   8.030  0.1710 -0.0580  0.1482
34537SOL    HW2 7400   0.996   8.035   8.039  0.1710  0.0311  1.7343
34538SOL     OW 7401   5.941   1.384   3.748 -0.4890 -0.0615  0.2053
34538SOL    HW1 7402   6.022   1.407   3.793  0.1808  0.4830 -1.2272
34538SOL    HW2 7403   5.901   1.467   3.724 -0.7665 -0.3304 -0.3038
34539SOL     OW 7404   6.603   4.547   5.697 -0.2127  0.0990  0.4880
34539SOL    HW1 7405   6.650   4.530   5.616  0.1157  1.9528  0.2413
34539SOL    HW2 7406   6.531   4.606   5.671  0.3166  1.2945  1.6080
34540SOL     OW 7407   2.340   2.662   8.311 -0.3660 -0.1783 -0.6379
34540SOL    HW1 7408   2.339   2.620   8.225 -1.8333  0.7842 -1.1569
34540SOL    HW2 7409   2.275   2.613   8.362 -0.3332 -0.0439 -0.4677
34541SOL     OW 7410   4.701   4.893   1.506 -0.0294 -0.1177  0.1927
34541SOL    HW1 7411   4.610   4.923   1.507 -0.0971 -0.2737 -0.5161
34541SOL    HW2 7412   4.745   4.951   1.443  0.1536 -0.6139 -0.1468
34542SOL     OW 7413   9.106   2.579   9.886 -0.0281 -0.0047 -0.0170
34542SOL    HW1 7414   9.028   2.591   9.833  0.4137  0.6115 -0.5470
34542SOL    HW2 7415   9.096   2.641   9.959 -0.8211 -1.1328  0.8627
34543SOL     OW 7416   6.688   5.809   0.720  0.1688  0.2809  0.6314
34543SOL    HW1 7417   6.751   5.799   0.792  1.1894  1.5454 -0.0381
34543SOL    HW2 7418   6.669   5.902   0.718 -1.0236  0.0460  0.2025
34544SOL     OW 7419   3.918   2.273  10.118 -0.4625 -0.0118  0.3576
34544SOL    HW1 7420   3.966   2.242  10.041  1.5543  0.7617  1.2382
34544SOL    HW2 7421   3.872   2.352  10.088 -1.0693 -0.6481 -0.4421
34545SOL     OW 7422   8.079   3.320   7.250  0.2007  0.0647 -0.0372
34545SOL    HW1 7423   8.058   3.265   7.325  0.0623 -0.0532 -0.1607
34545SOL    HW2 7424   8.011   3.300   7.185 -0.2982  0.9342  0.1941
34546SOL     OW 7425   8.804   7.679   0.199 -0.0525 -0.8984  0.0007
34546SOL    HW1 7426   8.809   7.674   0.104 -1.6303  2.1805 -0.3680
34546SOL    HW2 7427   8.863   7.750   0.223  0.4468 -1.7357  1.3687
34547SOL     OW 7428   2.357   0.816   7.812 -0.2518 -0.8686 -0.1048
34547SOL    HW1 7429   2.388   0.906   7.801 -0.7515 -0.3210  2.3431
34547SOL    HW2 7430   2.265   0.819   7.785 -0.2710 -0.6529 -0.0130
34548SOL     OW 7431   8.174   0.429   1.916 -0.2007 -0.0045  0.4052
34548SOL    HW1 7432   8.097   0.470   1.955 -1.0763 -3.5680  2.9238
34548SOL    HW2 7433   8.170   0.338   1.945  3.5152 -1.0471 -1.6934
34549SOL     OW 7434   1.980   2.170   9.632 -0.3883  0.3083 -0.1902
34549SOL    HW1 7435   1.914   2.218   9.582 -1.1063 -0.5340 -0.0899
34549SOL    HW2 7436   1.930   2.120   9.697  0.5764  1.9741  1.9551
34550SOL     OW 7437   5.683   2.353   9.811 -0.1532  0.4286  0.2146
34550SOL    HW1 7438   5.748   2.422   9.798  0.0761  0.5095  1.7172
34550SOL    HW2 7439   5.633   2.352   9.729  0.5212  1.6404 -0.2372
34551SOL     OW 7440   5.919   6.700   5.874  0.5814  0.5057  0.2352
34551SOL    HW1 7441   5.938   6.720   5.966 -0.9468  0.5605  0.5746
34551SOL    HW2 7442   5.860   6.624   5.878 -2.1557  2.4317 -0.4669
34552SOL     OW 7443   9.064  10.186   6.811  0.1377  0.1138  0.3273
34552SOL    HW1 7444   9.054  10.093   6.795 -1.9815 -0.2847  3.1283
34552SOL    HW2 7445   8.996  10.228   6.757  0.5903 -0.0170 -0.3514
34553SOL     OW 7446   9.102   8.705   4.475  0.1043 -0.2882 -0.2780
34553SOL    HW1 7447   9.052   8.774   4.430 -1.3680 -2.0820 -1.5454
34553SOL    HW2 7448   9.140   8.653   4.404  0.4707 -1.2635  0.6165
34554SOL     OW 7449  10.214   7.834   5.961  0.4240  0.7594  0.0995
34554SOL    HW1 7450  10.131   7.794   5.987 -0.6505  1.8115 -1.5170
34554SOL    HW2 7451  10.199   7.863   5.871  2.6371  0.7896 -0.3100
34555SOL     OW 7452   1.055   9.815   6.490  0.3757  0.1282  0.3505
34555SOL    HW1 7453   1.042   9.779   6.403  1.6039  0.8957 -0.1764
34555SOL    HW2 7454   1.065   9.909   6.477 -1.5637  0.5709  1.5709
34556SOL     OW 7455   1.513   2.675   4.934  0.9375 -0.4378  0.2251
34556SOL    HW1 7456   1.428   2.718   4.936  0.2343 -1.7674 -0.0504
34556SOL    HW2 7457   1.552   2.702   4.851  0.2490 -0.7806 -0.2210
34557SOL     OW 7458   0.467   5.955   7.385 -0.4896 -0.5999  1.1309
34557SOL    HW1 7459   0.386   5.943   7.336 -0.0440 -0.7789  0.4305
34557SOL    HW2 7460   0.533   5.909   7.334  0.1990  0.1789  1.3018
34558SOL     OW 7461   6.491   9.456   8.929 -0.3599 -0.0533 -0.0274
34558SOL    HW1 7462   6.572   9.499   8.901  0.3466 -1.4687 -0.2860
34558SOL    HW2 7463   6.498   9.368   8.892 -0.9657 -0.9181  1.8060
34559SOL     OW 7464   3.010   3.911   4.869 -0.1156 -0.0749  0.2198
34559SOL    HW1 7465   2.947   3.848   4.903  1.0517 -1.7653 -0.6360
34559SOL    HW2 7466   3.020   3.975   4.940 -0.8048 -1.2273  1.3971
34560SOL     OW 7467   8.184   6.418   5.672  0.3904  0.4876 -0.3583
34560SOL    HW1 7468   8.154   6.418   5.763  2.2843 -1.1409  0.3457
34560SOL    HW2 7469   8.104   6.425   5.620 -0.7086  1.8072  1.4031
34561SOL     OW 7470   5.683   3.085   0.680 -0.4993 -0.1259  0.2891
34561SOL    HW1 7471   5.643   3.090   0.594 -0.1843 -0.5690  0.1157
34561SOL    HW2 7472   5.641   3.010   0.723 -0.0825 -0.4064  0.2179
34562SOL     OW 7473   0.933   0.140   9.365  0.2612 -0.2039 -0.2859
34562SOL    HW1 7474   1.011   0.087   9.382  0.6538  0.7586  1.1236
34562SOL    HW2 7475   0.864   0.076   9.345  1.4867 -1.0440 -1.9953
34563SOL     OW 7476   2.504   0.123   8.708  0.0795 -0.3639 -0.8342
34563SOL    HW1 7477   2.414   0.156   8.712  0.4769  0.6783  0.3783
34563SOL    HW2 7478   2.499   0.047   8.650 -1.8613 -1.2480  0.3882
34564SOL     OW 7479   3.728   8.294   1.254 -0.4242  0.3346 -0.4322
34564SOL    HW1 7480   3.681   8.227   1.304 -0.0071  0.2490 -0.1584
34564SOL    HW2 7481   3.670   8.370   1.258 -0.4869  0.2647  0.0028
34565SOL     OW 7482   4.289   3.009   6.698 -0.1965  0.2275  0.2968
34565SOL    HW1 7483   4.255   2.951   6.630  0.4022 -0.9735  1.0002
34565SOL    HW2 7484   4.221   3.008   6.766 -1.0930  1.9230 -0.4904
34566SOL     OW 7485   0.536   2.143   3.450 -0.2772  0.1419 -0.3385
34566SOL    HW1 7486   0.481   2.100   3.515  1.5534 -2.6984 -0.4849
34566SOL    HW2 7487   0.625   2.112   3.470  0.8179  1.8268 -2.1829
34567SOL     OW 7488   9.971   9.559   7.122  0.1968  0.4797 -0.3678
34567SOL    HW1 7489  10.016   9.628   7.172  0.8326 -0.5810  0.5801
34567SOL    HW2 7490  10.042   9.509   7.082 -0.0843 -1.1372  1.0339
34568SOL     OW 7491   7.355   4.918   4.898  0.1126  0.6915  0.0622
34568SOL    HW1 7492   7.420   4.988   4.893  0.7334  0.6138  3.8270
34568SOL    HW2 7493   7.282   4.958   4.945 -0.2640 -0.6513  0.6492
34569SOL     OW 7494   0.232   2.347   9.890  0.2686  0.1827 -0.1430
34569SOL    HW1 7495   0.137   2.343   9.875  0.4481 -0.3529 -1.2552
34569SOL    HW2 7496   0.240   2.376   9.980 -0.9422  2.0708 -0.5709
34570SOL     OW 7497   4.264   9.703   4.377  0.3287 -0.1722 -0.2410
34570SOL    HW1 7498   4.255   9.669   4.288  0.0881 -0.1076 -0.2403
34570SOL    HW2 7499   4.209   9.645   4.431 -0.6914  0.6756 -0.3494
34571SOL     OW 7500   5.074   9.270   6.808 -0.6368 -0.1469 -0.1925
34571SOL    HW1 7501   5.152   9.278   6.862  0.4149 -0.6868 -1.5868
34571SOL    HW2 7502   5.103   9.294   6.720 -1.7201 -1.6016 -0.9825
34572SOL     OW 7503   3.413   8.346   8.424  0.4659  0.2107  0.0282
34572SOL    HW1 7504   3.347   8.346   8.494  0.8656 -0.3446  0.4225
34572SOL    HW2 7505   3.486   8.294   8.460  1.4887  1.5324 -0.0449
34573SOL     OW 7506   0.598   3.493   3.107  0.1347 -0.1303  0.3540
34573SOL    HW1 7507   0.505   3.492   3.085  0.0596 -1.6321  0.6510
34573SOL    HW2 7508   0.643   3.502   3.023 -0.2586  2.7248  0.3481
34574SOL     OW 7509  10.028   4.734   0.134 -0.0227 -0.0280  0.7600
34574SOL    HW1 7510  10.055   4.644   0.117 -1.1200 -0.1543 -0.4702
34574SOL    HW2 7511  10.034   4.777   0.049  0.8974  1.1875  1.4190
34575SOL     OW 7512   2.756   0.601   1.281 -0.0362 -0.0936 -0.4828
34575SOL    HW1 7513   2.728   0.649   1.359  0.5948 -0.9332  0.2900
34575SOL    HW2 7514   2.764   0.510   1.310  0.7481 -0.3345 -1.3855
34576SOL     OW 7515   0.284   2.776   4.314  0.1644 -0.2476 -0.0521
34576SOL    HW1 7516   0.310   2.795   4.224  1.2171  1.4001  0.5658
34576SOL    HW2 7517   0.208   2.832   4.330  0.5816  0.2032  0.3823
34577SOL     OW 7518   4.266   0.864   6.529 -0.7790  0.0863 -0.1040
34577SOL    HW1 7519   4.350   0.839   6.491 -0.0231 -1.0224  2.1054
34577SOL    HW2 7520   4.265   0.960   6.524  1.8483  0.3604  2.0621
34578SOL     OW 7521   1.642   5.411   9.784 -0.2491  0.1494 -0.0495
34578SOL    HW1 7522   1.723   5.386   9.827 -0.5604  0.0756  0.5095
34578SOL    HW2 7523   1.615   5.492   9.828  0.6938  1.4710 -1.7678
34579SOL     OW 7524   9.722   9.754   4.109 -0.1328  0.5462 -0.0262
34579SOL    HW1 7525   9.683   9.676   4.149 -1.8527  1.3486 -0.0577
34579SOL    HW2 7526   9.653   9.789   4.052  0.0097  2.9637  1.1645
34580SOL     OW 7527   3.986   2.988   3.622 -0.2278  0.0297  0.0223
34580SOL    HW1 7528   3.940   2.976   3.539 -0.5145  0.1211  0.1656
34580SOL    HW2 7529   3.920   2.969   3.689  0.0509 -0.2186  0.2273
34581SOL     OW 7530   3.409   8.148   8.098 -0.6395  0.4041  0.0665
34581SOL    HW1 7531   3.433   8.231   8.139 -1.3959 -0.1296  1.7059
34581SOL    HW2 7532   3.437   8.081   8.161 -0.3977 -0.5717 -1.0341
34582SOL     OW 7533   3.047   1.734   9.913 -0.3577 -0.1227 -0.3388
34582SOL    HW1 7534   3.007   1.661   9.960 -2.0656  1.6055  1.0815
34582SOL    HW2 7535   2.983   1.756   9.845  0.9097 -0.9357 -1.8568
34583SOL     OW 7536   2.377   8.630   1.108  0.0196 -0.0537 -0.5082
34583SOL    HW1 7537   2.422   8.548   1.089 -2.1445 -1.9561  1.8605
34583SOL    HW2 7538   2.324   8.647   1.031 -0.3359 -1.5257 -0.6154
34584SOL     OW 7539   5.880   8.459   4.331 -0.1928 -0.0583  0.0260
34584SOL    HW1 7540   5.947   8.390   4.330  1.5478  1.5394 -1.6962
34584SOL    HW2 7541   5.798   8.413   4.312  0.9569 -1.6360 -1.3766
34585SOL     OW 7542   8.437   8.571   2.299  0.3391 -0.4143 -0.2029
34585SOL    HW1 7543   8.411   8.655   2.260  0.0015 -1.4547 -2.3270
34585SOL    HW2 7544   8.434   8.587   2.394  1.0045  2.1714 -0.5403
34586SOL     OW 7545   6.559   4.642   0.986  0.5133 -0.6589 -0.0650
34586SOL    HW1 7546   6.624   4.712   0.984  0.0344 -0.1998 -1.6120
34586SOL    HW2 7547   6.496   4.669   1.052 -0.6472  1.3742 -1.8591
34587SOL     OW 7548   1.311   5.205   6.629 -0.1402  0.0087  0.3012
34587SOL    HW1 7549   1.404   5.223   6.648  0.3445 -0.3646 -1.4961
34587SOL    HW2 7550   1.272   5.292   6.620 -0.8953  0.3261  4.6359
34588SOL     OW 7551   3.624   7.236   3.177 -0.6117 -0.0799  0.1587
34588SOL    HW1 7552   3.573   7.172   3.226  0.5247 -0.5703  0.7381
34588SOL    HW2 7553   3.559   7.290   3.131 -1.6405 -0.4737  1.1306
34589SOL     OW 7554   1.730   0.765   3.214 -0.1025  0.3455 -0.0211
34589SOL    HW1 7555   1.699   0.675   3.226  1.2077 -0.7172 -3.5823
34589SOL    HW2 7556   1.651   0.819   3.219 -0.8551 -0.8115  2.6618
34590SOL     OW 7557   8.436   7.317   5.185 -0.6042  0.2707  0.5201
34590SOL    HW1 7558   8.516   7.336   5.235 -1.5387  0.6373  1.9563
34590SOL    HW2 7559   8.398   7.241   5.230  0.0824 -1.4225 -1.5796
34591SOL     OW 7560   0.147   3.267   5.194  0.9528 -0.1899 -0.1004
34591SOL    HW1 7561   0.102   3.351   5.201 -0.7432 -1.0197 -0.3847
34591SOL    HW2 7562   0.224   3.285   5.140  1.6745  1.5386  1.4263
34592SOL     OW 7563   0.334   8.806   9.745  0.0390  0.4498  0.7158
34592SOL    HW1 7564   0.294   8.822   9.660  0.6175 -0.3815  0.2724
34592SOL    HW2 7565   0.294   8.871   9.803 -2.0878 -0.4120  0.3367
34593SOL     OW 7566   7.603   9.407   3.406  0.5915 -0.2228 -0.4342
34593SOL    HW1 7567   7.633   9.491   3.370 -3.2258  0.3943 -2.6112
34593SOL    HW2 7568   7.684   9.357   3.419  2.7386  2.0005 -3.6714
34594SOL     OW 7569   3.595   8.850   7.624 -0.9826 -0.5237  0.0777
34594SOL    HW1 7570   3.638   8.789   7.684 -0.6391  0.5079  0.8971
34594SOL    HW2 7571   3.626   8.824   7.537 -0.2183 -1.0110  0.4844
34595SOL     OW 7572   3.992   6.246   5.064  0.3558 -0.4499  0.0185
34595SOL    HW1 7573   4.069   6.194   5.042 -0.0919 -1.1675  0.1034
34595SOL    HW2 7574   3.930   6.183   5.103  0.1849  0.3247  1.0700
34596SOL     OW 7575   7.696   4.141   5.964  0.0469  0.2255  0.7130
34596SOL    HW1 7576   7.699   4.098   5.878 -1.0685  0.5058  0.5106
34596SOL    HW2 7577   7.735   4.078   6.024  2.4647  0.7126 -0.2370
34597SOL     OW 7578   5.369   3.566   8.142  0.1289  0.1268 -0.7552
34597SOL    HW1 7579   5.359   3.485   8.092  0.6839 -0.7675  0.5203
34597SOL    HW2 7580   5.445   3.550   8.198  0.3187  1.5868 -0.5655
34598SOL     OW 7581   7.465   4.026   0.445  0.2571 -0.1806 -0.2036
34598SOL    HW1 7582   7.456   3.932   0.457  0.0854 -0.1439 -0.0315
34598SOL    HW2 7583   7.382   4.053   0.404 -1.3305  0.4529  3.1190
34599SOL     OW 7584   3.891   6.385   8.414 -0.0553 -0.6705  0.1913
34599SOL    HW1 7585   3.964   6.447   8.421  0.4296 -1.2868  0.7470
34599SOL    HW2 7586   3.816   6.431   8.451  0.2440 -0.3357  0.3826
34600SOL     OW 7587   5.707   2.526  10.149 -0.7221 -0.1692 -0.0832
34600SOL    HW1 7588   5.622   2.488  10.172 -0.5482 -0.1996  0.5356
34600SOL    HW2 7589   5.690   2.620  10.142 -0.2604  0.2690  3.0287
34601SOL     OW 7590   8.590   2.774   3.119  0.4455  0.0692  0.2756
34601SOL    HW1 7591   8.632   2.805   3.038 -0.3063 -0.9409 -0.5273
34601SOL    HW2 7592   8.518   2.719   3.089  1.8114 -2.6570  1.5732
34602SOL     OW 7593   4.737   0.824   5.278 -0.2820  0.3943  0.1226
34602SOL    HW1 7594   4.797   0.823   5.352  0.7868  1.2159 -0.7052
34602SOL    HW2 7595   4.785   0.868   5.208 -0.9367 -1.1105 -1.3565
34603SOL     OW 7596   5.523   0.104   8.934  0.3658  0.4164  0.1606
34603SOL    HW1 7597   5.530   0.012   8.907 -0.0658  0.3574  0.2357
34603SOL    HW2 7598   5.613   0.135   8.939  0.4620  0.4974 -1.5833
34604SOL     OW 7599   6.060   4.752   4.411  0.2943  0.1134  0.2779
34604SOL    HW1 7600   6.125   4.815   4.379 -0.2568 -0.4440 -2.1631
34604SOL    HW2 7601   5.988   4.757   4.347 -0.8974 -1.1762  1.4365
34605SOL     OW 7602   1.303   1.659   3.919  0.6109 -0.6299  0.8374
34605SOL    HW1 7603   1.378   1.682   3.865 -0.7611  0.7065 -0.5985
34605SOL    HW2 7604   1.308   1.718   3.994  1.0119 -0.5935  0.7843
34606SOL     OW 7605   8.478   9.408   4.235  0.5825  0.1461  0.0606
34606SOL    HW1 7606   8.551   9.364   4.192  0.7517 -1.7268  2.0853
34606SOL    HW2 7607   8.402   9.352   4.217 -0.3176  1.7603 -1.5315
34607SOL     OW 7608   8.592   0.050   9.676 -0.6105  0.2152 -0.3420
34607SOL    HW1 7609   8.511   0.033   9.627 -1.5405  0.0028  1.2156
34607SOL    HW2 7610   8.572   0.126   9.731  0.1035 -0.1089  0.3835
34608SOL     OW 7611   8.142   4.464   4.123 -0.0703 -0.1018 -0.3402
34608SOL    HW1 7612   8.127   4.440   4.031  2.2117  1.2028 -1.1538
34608SOL    HW2 7613   8.148   4.381   4.169  1.0000 -0.9127 -1.8419
34609SOL     OW 7614   2.409   0.777   7.340  0.4748 -0.6335 -0.3734
34609SOL    HW1 7615   2.425   0.860   7.386 -0.5373 -0.7797  0.2566
34609SOL    HW2 7616   2.419   0.800   7.247 -0.5265  0.3796 -0.2556
34610SOL     OW 7617   6.966   0.424   3.893 -0.1749  0.1349 -0.3684
34610SOL    HW1 7618   7.041   0.455   3.945 -0.4729 -0.2234  0.2832
34610SOL    HW2 7619   6.915   0.371   3.954 -0.0263 -1.1069 -1.2786
34611SOL     OW 7620   6.656   9.879   4.161  0.2019 -0.3773 -0.3298
34611SOL    HW1 7621   6.621   9.966   4.142  0.9125  0.0262  0.2039
34611SOL    HW2 7622   6.585   9.819   4.135 -0.9524  0.4314  0.8651
34612SOL     OW 7623   5.841   2.230   1.150  0.0877 -0.3062  0.2803
34612SOL    HW1 7624   5.864   2.307   1.098 -1.0907  0.2144  0.4984
34612SOL    HW2 7625   5.825   2.162   1.085 -0.3650  0.0569  0.0049
34613SOL     OW 7626   3.501   5.747   1.344 -0.5197  0.4339 -0.6397
34613SOL    HW1 7627   3.546   5.812   1.398 -1.0411  0.3816 -0.1332
34613SOL    HW2 7628   3.408   5.762   1.362 -0.9006  2.1538 -3.4913
34614SOL     OW 7629   1.845   8.731   2.260 -0.2915 -0.3921 -0.5872
34614SOL    HW1 7630   1.759   8.705   2.291 -0.1256 -2.1371 -1.4852
34614SOL    HW2 7631   1.830   8.816   2.218 -1.3876 -0.2669  0.0197
34615SOL     OW 7632   7.406   3.259   6.160  0.9729  0.2212  0.2449
34615SOL    HW1 7633   7.345   3.268   6.087  0.0401 -1.1770  0.8014
34615SOL    HW2 7634   7.358   3.294   6.236 -0.0904 -2.8215  1.1140
34616SOL     OW 7635   7.791   9.456   5.466  0.4896 -0.0541  0.0141
34616SOL    HW1 7636   7.804   9.537   5.516  1.8425 -0.4340  0.3396
34616SOL    HW2 7637   7.850   9.465   5.391  0.7254 -0.7720  0.1087
34617SOL     OW 7638   1.546   3.572   0.309 -0.3445 -0.8015 -0.1816
34617SOL    HW1 7639   1.509   3.660   0.302 -0.4587 -0.8746 -0.4961
34617SOL    HW2 7640   1.521   3.544   0.397  2.5127  0.7435  1.2705
34618SOL     OW 7641   8.059   3.196   7.483 -0.2061  0.3396  0.7131
34618SOL    HW1 7642   8.017   3.253   7.548 -0.1013  1.0889  0.1405
34618SOL    HW2 7643   7.999   3.122   7.474 -1.0749  1.0624  0.4151
34619SOL     OW 7644   4.222   4.877   7.764  0.1177  0.2177  0.0495
34619SOL    HW1 7645   4.288   4.851   7.699 -0.3138  0.0387 -0.3272
34619SOL    HW2 7646   4.272   4.915   7.836  0.7408 -1.1955  0.3994
34620SOL     OW 7647   6.412   2.174   6.157  0.9766  0.2640  0.3606
34620SOL    HW1 7648   6.487   2.115   6.164  0.0875 -0.7440  2.2202
34620SOL    HW2 7649   6.336   2.116   6.163  0.0326  1.3158 -0.9501
34621SOL     OW 7650   9.484   1.015   5.073 -0.4305  0.2685  0.5173
34621SOL    HW1 7651   9.531   1.048   5.150 -0.8730  0.4153  0.7283
34621SOL    HW2 7652   9.433   0.941   5.107 -2.3330  1.6749  0.8533
34622SOL     OW 7653   5.702   0.796   9.768  0.2450 -0.4250  1.0033
34622SOL    HW1 7654   5.711   0.887   9.795 -1.0464 -0.3960  1.4160
34622SOL    HW2 7655   5.792   0.763   9.763  0.7657  1.0234  0.2729
34623SOL     OW 7656   0.674   4.143   4.991 -0.0983 -0.1335  0.4019
34623SOL    HW1 7657   0.639   4.162   5.078 -0.7026  0.5853  0.0151
34623SOL    HW2 7658   0.768   4.161   4.999 -0.3327  1.0910  0.6053
34624SOL     OW 7659   3.668   7.826   2.553  0.1356 -0.2236 -0.1460
34624SOL    HW1 7660   3.658   7.734   2.575  2.1419 -0.1931  1.1670
34624SOL    HW2 7661   3.658   7.873   2.635 -0.9298  0.7759 -0.8075
34625SOL     OW 7662   1.712   9.067   3.089 -0.8135  0.0579 -0.0280
34625SOL    HW1 7663   1.765   8.990   3.110  0.8639  0.2759 -2.8753
34625SOL    HW2 7664   1.709   9.117   3.170 -0.0428 -1.9200  1.2873
34626SOL     OW 7665   8.366   5.467   3.223 -0.8939  0.3090  0.0967
34626SOL    HW1 7666   8.432   5.499   3.161  1.7447 -1.1479  1.9353
34626SOL    HW2 7667   8.411   5.398   3.271 -3.3516  0.2128  2.4707
34627SOL     OW 7668   2.696   6.446   8.067  0.2021 -0.1267 -0.0953
34627SOL    HW1 7669   2.655   6.462   8.153  0.4729 -1.1820  0.2519
34627SOL    HW2 7670   2.644   6.375   8.029  1.1749 -0.9124 -0.0083
34628SOL     OW 7671   0.085   9.552   5.126 -0.2272 -0.0303 -0.0071
34628SOL    HW1 7672   0.018   9.488   5.099  1.5524 -2.5541  1.0979
34628SOL    HW2 7673   0.157   9.537   5.066  1.0711 -0.7339  1.6272
34629SOL     OW 7674   0.872   7.146   2.360  1.0907  0.1028 -0.0635
34629SOL    HW1 7675   0.838   7.232   2.334  0.7447  0.0670  0.2509
34629SOL    HW2 7676   0.848   7.139   2.453  0.7579 -0.5040 -0.1925
34630SOL     OW 7677   7.424   7.481   6.438  0.0418 -0.2154 -0.2048
34630SOL    HW1 7678   7.463   7.517   6.518  0.6095 -0.5657 -0.3242
34630SOL    HW2 7679   7.331   7.505   6.445  0.1757  0.1850  0.3206
34631SOL     OW 7680   6.656   3.297   7.467  0.2454 -0.4481 -0.1452
34631SOL    HW1 7681   6.696   3.316   7.551 -0.4657 -0.1101  0.1273
34631SOL    HW2 7682   6.562   3.302   7.484  0.0953 -0.3690 -0.9561
34632SOL     OW 7683   7.249   8.044   2.811  0.0737 -0.2110 -0.1410
34632SOL    HW1 7684   7.300   8.037   2.891  0.6350  1.1724 -0.3543
34632SOL    HW2 7685   7.300   7.998   2.745  1.0068  1.0333 -0.3187
34633SOL     OW 7686   6.769   7.234   1.279  0.1270 -0.5431  0.7185
34633SOL    HW1 7687   6.694   7.292   1.292 -0.4087 -1.0086 -0.2344
34633SOL    HW2 7688   6.815   7.236   1.363  0.3611  1.5607  0.5957
34634SOL     OW 7689   3.480   1.895   1.860 -0.0841  0.5325 -0.5588
34634SOL    HW1 7690   3.511   1.955   1.927 -0.8724  0.8147 -0.4468
34634SOL    HW2 7691   3.403   1.937   1.822  0.8544  0.8070 -2.2769
34635SOL     OW 7692   4.068   8.157   0.967  0.1932  0.2342 -0.6879
34635SOL    HW1 7693   4.066   8.207   0.885 -0.3341 -0.1122 -0.8967
34635SOL    HW2 7694   4.086   8.222   1.034 -1.7862  0.9717 -0.7873
34636SOL     OW 7695   1.595   5.242   8.006 -0.2084 -0.5715 -0.2173
34636SOL    HW1 7696   1.616   5.270   7.917  0.7198  0.4118  0.2805
34636SOL    HW2 7697   1.511   5.285   8.026 -0.8737 -1.5147 -0.9119
34637SOL     OW 7698   0.674   0.125   2.765  0.0967 -0.2803 -0.1001
34637SOL    HW1 7699   0.680   0.178   2.685  0.9224  0.3651  0.3688
34637SOL    HW2 7700   0.697   0.036   2.737 -0.8533 -0.3102 -0.8122
34638SOL     OW 7701   9.314   4.159  10.056  0.0404 -0.1407 -0.0283
34638SOL    HW1 7702   9.224   4.160  10.090  0.5525 -0.5764  1.4056
34638SOL    HW2 7703   9.338   4.251  10.050 -0.8541  0.0341 -1.4708
34639SOL     OW 7704   2.384   3.214   0.210 -0.1547 -0.2916  0.4832
34639SOL    HW1 7705   2.385   3.200   0.304 -0.1336 -1.3558  0.3340
34639SOL    HW2 7706   2.292   3.219   0.187 -0.1631  1.1572  0.7036
34640SOL     OW 7707   6.791   4.264   8.307  0.5536 -0.1607 -0.1878
34640SOL    HW1 7708   6.873   4.242   8.262  0.3867 -0.7532 -0.2115
34640SOL    HW2 7709   6.731   4.289   8.237 -0.0830 -2.2586 -0.4541
34641SOL     OW 7710   2.729   4.539   1.471 -0.1237 -0.1195  0.2546
34641SOL    HW1 7711   2.725   4.454   1.426  0.1054 -0.5843  1.0913
34641SOL    HW2 7712   2.666   4.594   1.424  0.0078 -0.6323 -0.5401
34642SOL     OW 7713   1.664   9.539   5.805 -0.5730  0.1841  0.5541
34642SOL    HW1 7714   1.711   9.588   5.737  0.9509  0.3644  1.6907
34642SOL    HW2 7715   1.594   9.494   5.758  1.2078 -0.7320 -1.3694
34643SOL     OW 7716   4.342   8.109   5.422 -1.5323  0.1169 -0.1887
34643SOL    HW1 7717   4.277   8.076   5.360 -1.8044  0.5864 -0.1587
34643SOL    HW2 7718   4.297   8.109   5.506 -1.4215  0.2410 -0.1298
34644SOL     OW 7719   0.579   1.243   1.661 -0.1945 -0.1948 -0.0534
34644SOL    HW1 7720   0.674   1.247   1.677  0.0131  2.5718 -1.2752
34644SOL    HW2 7721   0.540   1.266   1.746  0.2687 -0.2843  0.1903
34645SOL     OW 7722   0.426   1.039  10.002 -0.3214  0.1482  0.0404
34645SOL    HW1 7723   0.518   1.044   9.976 -0.6368 -1.6677 -1.6229
34645SOL    HW2 7724   0.427   0.987  10.083  0.1733  1.0545  0.6359
34646SOL     OW 7725   3.428   3.872   7.023 -0.0309 -0.0316 -0.3846
34646SOL    HW1 7726   3.343   3.832   7.006  0.4986 -1.2698 -0.1831
34646SOL    HW2 7727   3.487   3.799   7.035  1.1482  0.8119 -0.8771
34647SOL     OW 7728   4.876   7.960   1.254  0.3033  0.1787 -0.5746
34647SOL    HW1 7729   4.906   8.009   1.178  2.1329  0.3233  0.1941
34647SOL    HW2 7730   4.949   7.901   1.275  1.8763  3.1040  3.6071
34648SOL     OW 7731  10.331   5.337   9.553  0.2207  0.6194 -0.4447
34648SOL    HW1 7732  10.262   5.319   9.617 -1.9169  2.1225 -2.1318
34648SOL    HW2 7733  10.404   5.370   9.604 -0.4749 -0.5489  1.4045
34649SOL     OW 7734   6.463   7.216   9.709 -0.0156 -0.6128  0.2764
34649SOL    HW1 7735   6.422   7.299   9.686 -0.6607 -0.1559  2.8097
34649SOL    HW2 7736   6.553   7.239   9.734  0.6176 -1.0754 -1.4007
34650SOL     OW 7737   7.463   5.997   3.257  0.1849  0.2511 -0.5927
34650SOL    HW1 7738   7.525   5.924   3.247 -1.4481 -1.1079 -1.2460
34650SOL    HW2 7739   7.496   6.064   3.197  2.1265  0.3933  0.5485
34651SOL     OW 7740   3.909   6.879   8.418  0.2632  0.4674  0.2591
34651SOL    HW1 7741   3.939   6.861   8.507  0.0449 -0.0711  0.2296
34651SOL    HW2 7742   3.899   6.974   8.414  1.2726  0.5894  0.4889
34652SOL     OW 7743   0.466   8.325   5.939 -0.4281  0.3287  0.2951
34652SOL    HW1 7744   0.541   8.282   5.979  0.7874  0.8074 -1.3892
34652SOL    HW2 7745   0.442   8.394   6.000 -0.0155 -0.3121  1.2122
34653SOL     OW 7746   9.604   4.720   9.621  0.3185  0.4691 -0.2992
34653SOL    HW1 7747   9.631   4.771   9.544 -0.4085  0.3900 -0.6181
34653SOL    HW2 7748   9.680   4.722   9.679  0.5587  1.2918 -0.6301
34654SOL     OW 7749   0.425   7.587   4.245 -0.8164 -0.2523 -0.5926
34654SOL    HW1 7750   0.333   7.571   4.225 -1.0736  0.6767 -0.2118
34654SOL    HW2 7751   0.429   7.680   4.265  0.1394 -0.3637 -0.2182
34655SOL     OW 7752   2.259   3.317   6.813  0.1535 -0.8039 -0.6890
34655SOL    HW1 7753   2.229   3.232   6.783  0.9770 -1.4178  0.1633
34655SOL    HW2 7754   2.195   3.343   6.880  0.2976 -1.1031 -0.4297
34656SOL     OW 7755  10.294   4.651   6.466 -0.0812  0.0450  0.2372
34656SOL    HW1 7756  10.285   4.557   6.477  0.4701  0.1168  1.4026
34656SOL    HW2 7757  10.207   4.680   6.438  0.2314 -1.0397 -2.1027
34657SOL     OW 7758   1.742   2.694   5.890  0.4136  0.2932 -0.4526
34657SOL    HW1 7759   1.780   2.620   5.843 -0.8339 -0.8920  0.3361
34657SOL    HW2 7760   1.787   2.694   5.974 -0.4515 -0.3800  0.0286
34658SOL     OW 7761   1.983   9.610   2.598  0.0906 -0.0332 -0.1989
34658SOL    HW1 7762   1.949   9.698   2.584  0.7972  0.4060  0.7866
34658SOL    HW2 7763   2.000   9.605   2.692  0.9652 -0.8945 -0.3881
34659SOL     OW 7764   4.997   9.237   3.920  0.1579  0.0933 -0.0232
34659SOL    HW1 7765   4.949   9.155   3.917  0.4805 -0.0854 -2.1950
34659SOL    HW2 7766   5.066   9.223   3.985  0.8939 -1.7798 -1.1278
34660SOL     OW 7767  10.184   3.367   9.707 -0.2781 -0.1805 -0.2019
34660SOL    HW1 7768  10.269   3.323   9.716 -1.1287 -2.2260 -1.4611
34660SOL    HW2 7769  10.184   3.400   9.618 -0.9608 -0.5624 -0.3473
34661SOL     OW 7770   9.551   5.168   5.308  0.3665 -0.2183  0.2914
34661SOL    HW1 7771   9.598   5.102   5.256  0.6963 -0.6143  1.0627
34661SOL    HW2 7772   9.570   5.251   5.265  0.2462 -0.5847 -0.4873
34662SOL     OW 7773   6.175   0.869   7.116 -0.2205  0.2226 -0.2030
34662SOL    HW1 7774   6.083   0.858   7.140 -0.1070 -0.2680  0.0250
34662SOL    HW2 7775   6.210   0.780   7.117  0.1801  0.3764 -0.5984
34663SOL     OW 7776   3.811   4.567   2.294  0.2441 -0.1175 -0.0146
34663SOL    HW1 7777   3.835   4.635   2.357 -1.3947  0.5105 -0.0045
34663SOL    HW2 7778   3.875   4.576   2.223  0.8839  0.5217  0.6353
34664SOL     OW 7779   6.861   2.005   4.826 -0.3397  0.3513 -0.4120
34664SOL    HW1 7780   6.953   1.995   4.851 -0.1012  1.4075 -0.7977
34664SOL    HW2 7781   6.814   1.951   4.888  0.3077  2.2277  1.8732
34665SOL     OW 7782   8.237   6.013   0.905 -0.1526 -0.0553 -0.5085
34665SOL    HW1 7783   8.201   6.101   0.896 -1.4702 -0.6833 -1.8245
34665SOL    HW2 7784   8.244   5.981   0.815 -0.9540 -1.7558 -0.0047
34666SOL     OW 7785   8.712   6.488   3.331 -0.0764  0.0132 -0.2276
34666SOL    HW1 7786   8.794   6.489   3.281  0.3485 -1.9317  0.3347
34666SOL    HW2 7787   8.651   6.538   3.277  0.6096 -1.2403 -2.2879
34667SOL     OW 7788   5.017   2.799   8.111 -0.1753 -0.4241  0.2645
34667SOL    HW1 7789   5.086   2.756   8.161 -0.5551 -0.7812  0.4937
34667SOL    HW2 7790   4.991   2.734   8.045  1.1837  0.4954 -1.2343
34668SOL     OW 7791   1.603   4.982   1.037 -0.2782 -0.3832 -0.2045
34668SOL    HW1 7792   1.655   4.909   1.072  0.1094 -0.5789 -1.1569
34668SOL    HW2 7793   1.667   5.052   1.023 -0.8474  0.6347  1.9312
34669SOL     OW 7794   6.851   6.929   7.042 -0.4061 -0.3758 -0.2252
34669SOL    HW1 7795   6.878   6.958   6.955 -1.3789 -0.1156 -0.4483
34669SOL    HW2 7796   6.788   6.858   7.025 -0.5927 -0.3297  0.2646
34670SOL     OW 7797   9.537   4.993   1.479  0.5746 -0.6057  0.1083
34670SOL    HW1 7798   9.457   5.045   1.485 -0.8274 -2.8335  2.6875
34670SOL    HW2 7799   9.599   5.037   1.538  0.2552 -0.4659  0.3417
34671SOL     OW 7800   1.946   5.691   3.158 -0.1133 -0.3802 -0.0773
34671SOL    HW1 7801   1.948   5.674   3.252 -0.3278 -1.0141 -0.1833
34671SOL    HW2 7802   2.025   5.649   3.124 -0.6714 -1.2427 -0.3476
34672SOL     OW 7803   4.712   5.041   8.665 -0.3151 -0.1953  0.6149
34672SOL    HW1 7804   4.649   5.103   8.627  0.6223  0.6278  0.3503
34672SOL    HW2 7805   4.691   5.040   8.758  0.0486  1.0459  0.7408
34673SOL     OW 7806   0.725   6.719   4.553  0.4311  0.3719 -0.1411
34673SOL    HW1 7807   0.667   6.739   4.479 -1.5681  0.8787  1.4672
34673SOL    HW2 7808   0.811   6.748   4.524 -0.9117  4.2578 -0.9173
34674SOL     OW 7809   9.200   4.819   6.383  0.8341 -0.0832  0.1966
34674SOL    HW1 7810   9.191   4.861   6.468  0.4546  0.0184  0.1105
34674SOL    HW2 7811   9.234   4.732   6.402 -0.2662 -0.4531  0.5491
34675SOL     OW 7812   6.702   0.052   4.159 -0.2151 -0.6249 -0.5076
34675SOL    HW1 7813   6.666   0.024   4.074 -0.8233 -0.0908 -0.4425
34675SOL    HW2 7814   6.627   0.093   4.203  0.6128  1.0678 -0.6071
34676SOL     OW 7815   5.781   2.781   8.414 -0.0868  1.1032 -0.2523
34676SOL    HW1 7816   5.874   2.795   8.427 -0.1173  2.3120 -1.1015
34676SOL    HW2 7817   5.755   2.722   8.485  1.5771 -0.4118 -0.8381
34677SOL     OW 7818   0.016   8.337   8.021  0.5033  0.2491  0.0657
34677SOL    HW1 7819   0.061   8.394   7.959  1.1509  0.2521  0.5288
34677SOL    HW2 7820  -0.077   8.345   7.997  0.5546  1.6507  0.2383
34678SOL     OW 7821   7.655   2.773   5.213  0.4911 -0.0972  0.2930
34678SOL    HW1 7822   7.698   2.755   5.297 -0.1390  1.5186  0.9859
34678SOL    HW2 7823   7.725   2.806   5.156  0.5645  0.5819  0.7744
34679SOL     OW 7824   5.868   3.921   8.824  0.2635 -0.2219 -0.0267
34679SOL    HW1 7825   5.868   4.011   8.857 -2.0829  0.7065 -2.3044
34679SOL    HW2 7826   5.806   3.874   8.880 -0.0678  0.1038 -0.1226
34680SOL     OW 7827   5.105   9.650   4.096 -0.4665  0.1411  0.8401
34680SOL    HW1 7828   5.060   9.729   4.067  0.8145  0.2185 -1.2046
34680SOL    HW2 7829   5.038   9.582   4.093 -1.0861  0.7491  0.4924
34681SOL     OW 7830   7.007   6.133   7.809  0.4224  0.2809  0.5538
34681SOL    HW1 7831   6.982   6.106   7.720 -3.2219  1.2775  1.1345
34681SOL    HW2 7832   6.954   6.077   7.866  0.3343  1.7864  2.0003
34682SOL     OW 7833   2.096   9.014   2.750  0.7361 -0.1846  0.4261
34682SOL    HW1 7834   2.145   9.090   2.717 -1.3228  0.6305 -0.9602
34682SOL    HW2 7835   2.092   9.028   2.844 -1.1034  2.5202  0.0787
34683SOL     OW 7836  10.155   1.257   5.821 -0.4700 -0.2553 -0.5713
34683SOL    HW1 7837  10.218   1.323   5.794 -0.7137  0.5018  0.6170
34683SOL    HW2 7838  10.183   1.233   5.910 -0.2807 -1.8912 -1.0451
34684SOL     OW 7839   5.029   1.924   3.669  0.5096 -0.2226 -0.0981
34684SOL    HW1 7840   4.958   1.897   3.726  0.4767  1.2006  0.5724
34684SOL    HW2 7841   5.011   1.881   3.585 -1.2611  0.2916 -0.0099
34685SOL     OW 7842   3.458   4.853   9.669 -0.2997  0.6546 -0.4097
34685SOL    HW1 7843   3.420   4.925   9.721  0.4210  0.4844  0.3812
34685SOL    HW2 7844   3.501   4.897   9.596 -1.5104  0.8859 -1.0198
34686SOL     OW 7845   7.479   3.555   9.643  0.4651 -0.8672 -0.5527
34686SOL    HW1 7846   7.440   3.469   9.625  1.0399 -1.9663  2.6606
34686SOL    HW2 7847   7.404   3.613   9.656 -0.0815 -1.8212  0.8779
34687SOL     OW 7848   4.259   0.484   3.035  0.0365 -0.5475  0.3654
34687SOL    HW1 7849   4.213   0.471   2.952 -0.3229 -3.2449  0.9090
34687SOL    HW2 7850   4.296   0.573   3.028 -0.9366 -0.2559 -2.1732
34688SOL     OW 7851   5.542   8.700   9.799  0.7143 -0.1477  0.1414
34688SOL    HW1 7852   5.452   8.672   9.780 -0.5637  3.5911 -0.1984
34688SOL    HW2 7853   5.591   8.680   9.720 -0.0004 -1.4510  0.0054
34689SOL     OW 7854   3.937   7.334   0.013 -0.2635  0.4277  0.1871
34689SOL    HW1 7855   3.860   7.389   0.029 -0.1976  0.1926  1.3989
34689SOL    HW2 7856   3.945   7.281   0.092 -0.1272 -1.1044 -0.8163
34690SOL     OW 7857   8.495   7.634   0.208  0.1473 -0.1691  0.2590
34690SOL    HW1 7858   8.569   7.681   0.247  0.0737 -0.3451  0.6189
34690SOL    HW2 7859   8.535   7.573   0.146  0.1182  2.2942 -2.3793
34691SOL     OW 7860  10.220   7.672   1.864  0.0366  0.2565  0.0479
34691SOL    HW1 7861  10.290   7.617   1.900  2.5871  2.3777 -1.3225
34691SOL    HW2 7862  10.239   7.760   1.898 -2.1987  0.8848 -0.1498
34692SOL     OW 7863   7.266   9.912   2.180 -0.2017 -0.2437 -0.3223
34692SOL    HW1 7864   7.254   9.906   2.085  0.4357  0.3832 -0.4479
34692SOL    HW2 7865   7.359   9.899   2.194 -0.1656  0.4566  0.1490
34693SOL     OW 7866   5.175   5.950   1.714  0.2909 -0.3581 -0.2659
34693SOL    HW1 7867   5.237   5.949   1.786  0.0776 -0.1714 -0.0776
34693SOL    HW2 7868   5.226   5.922   1.638  0.4891 -0.6555 -0.0231
34694SOL     OW 7869  10.270   9.412   1.450  0.1666 -0.2545  0.2596
34694SOL    HW1 7870  10.290   9.503   1.470  0.7819 -0.0225 -1.2853
34694SOL    HW2 7871  10.177   9.412   1.427  0.0412 -0.1186  0.7575
34695SOL     OW 7872   6.661   5.272   7.618  0.3735  0.2131 -0.1737
34695SOL    HW1 7873   6.588   5.275   7.557 -0.0779 -1.0394  0.2750
34695SOL    HW2 7874   6.727   5.329   7.579  0.4487 -1.2229 -2.3030
34696SOL     OW 7875   9.910   5.953   5.299  0.2923 -0.5079 -0.0013
34696SOL    HW1 7876   9.987   5.927   5.248  0.0687  1.3058 -1.3488
34696SOL    HW2 7877   9.944   6.018   5.362 -0.0142 -0.2137 -0.1388
34697SOL     OW 7878   6.378   6.660   5.205 -0.0762  0.2152 -0.0930
34697SOL    HW1 7879   6.406   6.570   5.191 -3.0247 -1.0141  1.2082
34697SOL    HW2 7880   6.392   6.676   5.299 -1.3453  0.4114  0.0805
34698SOL     OW 7881   8.701  10.337   0.529  0.5570  0.5767  0.2031
34698SOL    HW1 7882   8.760  10.314   0.458 -0.6368  0.0744 -0.6639
34698SOL    HW2 7883   8.651  10.257   0.546 -1.2274  1.4838 -0.4494
34699SOL     OW 7884   5.377   3.151   4.868  0.1084  0.0403 -0.3077
34699SOL    HW1 7885   5.468   3.121   4.876 -0.2644 -1.0957 -0.1327
34699SOL    HW2 7886   5.326   3.084   4.914 -0.8654  0.4153 -0.8153
34700SOL     OW 7887   5.591   9.456   3.831  0.0730 -0.7812 -0.6809
34700SOL    HW1 7888   5.681   9.475   3.806 -0.2121  0.8185 -0.6113
34700SOL    HW2 7889   5.563   9.533   3.882 -0.7168 -2.0967  0.9717
34701SOL     OW 7890   3.115   0.180  10.115 -0.3718  0.0917  0.5687
34701SOL    HW1 7891   3.164   0.242  10.060 -0.5150 -0.9023 -0.7482
34701SOL    HW2 7892   3.139   0.094  10.080 -2.3106 -0.4756  0.5113
34702SOL     OW 7893   8.314   9.129   4.868 -0.0105 -0.0172  0.4963
34702SOL    HW1 7894   8.241   9.135   4.929 -0.3517 -1.3429  0.2722
34702SOL    HW2 7895   8.390   9.107   4.922 -0.6415 -2.9506  0.3605
34703SOL     OW 7896   6.291   5.649   4.502  0.1969  0.3330  0.3532
34703SOL    HW1 7897   6.336   5.565   4.516 -1.9652 -1.6723 -3.2579
34703SOL    HW2 7898   6.336   5.687   4.426 -0.5751  1.1411  0.2906
34704SOL     OW 7899   3.499   1.635   1.110 -0.1848 -0.2895 -0.1832
34704SOL    HW1 7900   3.463   1.634   1.021 -1.2367 -2.2522  0.1943
34704SOL    HW2 7901   3.585   1.593   1.101 -0.8841 -1.8014 -0.1030
34705SOL     OW 7902   3.673   5.571   0.032 -0.1810 -0.0025  0.9089
34705SOL    HW1 7903   3.697   5.484   0.063 -1.0026 -0.0169  1.5304
34705SOL    HW2 7904   3.755   5.621   0.035  0.6600 -1.1622 -0.9653
34706SOL     OW 7905   1.781   7.275   9.921  0.0868  0.4485  0.1386
34706SOL    HW1 7906   1.803   7.345   9.982 -1.4652 -0.9780  2.4778
34706SOL    HW2 7907   1.692   7.250   9.944 -0.3915 -0.5060 -2.4431
34707SOL     OW 7908   1.793   6.836  10.057  0.0076 -0.2810 -0.7111
34707SOL    HW1 7909   1.811   6.867  10.146  0.0924 -0.1171 -0.7838
34707SOL    HW2 7910   1.749   6.911  10.015  0.8585  0.0066 -1.1116
34708SOL     OW 7911   9.799   0.780   5.006 -0.0046 -0.0345  0.2199
34708SOL    HW1 7912   9.726   0.754   4.950  0.8622  0.1095 -1.0281
34708SOL    HW2 7913   9.790   0.875   5.016 -0.3567 -0.1076  0.6311
34709SOL     OW 7914   8.037   2.429   3.386  0.3015 -0.1474 -0.3975
34709SOL    HW1 7915   7.957   2.402   3.431  0.4465  1.5097  0.9468
34709SOL    HW2 7916   8.092   2.467   3.455  1.1606  1.1243 -1.7222
34710SOL     OW 7917   2.386   7.665   4.309 -0.6944  0.1677 -0.8064
34710SOL    HW1 7918   2.447   7.629   4.373 -0.0877 -0.2633 -1.6153
34710SOL    HW2 7919   2.404   7.617   4.229 -0.6732  1.4689 -1.6109
34711SOL     OW 7920   3.274   3.546   1.539  0.1728 -0.7706 -0.4937
34711SOL    HW1 7921   3.306   3.622   1.490 -0.3546 -0.8644 -0.9913
34711SOL    HW2 7922   3.188   3.528   1.501 -1.0125  0.1797  1.5469
34712SOL     OW 7923   8.861  10.346   9.722 -0.1186  0.6460  0.1175
34712SOL    HW1 7924   8.873  10.425   9.776 -2.4377  0.1848  1.4315
34712SOL    HW2 7925   8.772  10.352   9.690  0.2012 -0.6739 -1.1316
34713SOL     OW 7926   9.548   0.251   0.665  0.0831  0.0881 -0.2006
34713SOL    HW1 7927   9.561   0.179   0.727 -1.1081  0.1951  0.1977
34713SOL    HW2 7928   9.458   0.239   0.633  0.5741  0.2147 -1.6835
34714SOL     OW 7929   3.703   2.946   6.793  0.0941  0.3224  0.0367
34714SOL    HW1 7930   3.705   2.996   6.874 -1.7722  0.8429 -0.1852
34714SOL    HW2 7931   3.696   3.012   6.724  1.7354 -0.1034 -0.6059
34715SOL     OW 7932   3.491   4.277   5.261  0.3819 -0.6237  0.0781
34715SOL    HW1 7933   3.505   4.227   5.181  0.3909 -0.4718 -0.0158
34715SOL    HW2 7934   3.579   4.295   5.295  0.5772  1.8816 -1.4658
34716SOL     OW 7935   8.133   9.045   5.669  0.5711  0.0308  0.3658
34716SOL    HW1 7936   8.097   9.117   5.618  1.5655 -1.3992 -2.6170
34716SOL    HW2 7937   8.081   9.043   5.750  0.2574  3.7254  0.3987
34717SOL     OW 7938   5.903   5.190   0.498 -0.2510  0.1490 -0.0421
34717SOL    HW1 7939   5.829   5.132   0.483 -0.2873 -0.1048  1.0269
34717SOL    HW2 7940   5.977   5.131   0.512  0.2881  0.3980 -1.6052
34718SOL     OW 7941   5.649   6.487   7.825 -1.3617 -0.3733 -0.1743
34718SOL    HW1 7942   5.558   6.486   7.854 -1.8261 -1.2185 -1.5492
34718SOL    HW2 7943   5.644   6.501   7.730  0.0916  2.3382  0.0571
34719SOL     OW 7944  10.238   7.944   2.000  0.0677  0.6854  0.0785
34719SOL    HW1 7945  10.295   7.950   2.076  0.7129 -0.9536 -0.2429
34719SOL    HW2 7946  10.269   8.013   1.941  0.8983  0.6168  0.4276
34720SOL     OW 7947   9.780   8.542   3.619  0.0901  0.3585  0.7210
34720SOL    HW1 7948   9.798   8.622   3.570 -1.1022 -1.8462 -3.8757
34720SOL    HW2 7949   9.691   8.519   3.594  1.0360 -3.3268  0.1652
34721SOL     OW 7950   9.528   6.839   2.840 -0.0693 -0.0474 -0.1464
34721SOL    HW1 7951   9.614   6.799   2.824 -0.8369 -1.3931 -1.1777
34721SOL    HW2 7952   9.548   6.924   2.880  1.7206 -0.4394 -0.1087
34722SOL     OW 7953   0.098   8.054   5.002  0.0854 -0.1341 -0.1142
34722SOL    HW1 7954   0.171   8.083   4.948 -1.8535  0.9041 -2.4027
34722SOL    HW2 7955   0.095   7.959   4.992  0.9776 -0.1567 -0.1699
34723SOL     OW 7956   7.564   2.240   9.167 -0.0727  0.1616 -0.8340
34723SOL    HW1 7957   7.540   2.291   9.090 -2.3927  2.2362  1.0838
34723SOL    HW2 7958   7.651   2.274   9.191 -0.9972  2.4102 -0.3708
34724SOL     OW 7959   8.269  10.110   0.223 -0.9550  0.0146 -0.1643
34724SOL    HW1 7960   8.250  10.068   0.307  1.2091  0.1821  0.4563
34724SOL    HW2 7961   8.253  10.041   0.158  0.3968 -1.1382  0.6627
34725SOL     OW 7962   8.045   7.835   4.313 -0.0444 -0.6868  0.0461
34725SOL    HW1 7963   7.954   7.853   4.289 -0.3884 -0.3290  1.4696
34725SOL    HW2 7964   8.094   7.911   4.281  0.1315 -1.7499 -2.4467
34726SOL     OW 7965   0.316   8.242   8.960  0.3714  0.0290 -0.5522
34726SOL    HW1 7966   0.322   8.259   9.054 -0.4097 -1.9532 -0.1142
34726SOL    HW2 7967   0.347   8.324   8.920  3.3094  0.0279  1.3961
34727SOL     OW 7968   1.131   6.687   3.673  0.4474  0.2538 -0.1643
34727SOL    HW1 7969   1.157   6.665   3.762 -0.9542 -0.5878  0.0766
34727SOL    HW2 7970   1.206   6.664   3.619  0.6180 -1.0984  0.6008
34728SOL     OW 7971   0.211   2.740   8.160 -0.0788 -0.2602  0.2656
34728SOL    HW1 7972   0.158   2.771   8.233 -0.7964  0.4839 -0.5534
34728SOL    HW2 7973   0.169   2.658   8.133  0.8926 -1.1780  1.4228
34729SOL     OW 7974   5.677   5.315  10.039 -0.3191  0.0645 -0.2776
34729SOL    HW1 7975   5.668   5.304  10.134  0.2709 -1.7900 -0.4129
34729SOL    HW2 7976   5.720   5.235  10.009 -0.6071  0.5679 -2.1436
34730SOL     OW 7977   4.640   5.889   7.512  0.1449  0.5459 -0.0839
34730SOL    HW1 7978   4.597   5.939   7.442  1.2714  0.7207 -0.6658
34730SOL    HW2 7979   4.731   5.882   7.484  0.3677 -0.3600  0.8307
34731SOL     OW 7980   7.940   5.291   9.571  0.0496  0.2157 -0.0760
34731SOL    HW1 7981   7.998   5.344   9.517  0.4662 -0.5860 -0.4258
34731SOL    HW2 7982   7.926   5.344   9.650  1.8486  0.1184  0.3473
34732SOL     OW 7983   1.950   9.435  10.218  0.4524 -0.6515 -0.2377
34732SOL    HW1 7984   1.902   9.489  10.281 -0.0996  0.6146 -1.6740
34732SOL    HW2 7985   1.888   9.368  10.191  1.0534 -1.9172  1.3500
34733SOL     OW 7986   8.031   7.333   2.687  0.2208  0.1569  0.5781
34733SOL    HW1 7987   7.987   7.265   2.739 -1.9806 -0.7891 -2.2555
34733SOL    HW2 7988   7.986   7.414   2.710  0.5710  0.0958  1.5083
34734SOL     OW 7989   0.156   1.457   5.561  0.9640  0.7569 -0.0520
34734SOL    HW1 7990   0.127   1.424   5.477 -1.4161  1.2114  0.5363
34734SOL    HW2 7991   0.213   1.531   5.539 -1.0410  2.0265 -1.3091
34735SOL     OW 7992   9.145   0.312   9.295  0.4262  0.4151 -0.5972
34735SOL    HW1 7993   9.137   0.404   9.272 -1.3575  0.2000 -0.9409
34735SOL    HW2 7994   9.073   0.295   9.355  0.7035 -0.7683 -0.5682
34736SOL     OW 7995   5.752   7.652   9.448  0.1435  0.4228  0.0833
34736SOL    HW1 7996   5.813   7.717   9.483  0.8138 -0.4423  0.5682
34736SOL    HW2 7997   5.802   7.570   9.446 -0.5331  0.0140 -0.9550
34737SOL     OW 7998   9.798   6.581   5.485  0.5552  0.1552  0.4476
34737SOL    HW1 7999   9.884   6.537   5.491  0.1478 -1.2308 -2.2188
34737SOL    HW2 8000   9.820   6.674   5.474  1.6549  0.0244  1.3387
34738SOL     OW 8001  10.340   6.040   7.437  0.1002 -0.2112 -0.0300
34738SOL    HW1 8002  10.379   6.106   7.379 -2.4758 -0.9353 -2.8762
34738SOL    HW2 8003  10.414   5.995   7.477  2.0294  1.1520 -1.8803
34739SOL     OW 8004   9.045   8.574   8.067  0.2908  0.0664  0.0664
34739SOL    HW1 8005   9.033   8.581   7.972  0.0642 -0.2993  0.0666
34739SOL    HW2 8006   8.960   8.543   8.100 -0.1567  1.7065  0.5657
34740SOL     OW 8007   4.766   5.421   0.117  0.3086 -0.6722 -0.3726
34740SOL    HW1 8008   4.750   5.392   0.207  1.3163 -0.2331 -0.0372
34740SOL    HW2 8009   4.861   5.424   0.109  0.2302  0.2771 -1.1403
34741SOL     OW 8010   9.194   3.364   4.973 -0.1296  0.3644 -0.2103
34741SOL    HW1 8011   9.142   3.401   4.902  0.1026 -2.1591 -1.8370
34741SOL    HW2 8012   9.280   3.347   4.934  0.7025  0.8465  1.3049
34742SOL     OW 8013   7.633   6.477   2.778 -0.0325  0.3449  0.0156
34742SOL    HW1 8014   7.711   6.519   2.815  1.1974  0.4008 -2.4594
34742SOL    HW2 8015   7.634   6.389   2.814  0.8567  0.5151  0.4519
34743SOL     OW 8016   5.815   2.658   4.832 -0.3572  0.2445 -0.3195
34743SOL    HW1 8017   5.795   2.663   4.739 -0.3938  1.9249 -0.2527
34743SOL    HW2 8018   5.731   2.642   4.874 -0.3522 -0.4415 -0.5691
34744SOL     OW 8019   9.116   4.463   2.877 -0.1070  0.3115 -0.4765
34744SOL    HW1 8020   9.075   4.541   2.839  2.0382  0.8470 -1.9035
34744SOL    HW2 8021   9.210   4.480   2.870  0.4032 -1.6381  0.8801
34745SOL     OW 8022   4.566   6.152  10.006  0.0272 -0.3071  0.2782
34745SOL    HW1 8023   4.481   6.194   9.999  1.8675  3.5967 -1.4915
34745SOL    HW2 8024   4.598   6.147   9.916  1.8509 -1.3014  0.9168
34746SOL     OW 8025   4.885   7.637   4.373 -0.4251 -0.1599 -0.2655
34746SOL    HW1 8026   4.845   7.696   4.437 -1.7009  0.2076 -1.3710
34746SOL    HW2 8027   4.954   7.592   4.423 -0.0500  1.5464  0.8479
34747SOL     OW 8028   3.487   3.395   1.665 -0.3231  0.0171  0.0449
34747SOL    HW1 8029   3.435   3.439   1.598  1.9657  0.0754 -1.8144
34747SOL    HW2 8030   3.537   3.329   1.617  1.9077  0.4981  1.5512
34748SOL     OW 8031   5.867   8.334   3.037 -0.6650  0.6995  0.3959
34748SOL    HW1 8032   5.951   8.366   3.006 -1.3546  1.4910 -0.7606
34748SOL    HW2 8033   5.886   8.293   3.121  0.9919  0.1382 -0.2110
34749SOL     OW 8034   0.329   7.244   7.676 -0.0603  0.1234 -0.5293
34749SOL    HW1 8035   0.409   7.195   7.660 -0.0399 -0.4204  1.1524
34749SOL    HW2 8036   0.273   7.224   7.601  0.2905 -1.7566 -0.3198
34750SOL     OW 8037   1.733   5.359   8.749  0.6489  0.8314 -0.2956
34750SOL    HW1 8038   1.711   5.431   8.690  0.9020  2.2091  1.2025
34750SOL    HW2 8039   1.810   5.390   8.796 -0.1909  0.2873  1.5377
34751SOL     OW 8040   6.550   4.426   9.943 -0.4304 -0.4821  0.2776
34751SOL    HW1 8041   6.598   4.508   9.950  0.3773 -0.9993  1.1512
34751SOL    HW2 8042   6.518   4.424   9.854  0.9735  0.0165 -0.2694
34752SOL     OW 8043   9.764   0.507   9.351 -0.1110 -0.7162  0.5552
34752SOL    HW1 8044   9.832   0.572   9.366 -0.5502 -0.1868  0.2750
34752SOL    HW2 8045   9.811   0.425   9.335  0.4593 -0.3287  0.2382
34753SOL     OW 8046   8.413   6.066   6.189 -0.0170 -0.1251  0.1782
34753SOL    HW1 8047   8.422   5.971   6.190 -0.6155 -0.1830  0.7350
34753SOL    HW2 8048   8.342   6.084   6.250 -0.5185  0.6216 -0.6014
34754SOL     OW 8049   4.973   3.321   9.837  0.1324  0.2985 -0.0857
34754SOL    HW1 8050   4.896   3.372   9.811 -0.9763 -0.6658  1.1466
34754SOL    HW2 8051   4.995   3.270   9.759 -0.1862  0.9333 -0.5991
34755SOL     OW 8052   5.831   1.022   9.213  0.5399 -0.1582  0.0114
34755SOL    HW1 8053   5.843   1.092   9.278 -1.5966  1.4393 -1.2232
34755SOL    HW2 8054   5.909   0.968   9.223  0.9218  0.7543  3.0021
34756SOL     OW 8055   7.571   4.094   8.962  0.3658  0.3449  0.5387
34756SOL    HW1 8056   7.525   4.037   9.024 -1.2976  1.2031  0.1510
34756SOL    HW2 8057   7.506   4.111   8.893  0.3946  3.5351  1.1640
34757SOL     OW 8058   3.684   3.830   8.594 -0.3903 -0.1652 -0.1572
34757SOL    HW1 8059   3.678   3.747   8.642 -1.5345  0.4229  0.7875
34757SOL    HW2 8060   3.618   3.885   8.635  0.5293  1.3126 -0.5879
34758SOL     OW 8061   4.536   8.531   3.789 -0.2045  0.2580 -0.9393
34758SOL    HW1 8062   4.536   8.615   3.835 -1.4594 -0.3785  0.3084
34758SOL    HW2 8063   4.529   8.465   3.859  1.1026 -0.9147 -1.8625
34759SOL     OW 8064   1.460   5.171   0.542  0.2473  0.1555  0.0138
34759SOL    HW1 8065   1.540   5.215   0.569  0.2827 -0.2906  0.6424
34759SOL    HW2 8066   1.474   5.152   0.449  0.3094  1.2840 -0.2215
34760SOL     OW 8067   0.203   4.350   2.180 -0.0333  0.3621  0.0093
34760SOL    HW1 8068   0.298   4.350   2.168 -0.0122  2.6410 -0.2939
34760SOL    HW2 8069   0.181   4.443   2.192 -2.0531 -0.2513  1.5633
34761SOL     OW 8070   5.475   1.314   6.575  0.3951 -0.2512 -0.0818
34761SOL    HW1 8071   5.474   1.252   6.502 -0.2398 -0.3008 -0.0420
34761SOL    HW2 8072   5.492   1.399   6.534  2.1223 -0.5406 -0.0412
34762SOL     OW 8073   9.671   5.847   3.114  0.0987 -0.1782  0.0748
34762SOL    HW1 8074   9.735   5.905   3.155 -0.9532  0.8367  0.3482
34762SOL    HW2 8075   9.639   5.896   3.038 -0.5936 -0.5029  0.1438
34763SOL     OW 8076   5.130   3.988   4.351 -0.5876 -0.0557  0.2907
34763SOL    HW1 8077   5.197   3.927   4.380  0.5028  0.3772 -1.1559
34763SOL    HW2 8078   5.100   3.953   4.267  0.2716  1.4962 -0.7143
34764SOL     OW 8079   6.503   4.714  10.250 -0.0158 -0.1606  0.0566
34764SOL    HW1 8080   6.548   4.632  10.270  0.6837  0.2784  0.2905
34764SOL    HW2 8081   6.455   4.736  10.330 -1.2975 -1.0185 -0.4287
34765SOL     OW 8082   4.467  10.204   6.646 -0.1546 -0.4761 -0.1293
34765SOL    HW1 8083   4.464  10.116   6.609  1.0850 -0.2112 -0.8958
34765SOL    HW2 8084   4.406  10.255   6.593 -1.5863 -1.0494  0.8954
34766SOL     OW 8085   6.981   5.182   9.445  0.0646 -0.4294 -0.3723
34766SOL    HW1 8086   7.065   5.229   9.440 -0.9661  1.5392 -0.2176
34766SOL    HW2 8087   6.937   5.219   9.522 -1.7206 -0.0066 -1.5305
34767SOL     OW 8088   8.875   7.252   0.742 -0.3093 -0.4009  0.1698
34767SOL    HW1 8089   8.870   7.164   0.780 -1.2867  0.2078  1.5164
34767SOL    HW2 8090   8.835   7.309   0.808 -1.9614  0.7352 -1.6847
34768SOL     OW 8091   6.214   7.571   9.791  0.0354  0.1832 -0.5259
34768SOL    HW1 8092   6.204   7.481   9.823 -1.9467  0.7935  0.6946
34768SOL    HW2 8093   6.164   7.624   9.851  1.4104  2.1987 -1.0572
34769SOL     OW 8094   2.081   3.641   8.845  0.8030  0.0770 -0.7101
34769SOL    HW1 8095   2.136   3.617   8.770  0.6154  0.3875 -0.9504
34769SOL    HW2 8096   2.139   3.692   8.902  1.6270 -2.0541  0.4951
34770SOL     OW 8097   7.480   8.370   8.387  0.2363  0.1723  0.8183
34770SOL    HW1 8098   7.409   8.325   8.342 -0.7591  1.5159  0.9647
34770SOL    HW2 8099   7.526   8.417   8.317  0.3150  0.1533  0.8585
34771SOL     OW 8100   7.185   9.518   3.662  0.3974 -0.2098 -0.3704
34771SOL    HW1 8101   7.261   9.463   3.681  0.2050 -0.5628 -0.6062
34771SOL    HW2 8102   7.217   9.608   3.671  0.6488 -0.3574  0.2796
34772SOL     OW 8103   5.442  10.140   9.717  0.2994 -0.2419 -0.7236
34772SOL    HW1 8104   5.353  10.108   9.732 -0.3701  2.5313  2.3853
34772SOL    HW2 8105   5.431  10.218   9.664  0.4881  1.3674  1.4451
34773SOL     OW 8106   4.300   2.122   0.579  0.4156  0.1926  0.1838
34773SOL    HW1 8107   4.231   2.070   0.621 -0.7858  1.4627 -0.1507
34773SOL    HW2 8108   4.362   2.140   0.650  0.0595 -0.3852  0.6572
34774SOL     OW 8109   9.182   4.753   7.456 -0.0773  0.6546  0.2691
34774SOL    HW1 8110   9.195   4.845   7.432 -0.9974  0.3707 -1.4636
34774SOL    HW2 8111   9.247   4.706   7.403 -1.8477  0.0533 -1.4806
34775SOL     OW 8112   2.712   9.900   6.717 -0.3532  0.0295  0.1742
34775SOL    HW1 8113   2.703   9.894   6.621 -1.0260 -0.0470  0.2361
34775SOL    HW2 8114   2.669   9.982   6.740  0.5626  0.4650  0.3244
34776SOL     OW 8115   0.753   3.733   6.507 -0.1146 -0.5282  0.3192
34776SOL    HW1 8116   0.779   3.645   6.484  0.4407 -0.2317 -0.2064
34776SOL    HW2 8117   0.686   3.722   6.575  0.1264 -1.3387  0.4274
34777SOL     OW 8118   1.817   0.442   0.545 -0.0769 -0.3651  0.1406
34777SOL    HW1 8119   1.888   0.462   0.485 -0.3837 -1.1843 -0.5139
34777SOL    HW2 8120   1.740   0.485   0.506  0.0119  0.3977  0.7695
34778SOL     OW 8121   0.487   9.198   4.956  0.7143 -0.1992  0.2327
34778SOL    HW1 8122   0.409   9.247   4.930  0.9437  0.1772  0.2452
34778SOL    HW2 8123   0.542   9.262   5.001  0.7230 -0.6342  0.8414
34779SOL     OW 8124   0.430   5.197   3.137 -0.1058 -0.0160  0.2262
34779SOL    HW1 8125   0.453   5.273   3.085 -0.6564  1.3914  1.9496
34779SOL    HW2 8126   0.470   5.213   3.222  1.5790 -2.6918  0.0634
34780SOL     OW 8127   8.326   0.350  10.056 -0.4078  0.6134 -0.5232
34780SOL    HW1 8128   8.311   0.437  10.094  3.1110  1.3764 -0.4394
34780SOL    HW2 8129   8.262   0.293  10.098 -1.0430  2.6877  1.5290
34781SOL     OW 8130   7.736   0.187   2.442  0.0926  0.0625 -0.2249
34781SOL    HW1 8131   7.711   0.099   2.471  0.9166 -0.2923 -0.5614
34781SOL    HW2 8132   7.663   0.243   2.468  0.1287 -0.5028  1.1615
34782SOL     OW 8133   6.294   8.950   8.072 -0.3175 -0.5122  0.0476
34782SOL    HW1 8134   6.243   8.919   8.147 -1.5398 -2.7945 -1.6044
34782SOL    HW2 8135   6.385   8.946   8.101 -0.8109 -0.2299  1.7440
34783SOL     OW 8136   4.657   2.307   5.306 -0.8727 -0.3098  0.1630
34783SOL    HW1 8137   4.679   2.398   5.322  1.8293 -0.5107 -1.7307
34783SOL    HW2 8138   4.562   2.307   5.290 -1.2291  1.8209  1.9571
34784SOL     OW 8139   5.924   6.053   7.850 -0.4077 -0.6778  0.8988
34784SOL    HW1 8140   6.009   6.066   7.808 -1.1237  2.3728  0.2121
34784SOL    HW2 8141   5.939   6.075   7.942 -0.9780  2.9486  0.2534
34785SOL     OW 8142   0.081   1.650   4.160 -0.2135  0.3554 -0.1697
34785SOL    HW1 8143   0.057   1.566   4.199 -0.3542 -0.3171 -1.6370
34785SOL    HW2 8144   0.161   1.676   4.205  0.4846 -1.1502 -0.4914
34786SOL     OW 8145   4.614   2.603   4.042 -0.1294  0.1625  0.0708
34786SOL    HW1 8146   4.542   2.596   3.979  0.9260  0.8352 -1.2609
34786SOL    HW2 8147   4.583   2.665   4.108 -0.6335  0.7485 -0.6955
34787SOL     OW 8148   8.676   9.023   5.142 -0.2374  0.5623  0.3682
34787SOL    HW1 8149   8.632   9.015   5.058  1.2405 -1.1568 -0.3152
34787SOL    HW2 8150   8.709   9.113   5.144  1.1505  0.1692 -1.6836
34788SOL     OW 8151   8.953   9.047   7.433  0.4057  0.4137 -0.2088
34788SOL    HW1 8152   8.981   9.076   7.520  0.5894  0.0244 -0.1377
34788SOL    HW2 8153   9.019   8.983   7.406 -0.2894 -0.3494 -0.1311
34789SOL     OW 8154   7.339   7.257   8.911  0.1861 -0.3829 -0.0759
34789SOL    HW1 8155   7.398   7.214   8.848 -0.3862 -0.9663 -0.2162
34789SOL    HW2 8156   7.398   7.288   8.980  0.8837  0.6190 -1.0650
34790SOL     OW 8157   4.248   6.136   4.609  0.3909  0.5710  0.2491
34790SOL    HW1 8158   4.305   6.061   4.592 -0.6702 -0.8194  2.3971
34790SOL    HW2 8159   4.221   6.165   4.522  0.5120 -1.8326 -0.6773
34791SOL     OW 8160  10.131   9.661   9.260 -0.0195 -0.1596 -0.3082
34791SOL    HW1 8161  10.223   9.688   9.252  0.5072 -1.1934  1.5949
34791SOL    HW2 8162  10.098   9.711   9.334 -1.3990  1.0668 -1.6698
34792SOL     OW 8163   7.680   6.466   9.481  0.5940 -0.2759  0.3762
34792SOL    HW1 8164   7.693   6.373   9.464 -1.2349 -0.4972  0.0655
34792SOL    HW2 8165   7.630   6.469   9.563  2.0424  0.5167  1.2779
34793SOL     OW 8166  10.050   5.504   9.877  0.1802  0.2433 -0.3048
34793SOL    HW1 8167  10.047   5.591   9.837  0.8701  0.0037 -0.8950
34793SOL    HW2 8168   9.963   5.493   9.916  0.2009  1.3412  0.0878
34794SOL     OW 8169   8.161   5.042   1.979  0.3570 -0.1067 -0.2540
34794SOL    HW1 8170   8.113   5.039   2.062 -1.4253  0.5310 -1.2325
34794SOL    HW2 8171   8.108   5.097   1.922  2.1150  0.3867 -1.5003
34795SOL     OW 8172   7.190   1.320   2.731  0.0168 -0.3619  0.0203
34795SOL    HW1 8173   7.263   1.325   2.792 -1.6260  0.8030  2.0008
34795SOL    HW2 8174   7.227   1.351   2.648  2.2298 -1.7006  0.4127
34796SOL     OW 8175   1.210   9.945   7.394  0.2888 -0.5055 -0.0252
34796SOL    HW1 8176   1.172   9.934   7.481 -0.1132  0.0152 -0.1340
34796SOL    HW2 8177   1.292   9.896   7.398  2.0865  2.3585  1.8223
34797SOL     OW 8178   5.287   1.204   4.303 -0.4798 -0.7682 -0.4555
34797SOL    HW1 8179   5.234   1.138   4.349 -0.3759  0.1929  1.1289
34797SOL    HW2 8180   5.224   1.260   4.259 -0.7113 -0.6070  0.0660
34798SOL     OW 8181   3.513   7.448   4.627  0.4031 -0.0556 -0.2664
34798SOL    HW1 8182   3.594   7.412   4.664 -0.6498 -1.6716  0.5860
34798SOL    HW2 8183   3.476   7.502   4.696  0.1168 -0.3678 -0.1714
34799SOL     OW 8184   2.887   4.951   1.557  0.0107 -0.0072 -0.1557
34799SOL    HW1 8185   2.965   4.898   1.539  0.3891  0.6347 -0.4194
34799SOL    HW2 8186   2.917   5.041   1.551 -0.1622  0.2827  2.2271
34800SOL     OW 8187   9.367   9.557   7.121  0.0942  0.0816 -0.0626
34800SOL    HW1 8188   9.424   9.549   7.044 -0.7507  1.1853 -0.8459
34800SOL    HW2 8189   9.425   9.586   7.191  1.0223 -1.6644 -0.0534
34801SOL     OW 8190   1.450   6.550   1.519  0.3075  0.2279  0.7158
34801SOL    HW1 8191   1.412   6.621   1.467 -0.6650 -0.8608 -0.1061
34801SOL    HW2 8192   1.375   6.507   1.559  0.5144 -2.3418 -1.4111
34802SOL     OW 8193   3.057   0.320   5.849  0.1767 -0.0849 -0.0581
34802SOL    HW1 8194   3.028   0.411   5.846 -0.2255 -0.2190 -0.4384
34802SOL    HW2 8195   2.986   0.273   5.892  1.8165  0.2796  3.3354
34803SOL     OW 8196   2.752   1.981   0.775 -0.0209  0.3111 -0.2646
34803SOL    HW1 8197   2.769   1.887   0.783 -2.0436  0.0147  1.2125
34803SOL    HW2 8198   2.772   2.017   0.861 -3.3449  0.4316  0.5932
34804SOL     OW 8199   3.804   9.407   9.542  0.5189 -0.6139 -0.1734
34804SOL    HW1 8200   3.827   9.419   9.449 -0.5668 -0.4992 -0.4404
34804SOL    HW2 8201   3.723   9.457   9.553 -0.1932 -1.8693  0.4539
34805SOL     OW 8202   9.364   1.936   5.605 -0.1789  0.1389 -0.5859
34805SOL    HW1 8203   9.349   1.939   5.511 -2.5999 -1.4047 -0.3385
34805SOL    HW2 8204   9.329   2.019   5.638  1.0537  0.8630 -1.0474
34806SOL     OW 8205   0.097   6.303   9.739 -0.1087  0.2232 -0.0157
34806SOL    HW1 8206   0.139   6.288   9.824  0.9766  0.4139 -0.5087
34806SOL    HW2 8207   0.100   6.398   9.726 -2.3379  0.4723  0.7421
34807SOL     OW 8208   5.706   0.105   1.530  0.1929  0.6684  0.0699
34807SOL    HW1 8209   5.652   0.107   1.609  0.5859  0.3663  0.3507
34807SOL    HW2 8210   5.683   0.023   1.487  0.8370  0.2593  0.4874
34808SOL     OW 8211   6.803   1.926   3.482  0.3124  0.6342 -0.5134
34808SOL    HW1 8212   6.805   1.885   3.395 -0.8347  0.5541 -0.5154
34808SOL    HW2 8213   6.890   1.910   3.518  0.6104  0.1516 -1.4112
34809SOL     OW 8214   9.970   7.675   5.901 -0.2727  0.2890  0.4706
34809SOL    HW1 8215   9.919   7.756   5.901  1.7665  1.6489  1.8867
34809SOL    HW2 8216   9.929   7.621   5.968 -2.0667 -0.2175 -0.9471
34810SOL     OW 8217   1.176   6.637   3.981 -0.5902  0.1760  0.5476
34810SOL    HW1 8218   1.227   6.564   3.948 -1.1791  0.1170 -0.2438
34810SOL    HW2 8219   1.128   6.601   4.056 -1.4347 -0.4567 -0.2783
34811SOL     OW 8220  10.334   4.722   5.743  0.8623 -0.4779 -0.2940
34811SOL    HW1 8221  10.380   4.764   5.671  0.7753 -1.4759 -0.9465
34811SOL    HW2 8222  10.382   4.641   5.760 -0.5502 -1.5064 -0.9353
34812SOL     OW 8223   1.428  10.027   4.163  0.2540 -1.0983  0.3831
34812SOL    HW1 8224   1.340   9.990   4.168  0.4495 -1.4479  1.6907
34812SOL    HW2 8225   1.447  10.054   4.253 -0.0957  2.7631 -0.5110
34813SOL     OW 8226   1.917   4.396   6.553  0.5212 -0.0647 -0.1534
34813SOL    HW1 8227   1.852   4.359   6.494 -1.0760 -1.4706  2.2656
34813SOL    HW2 8228   1.984   4.328   6.560 -0.1875 -0.6871  0.9224
34814SOL     OW 8229   6.496   7.759   5.973  0.2569 -0.5974  0.1797
34814SOL    HW1 8230   6.427   7.826   5.970  0.3449 -0.5091  0.1359
34814SOL    HW2 8231   6.578   7.809   5.976  0.4485 -0.6576 -2.1707
34815SOL     OW 8232   0.581   3.966   7.599 -0.1852  0.1539  0.4428
34815SOL    HW1 8233   0.562   3.880   7.562 -0.4218  0.2859  0.2520
34815SOL    HW2 8234   0.676   3.968   7.610  0.1663  0.8854 -2.1413
34816SOL     OW 8235   7.427   5.456   7.590 -0.1555 -0.7382  0.2696
34816SOL    HW1 8236   7.370   5.471   7.515 -1.5618  2.3178  1.7708
34816SOL    HW2 8237   7.371   5.413   7.655  0.5194 -1.6418  0.2766
34817SOL     OW 8238   3.132   3.254   9.618  0.2203 -0.2099  0.1175
34817SOL    HW1 8239   3.133   3.289   9.708 -1.2940 -0.0547  0.0977
34817SOL    HW2 8240   3.175   3.169   9.625  2.5346  0.9138  0.4692
34818SOL     OW 8241   1.074   7.158   9.741  0.0924  0.6173 -0.2639
34818SOL    HW1 8242   1.159   7.132   9.704  0.0674  1.4762 -0.9438
34818SOL    HW2 8243   1.023   7.077   9.743  1.3826 -0.2349  1.4966
34819SOL     OW 8244   4.871   2.632   6.242 -0.6015 -0.4704 -0.1459
34819SOL    HW1 8245   4.930   2.583   6.186 -0.8945 -2.3804  1.1280
34819SOL    HW2 8246   4.800   2.660   6.185  0.0370 -0.7261 -1.0855
34820SOL     OW 8247   1.432   3.794   8.679 -0.2032  0.5247 -0.5527
34820SOL    HW1 8248   1.434   3.719   8.738 -1.7060  0.2801 -0.7774
34820SOL    HW2 8249   1.385   3.862   8.728  1.3581  1.4482 -0.2483
34821SOL     OW 8250   1.271   0.005   3.000 -0.2633 -0.1351 -0.0373
34821SOL    HW1 8251   1.219  -0.074   3.009  1.5444 -1.3935 -0.1967
34821SOL    HW2 8252   1.359  -0.026   2.976  0.9510  1.8026  1.5732
34822SOL     OW 8253   2.644   0.669   0.113  0.4524  0.2688  0.1422
34822SOL    HW1 8254   2.586   0.722   0.058 -0.0159 -2.7856 -2.6799
34822SOL    HW2 8255   2.615   0.579   0.098  3.6147 -1.1522  1.5205
34823SOL     OW 8256   8.895   8.937   9.524 -0.3505  0.0477 -0.3477
34823SOL    HW1 8257   8.881   9.029   9.501 -0.8643 -0.0174 -0.2955
34823SOL    HW2 8258   8.844   8.888   9.460 -1.1847 -0.1525  0.4451
34824SOL     OW 8259   1.241   9.993   1.665  0.2373  0.0815  0.1756
34824SOL    HW1 8260   1.250   9.946   1.582  0.3969 -1.1969  0.9063
34824SOL    HW2 8261   1.287   9.940   1.729 -0.6931  0.5544  1.2824
34825SOL     OW 8262   1.815   7.343   8.704  0.0189 -0.1239  0.1472
34825SOL    HW1 8263   1.805   7.316   8.795 -3.3899  0.3347  0.0301
34825SOL    HW2 8264   1.908   7.365   8.695  0.6091 -0.9334  3.2519
34826SOL     OW 8265   4.442   9.397   7.937  0.0738 -0.1551 -0.2415
34826SOL    HW1 8266   4.412   9.378   8.026 -0.7308  1.8937 -0.0275
34826SOL    HW2 8267   4.363   9.424   7.890  0.7528  0.3392 -1.1362
34827SOL     OW 8268   9.312   3.553   8.776  0.0231 -0.3486 -0.3330
34827SOL    HW1 8269   9.334   3.644   8.797  0.9263 -0.6614  0.1272
34827SOL    HW2 8270   9.378   3.527   8.712 -0.3517 -0.6279 -0.6109
34828SOL     OW 8271   4.113   6.298   9.116  0.0939  0.0511 -0.2909
34828SOL    HW1 8272   4.182   6.255   9.066 -0.7867 -0.4869 -1.1044
34828SOL    HW2 8273   4.151   6.381   9.146  1.2372 -0.4841 -0.2571
34829SOL     OW 8274   3.355   0.267   5.499 -0.0990  0.1803 -0.2962
34829SOL    HW1 8275   3.407   0.253   5.578 -4.2917  0.0865  2.8004
34829SOL    HW2 8276   3.356   0.362   5.487  0.3716  0.2207  0.0346
34830SOL     OW 8277   6.395   2.000   7.986  0.4243 -0.4691  0.3905
34830SOL    HW1 8278   6.444   1.924   8.017  0.9431 -0.7326 -1.0076
34830SOL    HW2 8279   6.426   2.014   7.897  1.0844  1.9985  0.9279
34831SOL     OW 8280   4.062   5.382   7.460  0.1309  0.0799 -0.0662
34831SOL    HW1 8281   4.036   5.290   7.452  1.3169 -0.2751 -0.1255
34831SOL    HW2 8282   4.155   5.378   7.482  0.5430  1.2743 -1.4460
34832SOL     OW 8283   1.094   6.042   1.327 -0.2489  0.1393  0.1744
34832SOL    HW1 8284   1.049   6.041   1.411 -0.8954  0.3649 -0.1687
34832SOL    HW2 8285   1.155   6.116   1.333 -0.0800 -0.0256  0.5484
34833SOL     OW 8286   1.881   2.432   5.503 -0.6932  0.4095  0.3286
34833SOL    HW1 8287   1.957   2.490   5.499 -0.7482  0.4959  0.5101
34833SOL    HW2 8288   1.870   2.400   5.414  1.2026 -1.7005  0.7596
34834SOL     OW 8289   8.609   3.500   9.096 -0.5544 -0.0925 -0.7314
34834SOL    HW1 8290   8.568   3.453   9.023  0.6889  0.3089 -1.7471
34834SOL    HW2 8291   8.595   3.593   9.076 -0.1886  0.0215 -0.4801
34835SOL     OW 8292   5.684   2.797   3.535  0.0968  0.4616  0.3905
34835SOL    HW1 8293   5.718   2.715   3.570 -0.5765  0.7223  1.7227
34835SOL    HW2 8294   5.758   2.837   3.489  1.1169  0.2336  1.7895
34836SOL     OW 8295   6.027   3.020   4.496  0.1108 -0.0375 -0.2029
34836SOL    HW1 8296   6.013   3.080   4.423  1.4705  1.8305  0.9871
34836SOL    HW2 8297   6.101   2.966   4.470  0.9500  0.9986 -0.0084
34837SOL     OW 8298   5.219  10.002   4.179  0.1893  0.3814 -0.1983
34837SOL    HW1 8299   5.271   9.964   4.251  0.2526  0.3340 -0.2690
34837SOL    HW2 8300   5.283  10.021   4.111 -0.0163 -0.5921 -0.6802
34838SOL     OW 8301   1.226   1.608   8.733  0.1335 -0.1706 -0.6801
34838SOL    HW1 8302   1.315   1.575   8.736  0.3677  0.4573 -0.5690
34838SOL    HW2 8303   1.206   1.631   8.824  0.1465  0.4344 -0.8289
34839SOL     OW 8304   1.127   5.318   2.049  0.1162 -0.9731 -0.4165
34839SOL    HW1 8305   1.215   5.317   2.087  0.2873 -0.2710 -0.7682
34839SOL    HW2 8306   1.142   5.329   1.955 -0.3591  0.7599 -0.3243
34840SOL     OW 8307   3.738   5.564   6.581 -0.1102  0.2758  0.1583
34840SOL    HW1 8308   3.728   5.571   6.676 -0.0817 -2.6278  0.4532
34840SOL    HW2 8309   3.832   5.558   6.567 -0.1230  0.5438 -0.0655
34841SOL     OW 8310   6.721   4.710   1.967  0.3513 -0.2102 -0.6617
34841SOL    HW1 8311   6.757   4.645   2.027  1.0234 -0.0416 -0.8614
34841SOL    HW2 8312   6.711   4.789   2.021  1.4929  0.1079 -0.8764
34842SOL     OW 8313   4.350   6.134   2.385  0.0459 -0.1315  0.0472
34842SOL    HW1 8314   4.257   6.158   2.383  0.1027  0.3050  1.5221
34842SOL    HW2 8315   4.362   6.077   2.309 -1.9182 -1.9929  1.0300
34843SOL     OW 8316   9.933   0.437   3.255 -0.2785 -0.1795 -0.2153
34843SOL    HW1 8317  10.029   0.431   3.251 -0.3787 -1.4152 -1.0244
34843SOL    HW2 8318   9.917   0.527   3.285  1.1027  0.7886 -2.1310
34844SOL     OW 8319   7.187   8.584   8.366  0.3918  0.0451  0.0957
34844SOL    HW1 8320   7.243   8.655   8.333  0.3733  0.0485  0.0722
34844SOL    HW2 8321   7.137   8.556   8.290  0.1810  0.2112  0.1719
34845SOL     OW 8322   3.075  10.213   2.664  0.8912  0.7292  0.0698
34845SOL    HW1 8323   3.031  10.191   2.582  1.6579 -1.3870  0.1456
34845SOL    HW2 8324   3.126  10.291   2.644  0.2653  0.8497 -1.1591
34846SOL     OW 8325   2.794   7.509   0.928  0.2379  0.0067  0.8302
34846SOL    HW1 8326   2.763   7.589   0.887  2.5015  0.3673 -0.3160
34846SOL    HW2 8327   2.744   7.502   1.009 -2.3320  0.7946 -0.6030
34847SOL     OW 8328   7.608   6.507   3.498 -0.1327 -0.5516 -0.1801
34847SOL    HW1 8329   7.584   6.496   3.406 -0.0671 -2.2618 -0.0235
34847SOL    HW2 8330   7.696   6.544   3.496  0.6136 -2.2922 -0.8446
34848SOL     OW 8331   1.451   1.335   2.001  0.2969 -0.7227 -0.0774
34848SOL    HW1 8332   1.423   1.426   2.011  0.5754 -0.6379 -0.0771
34848SOL    HW2 8333   1.388   1.285   2.054  0.5443 -0.4670  0.4626
34849SOL     OW 8334   8.721   9.478   9.309 -0.3700 -0.2119  0.0586
34849SOL    HW1 8335   8.800   9.439   9.346 -0.0114  1.9389  1.7852
34849SOL    HW2 8336   8.673   9.513   9.384 -3.1043 -1.5636 -0.9177
34850SOL     OW 8337   7.116   2.163   5.515  0.3904  0.0581  0.0118
34850SOL    HW1 8338   7.042   2.111   5.544 -0.1687  0.0625 -1.3353
34850SOL    HW2 8339   7.126   2.230   5.582  2.4572 -2.8656  2.9961
34851SOL     OW 8340   9.667   0.104   1.564  0.5896  0.2212 -0.0963
34851SOL    HW1 8341   9.689   0.139   1.651 -0.7354 -0.8206  0.6923
34851SOL    HW2 8342   9.598   0.163   1.532 -1.4722 -1.3788  1.1312
34852SOL     OW 8343   3.826   1.201   5.635 -0.5254  0.1605 -0.2534
34852SOL    HW1 8344   3.898   1.259   5.661  0.1263 -1.2016  1.2334
34852SOL    HW2 8345   3.747   1.249   5.657 -0.0595  1.2124 -0.7978
34853SOL     OW 8346   2.462   8.135   0.026  0.0175  0.6284  0.3476
34853SOL    HW1 8347   2.510   8.062  -0.014  0.5160  0.9097  0.4299
34853SOL    HW2 8348   2.404   8.093   0.090  1.0530  0.3726  1.1459
34854SOL     OW 8349   4.714   7.047   1.836  0.6356  0.0576 -0.4901
34854SOL    HW1 8350   4.698   7.011   1.924  0.9909 -0.9561 -0.8274
34854SOL    HW2 8351   4.763   6.979   1.791  1.4877  1.0512 -1.1112
34855SOL     OW 8352   4.502   8.231   7.584  0.5510  0.6058  0.2000
34855SOL    HW1 8353   4.580   8.281   7.608  1.5836 -0.5952 -0.5532
34855SOL    HW2 8354   4.532   8.170   7.517 -0.8534 -0.4643  0.5037
34856SOL     OW 8355   3.488   5.115   8.709 -0.6188  0.3632 -0.4284
34856SOL    HW1 8356   3.475   5.206   8.738 -0.2765  0.9145 -1.9018
34856SOL    HW2 8357   3.428   5.064   8.763  0.2258  1.2685  1.4554
34857SOL     OW 8358   7.323   4.972   8.950  0.0189 -0.0860 -0.0125
34857SOL    HW1 8359   7.371   5.039   8.900  1.1386 -0.0162  1.1176
34857SOL    HW2 8360   7.285   5.019   9.024 -1.4252 -0.2425 -0.6056
34858SOL     OW 8361   8.063   0.612   5.178  0.1759  0.1041 -0.2130
34858SOL    HW1 8362   8.027   0.643   5.261  2.1729  0.0110  0.7272
34858SOL    HW2 8363   8.065   0.689   5.122 -1.2581  0.1525 -0.2371
34859SOL     OW 8364   3.341   7.580   1.371 -0.6866 -0.1493 -0.3548
34859SOL    HW1 8365   3.386   7.648   1.322  0.0206 -1.4710 -1.6193
34859SOL    HW2 8366   3.385   7.577   1.455 -0.2461  0.4529 -0.5619
34860SOL     OW 8367   0.226   0.298   9.756  0.2567 -0.1892 -0.3590
34860SOL    HW1 8368   0.167   0.330   9.824  0.2357  0.1996 -0.5597
34860SOL    HW2 8369   0.282   0.235   9.801 -1.7662 -2.2913 -0.6123
34861SOL     OW 8370   2.524   5.218   9.731 -0.4895  0.3770  0.4579
34861SOL    HW1 8371   2.618   5.225   9.743 -0.5974  0.4278  1.3489
34861SOL    HW2 8372   2.513   5.163   9.653  0.2838  2.0766 -0.8976
34862SOL     OW 8373   6.051   4.403   3.695  0.8546  0.1409  0.7801
34862SOL    HW1 8374   6.034   4.332   3.756 -0.7172 -0.0864  0.1326
34862SOL    HW2 8375   5.976   4.402   3.635  1.4108  1.5471 -0.0004
34863SOL     OW 8376   2.950   8.457   8.274 -0.1893  0.0441  0.3975
34863SOL    HW1 8377   2.964   8.538   8.324  0.5195  0.3640 -0.3036
34863SOL    HW2 8378   3.014   8.461   8.203  0.4395 -1.5365  0.8310
34864SOL     OW 8379   0.773   2.997   4.277 -0.0371  0.2006  0.1307
34864SOL    HW1 8380   0.775   3.028   4.187  0.7514 -1.0129 -0.2821
34864SOL    HW2 8381   0.679   2.993   4.298 -0.3399 -1.3056 -1.2921
34865SOL     OW 8382   2.105   3.243   2.409  0.2247 -0.3585 -0.3819
34865SOL    HW1 8383   2.066   3.248   2.322  4.2914 -0.1485 -2.4415
34865SOL    HW2 8384   2.093   3.330   2.447  0.7839  0.4515 -1.9898
34866SOL     OW 8385   0.613   2.768  10.036  0.0944  0.5504  0.3232
34866SOL    HW1 8386   0.618   2.805  10.125 -2.0935 -0.7570  1.0910
34866SOL    HW2 8387   0.689   2.710  10.030  0.4922  0.9546  1.2096
34867SOL     OW 8388   9.292   0.698   0.986 -0.0785  0.1147 -0.0704
34867SOL    HW1 8389   9.292   0.789   0.957 -2.3530  0.3434  0.4217
34867SOL    HW2 8390   9.208   0.687   1.031  0.5292 -1.9825  0.7050
34868SOL     OW 8391   2.690   2.948   0.419 -0.2147 -0.2821 -0.7197
34868SOL    HW1 8392   2.682   2.869   0.473  1.2666 -0.3207 -0.5256
34868SOL    HW2 8393   2.603   2.989   0.425  0.1364  0.2847  2.6222
34869SOL     OW 8394   1.187   0.450   8.779  0.3175 -0.9523 -0.5740
34869SOL    HW1 8395   1.278   0.479   8.785  0.3515 -1.1947  0.2245
34869SOL    HW2 8396   1.137   0.517   8.825  0.0423 -0.6365 -1.3182
34870SOL     OW 8397   6.064   4.237   8.013  0.4282  0.2649 -0.2332
34870SOL    HW1 8398   6.005   4.195   7.950  0.4809 -0.4701  0.2023
34870SOL    HW2 8399   6.020   4.228   8.097  0.9237  0.1521  0.0207
34871SOL     OW 8400   3.973   8.342   3.962  0.0057 -0.1714  0.4457
34871SOL    HW1 8401   3.908   8.305   3.902  1.8824 -2.5838 -0.3133
34871SOL    HW2 8402   4.005   8.420   3.917  0.4762 -1.2311 -1.1730
34872SOL     OW 8403   2.295   8.323   7.879 -0.0862 -0.5340 -0.5281
34872SOL    HW1 8404   2.381   8.318   7.837 -0.4648  0.7505 -1.5238
34872SOL    HW2 8405   2.296   8.406   7.926 -0.7587 -0.5339 -0.5007
34873SOL     OW 8406   7.935   8.696   3.254 -0.5189 -0.0358  0.2605
34873SOL    HW1 8407   7.887   8.739   3.184 -0.1931 -1.5084 -0.9206
34873SOL    HW2 8408   7.927   8.755   3.329 -2.8353  0.4813 -0.3397
34874SOL     OW 8409   9.848   4.213   4.145 -1.1092  0.1012 -0.3373
34874SOL    HW1 8410   9.939   4.198   4.120 -0.9984  0.8108 -0.4062
34874SOL    HW2 8411   9.843   4.188   4.237 -1.4452 -2.2460 -0.9292
34875SOL     OW 8412   2.405   5.334   2.590  0.1121 -0.9107  0.6018
34875SOL    HW1 8413   2.479   5.273   2.581  0.2663 -0.6319 -0.0454
34875SOL    HW2 8414   2.420   5.378   2.673  1.6454  0.4202 -0.3194
34876SOL     OW 8415   5.996   6.346   8.301 -0.1522  0.0416 -0.4784
34876SOL    HW1 8416   5.976   6.406   8.230 -0.9888  1.4375  0.8656
34876SOL    HW2 8417   5.929   6.278   8.295  0.4400 -0.4510 -1.6552
34877SOL     OW 8418   8.446   4.705   0.776 -0.2837  0.3098 -0.1049
34877SOL    HW1 8419   8.460   4.681   0.868  0.9172 -0.5265 -0.4827
34877SOL    HW2 8420   8.527   4.748   0.750  0.5375 -1.9397 -1.5212
34878SOL     OW 8421   1.595   9.077   9.575 -0.2223  0.1020  0.4273
34878SOL    HW1 8422   1.630   9.042   9.493  0.3821 -0.3110  0.8502
34878SOL    HW2 8423   1.500   9.077   9.562 -0.1385  0.0084 -0.2579
34879SOL     OW 8424   2.452   1.636   3.156 -0.1474  0.1460  0.3998
34879SOL    HW1 8425   2.544   1.637   3.183 -0.2507  0.8305  0.7305
34879SOL    HW2 8426   2.438   1.721   3.114 -0.9286  0.5180  1.3731
34880SOL     OW 8427   7.515   3.351   5.164  0.4631  0.4031  0.2221
34880SOL    HW1 8428   7.472   3.267   5.143 -1.5503  1.1243  1.1896
34880SOL    HW2 8429   7.549   3.381   5.080  0.0477 -0.7518 -0.3929
34881SOL     OW 8430   4.481   5.228   8.146 -0.3327 -0.4532 -0.3919
34881SOL    HW1 8431   4.508   5.136   8.152  0.7843 -0.0663  1.0204
34881SOL    HW2 8432   4.561   5.275   8.124 -0.6952  0.2715 -0.1752
34882SOL     OW 8433   6.854   8.647   1.027  0.2734 -0.0988  0.3475
34882SOL    HW1 8434   6.809   8.660   0.944  1.8391  0.5491 -0.4428
34882SOL    HW2 8435   6.870   8.553   1.032 -0.3409 -0.2108  0.1993
34883SOL     OW 8436   6.936   4.678   1.049  0.0323 -0.0347 -0.2688
34883SOL    HW1 8437   6.918   4.685   0.955  2.3398 -0.6512 -0.8442
34883SOL    HW2 8438   6.952   4.585   1.064  0.1960  0.1236  0.6174
34884SOL     OW 8439   2.602   2.194   6.516 -0.4128 -0.6985  0.1191
34884SOL    HW1 8440   2.574   2.272   6.468 -1.4599 -0.9910  0.2310
34884SOL    HW2 8441   2.521   2.159   6.555  0.3555 -0.5656  1.9591
34885SOL     OW 8442   9.981   0.439  10.089 -0.3757  0.2775  0.4698
34885SOL    HW1 8443   9.953   0.474  10.174 -0.7944  1.7486 -0.2337
34885SOL    HW2 8444   9.935   0.356  10.080  0.8630 -0.6745  2.3433
34886SOL     OW 8445   3.409   0.464   1.749 -0.0259 -0.1962 -0.2460
34886SOL    HW1 8446   3.410   0.452   1.654 -1.0540  2.0772 -0.6097
34886SOL    HW2 8447   3.483   0.521   1.767  0.8933 -1.5711  0.5333
34887SOL     OW 8448   0.707   7.051  10.352  0.0225 -0.0449  0.1383
34887SOL    HW1 8449   0.633   7.052  10.412  0.3595 -0.9924  0.5989
34887SOL    HW2 8450   0.696   7.129  10.298 -2.7350 -1.4575 -1.5647
34888SOL     OW 8451   5.113   5.246   7.546 -0.0530 -0.3751 -0.2955
34888SOL    HW1 8452   5.147   5.260   7.457 -0.3841 -2.0825 -0.7365
34888SOL    HW2 8453   5.100   5.151   7.551  0.3010 -0.3488  1.7198
34889SOL     OW 8454   1.899   3.308   6.329 -0.0318 -0.6144 -0.4355
34889SOL    HW1 8455   1.858   3.232   6.290  0.4562 -1.3067  0.3657
34889SOL    HW2 8456   1.918   3.282   6.419  0.1481  0.4503 -0.1468
34890SOL     OW 8457   0.959  10.033   6.095 -0.6482  0.2645  0.0189
34890SOL    HW1 8458   0.887  10.091   6.119 -0.3946  0.4385  0.3834
34890SOL    HW2 8459   0.919   9.947   6.087 -0.4356 -0.2288  3.1774
34891SOL     OW 8460   3.573   4.702   1.552 -0.5986 -0.3359  0.0945
34891SOL    HW1 8461   3.580   4.746   1.467 -1.2844 -0.0336  0.1889
34891SOL    HW2 8462   3.664   4.688   1.579 -0.3607 -1.3559 -1.1535
34892SOL     OW 8463   9.699   3.129   1.086 -0.0976 -0.0886 -0.5114
34892SOL    HW1 8464   9.654   3.087   1.159  0.7724 -1.2243 -0.6072
34892SOL    HW2 8465   9.784   3.084   1.081  0.8900  1.6860 -0.5977
34893SOL     OW 8466   6.550   2.886   0.562 -0.3844 -0.1367  0.6179
34893SOL    HW1 8467   6.567   2.936   0.642  2.5865  0.9154 -0.5465
34893SOL    HW2 8468   6.560   2.948   0.491 -0.2466 -1.6101 -0.7157
34894SOL     OW 8469   3.320   2.532   2.743 -0.3632  0.3543  0.6259
34894SOL    HW1 8470   3.349   2.596   2.678  3.5091 -1.8837 -0.1245
34894SOL    HW2 8471   3.230   2.511   2.717  0.4002  0.8573 -3.0074
34895SOL     OW 8472   3.170   5.765   9.492 -0.0506  0.7402 -0.0323
34895SOL    HW1 8473   3.146   5.846   9.447 -0.0018  0.2659 -0.9326
34895SOL    HW2 8474   3.200   5.793   9.578 -0.7595  1.6118 -0.0614
34896SOL     OW 8475   1.913   3.699   2.255  0.1446 -0.3125  0.0583
34896SOL    HW1 8476   1.929   3.632   2.188 -0.1091 -0.2548 -0.0605
34896SOL    HW2 8477   1.853   3.761   2.213  0.1790 -0.1473  0.2556
34897SOL     OW 8478   8.035   5.036   2.225 -0.8949 -0.4594  0.3288
34897SOL    HW1 8479   7.989   5.089   2.290  0.6693  1.3103  0.0665
34897SOL    HW2 8480   8.032   4.947   2.259 -0.1075  0.4112  2.8494
34898SOL     OW 8481   3.938   2.050   0.081 -0.1550  0.0175 -0.0168
34898SOL    HW1 8482   3.995   2.049   0.159  0.6280  1.7502 -0.5184
34898SOL    HW2 8483   3.853   2.020   0.114  0.7202 -1.4806  1.0079
34899SOL     OW 8484   9.396   7.261   4.867  0.3336  0.0987  0.3358
34899SOL    HW1 8485   9.331   7.211   4.916 -0.5382  0.1990 -0.6781
34899SOL    HW2 8486   9.355   7.347   4.855  0.2544 -0.1095 -1.0678
34900SOL     OW 8487   3.805   5.980   1.877  0.8029 -0.0129  0.0877
34900SOL    HW1 8488   3.849   5.899   1.906 -0.4179 -0.8537 -0.3242
34900SOL    HW2 8489   3.791   5.967   1.784 -0.9803 -0.1051  0.3391
34901SOL     OW 8490   4.530   7.994   9.572 -0.3507  0.5881  0.0978
34901SOL    HW1 8491   4.594   7.957   9.634  1.5755  1.7656 -1.0857
34901SOL    HW2 8492   4.448   7.997   9.621  0.8070  0.3186  2.1654
34902SOL     OW 8493   7.769   8.901   1.269  0.0184 -0.1885 -0.5330
34902SOL    HW1 8494   7.848   8.850   1.248 -1.1414 -2.4681  0.2590
34902SOL    HW2 8495   7.700   8.862   1.215 -0.8719  0.7809 -0.1317
34903SOL     OW 8496   2.521   7.175   9.186  0.6319  0.4944 -0.2409
34903SOL    HW1 8497   2.612   7.152   9.170  0.7874  1.0493 -0.2007
34903SOL    HW2 8498   2.526   7.256   9.238  0.1415 -0.4879  1.4023
34904SOL     OW 8499   0.532   8.903   0.743 -0.6334 -0.4200 -0.3169
34904SOL    HW1 8500   0.558   8.884   0.653  0.7908  0.3995 -0.0952
34904SOL    HW2 8501   0.477   8.982   0.736 -1.0956 -0.7548 -0.5270
34905SOL     OW 8502   4.393   5.393   0.544 -0.1787  0.2259  0.0208
34905SOL    HW1 8503   4.328   5.460   0.523 -0.8415 -0.9919 -2.1337
34905SOL    HW2 8504   4.380   5.326   0.477  2.5579 -0.5910  0.2110
34906SOL     OW 8505   0.443   5.375   7.724  0.4032  0.2023  0.0184
34906SOL    HW1 8506   0.377   5.321   7.767  0.8364  0.6005  1.2173
34906SOL    HW2 8507   0.474   5.435   7.792  0.3756  1.5640 -1.1072
34907SOL     OW 8508   5.761  10.057   9.820 -0.4765 -0.3543 -0.1615
34907SOL    HW1 8509   5.689  10.060   9.756 -0.2436 -0.2782 -0.4194
34907SOL    HW2 8510   5.836  10.027   9.770 -0.3966 -0.7198  0.1744
34908SOL     OW 8511   5.523   9.775   9.796  0.0062 -0.2053  0.1055
34908SOL    HW1 8512   5.568   9.807   9.718 -1.0000  1.0650  0.0037
34908SOL    HW2 8513   5.588   9.723   9.842  0.6161 -0.9963 -1.5741
34909SOL     OW 8514   3.042   2.456   8.204 -0.6065  0.1812  0.2185
34909SOL    HW1 8515   3.099   2.392   8.161  0.2402 -0.4991  2.2555
34909SOL    HW2 8516   3.102   2.522   8.238 -1.2830  0.8792  0.0760
34910SOL     OW 8517   9.461   8.415   4.380 -0.1982  0.0398  0.4292
34910SOL    HW1 8518   9.425   8.453   4.461  0.9757 -0.7054  1.3373
34910SOL    HW2 8519   9.395   8.352   4.352 -0.0740 -0.6094  1.5276
34911SOL     OW 8520   6.109   0.526   9.457  0.9056  0.0342  0.1515
34911SOL    HW1 8521   6.161   0.604   9.441 -1.1263  1.8195  1.7561
34911SOL    HW2 8522   6.158   0.477   9.523  3.0136 -1.0300 -2.0181
34912SOL     OW 8523   8.024   7.302   5.038  0.0623  0.2182  0.3084
34912SOL    HW1 8524   7.980   7.231   4.992  0.1417  0.3651  0.0047
34912SOL    HW2 8525   7.971   7.380   5.019  0.7955  0.5119 -0.5660
34913SOL     OW 8526   0.556   9.707   2.928  0.1529 -0.0064 -0.0423
34913SOL    HW1 8527   0.487   9.651   2.892  1.4465 -1.0785 -0.9814
34913SOL    HW2 8528   0.537   9.794   2.894 -1.0059 -0.1946  0.1086
34914SOL     OW 8529   6.313   6.028   6.632 -0.1106  0.5476  0.4664
34914SOL    HW1 8530   6.377   6.063   6.570 -1.4803  2.8445  0.2481
34914SOL    HW2 8531   6.319   6.086   6.708  0.7479 -1.5611  2.1170
34915SOL     OW 8532   6.445   1.152   8.994 -0.3236  0.3959  0.1247
34915SOL    HW1 8533   6.437   1.241   9.027 -1.7951  0.6796 -0.8960
34915SOL    HW2 8534   6.467   1.100   9.071 -1.0902  1.3973  1.0599
34916SOL     OW 8535   0.193   9.156   7.131  0.1387 -0.3608 -0.0007
34916SOL    HW1 8536   0.142   9.210   7.071 -0.6601  0.2313  1.1884
34916SOL    HW2 8537   0.272   9.207   7.148  0.8519 -0.9684 -1.2849
34917SOL     OW 8538  10.048   1.814   4.078  0.0258  0.3390 -0.4122
34917SOL    HW1 8539  10.041   1.791   3.985 -0.4056  1.0526 -0.5711
34917SOL    HW2 8540  10.140   1.839   4.089  0.6043 -1.7750 -0.1318
34918SOL     OW 8541   0.547   1.447   5.686 -0.0496 -0.3623 -0.2853
34918SOL    HW1 8542   0.563   1.519   5.625  0.9968 -0.2418  0.1143
34918SOL    HW2 8543   0.616   1.383   5.667 -0.5109 -0.9233 -0.1193
34919SOL     OW 8544   8.182   9.019   5.985  0.1103  0.4905  0.2014
34919SOL    HW1 8545   8.154   9.059   6.066 -0.2121  0.2577  0.2065
34919SOL    HW2 8546   8.106   9.025   5.927  0.2218  0.3382  0.0369
34920SOL     OW 8547   9.927   8.767   5.476 -0.2903  0.0171  0.4340
34920SOL    HW1 8548   9.838   8.733   5.467 -0.7228  0.9627  0.9792
34920SOL    HW2 8549   9.936   8.786   5.570  0.8734 -1.0794  0.5657
34921SOL     OW 8550   0.150   1.329   0.357 -0.1413  0.9478 -0.5223
34921SOL    HW1 8551   0.093   1.324   0.280  0.5786  0.8934 -1.0640
34921SOL    HW2 8552   0.120   1.260   0.414  0.4625 -0.2196 -1.5623
34922SOL     OW 8553   2.979   3.780   1.693 -0.3514  0.0625 -0.3333
34922SOL    HW1 8554   2.944   3.702   1.737  1.2032 -0.1465  0.6490
34922SOL    HW2 8555   2.904   3.836   1.679 -1.3250 -1.1001  0.0719
34923SOL     OW 8556   1.979   5.141   3.981  0.8667  0.0850 -0.3601
34923SOL    HW1 8557   1.946   5.059   4.019  0.8503  0.4918  0.5319
34923SOL    HW2 8558   2.021   5.115   3.899  0.7105 -0.7931 -0.1680
34924SOL     OW 8559   3.938   6.767   0.374  0.0932 -0.1805  0.1591
34924SOL    HW1 8560   3.936   6.791   0.281 -2.6228  1.5496  0.5797
34924SOL    HW2 8561   3.873   6.698   0.382  0.1666 -0.1738  0.8310
34925SOL     OW 8562   1.231   2.865   1.642 -0.3854  0.3564 -0.4035
34925SOL    HW1 8563   1.139   2.894   1.642 -1.8303 -3.6123  0.4243
34925SOL    HW2 8564   1.256   2.866   1.734 -0.6900 -1.3226 -0.2643
34926SOL     OW 8565   6.276   4.300   2.878 -0.1173  0.2538 -0.0350
34926SOL    HW1 8566   6.350   4.359   2.866  0.1622 -0.1357 -0.2441
34926SOL    HW2 8567   6.314   4.220   2.914 -0.5682  0.3907  0.7879
34927SOL     OW 8568   2.754   8.803   0.665  0.1218  0.1848 -0.4729
34927SOL    HW1 8569   2.746   8.823   0.572  1.7911  2.5475 -0.2051
34927SOL    HW2 8570   2.815   8.869   0.698  1.1725 -1.8259  1.9045
34928SOL     OW 8571   1.414   8.035   8.805 -0.7193  0.1350  0.1474
34928SOL    HW1 8572   1.434   8.109   8.862 -1.9358  0.7668 -0.2252
34928SOL    HW2 8573   1.332   8.000   8.838 -1.0815  0.0744 -0.7809
34929SOL     OW 8574   6.564   6.625   8.623  0.0269  0.2476 -0.2925
34929SOL    HW1 8575   6.599   6.552   8.673 -2.8033 -0.4655  0.8746
34929SOL    HW2 8576   6.641   6.674   8.594  1.9143 -1.4707  1.4788
34930SOL     OW 8577   9.122   4.981   2.168  0.3208  0.3342  0.2311
34930SOL    HW1 8578   9.140   5.038   2.242 -1.4156  0.1117  0.8673
34930SOL    HW2 8579   9.129   5.037   2.091  0.8541  0.8730  0.6696
34931SOL     OW 8580   0.934   9.616   7.687  0.2214  0.4785  0.1498
34931SOL    HW1 8581   0.884   9.541   7.721 -1.0890  1.0030 -0.5306
34931SOL    HW2 8582   0.898   9.692   7.733 -0.0153  0.9329 -0.7626
34932SOL     OW 8583   4.670   0.553   5.338  0.1974  0.0449 -0.3526
34932SOL    HW1 8584   4.750   0.511   5.370  0.4907  0.4158 -0.5941
34932SOL    HW2 8585   4.678   0.644   5.365  0.0241  0.1626 -0.6892
34933SOL     OW 8586   4.645   5.371   1.655 -0.1924 -0.3564 -0.0279
34933SOL    HW1 8587   4.707   5.360   1.727 -0.0113 -1.2918 -0.3205
34933SOL    HW2 8588   4.695   5.412   1.585 -0.1811 -0.1171  0.1217
34934SOL     OW 8589   8.043   9.619   2.394 -0.1636 -0.3215  0.8035
34934SOL    HW1 8590   8.085   9.561   2.458 -0.0657 -1.9920 -0.6955
34934SOL    HW2 8591   7.956   9.634   2.430 -0.3069 -1.6749  1.0927
34935SOL     OW 8592   1.144  10.065   6.318 -0.2047 -0.5264  0.2835
34935SOL    HW1 8593   1.090  10.027   6.249  0.5238  0.5551 -0.9379
34935SOL    HW2 8594   1.100  10.148   6.339  1.8351  1.2531 -2.0039
34936SOL     OW 8595   1.709   7.273   3.981  0.0351 -0.7577  0.1836
34936SOL    HW1 8596   1.745   7.248   3.896 -1.7679  0.0237 -0.8666
34936SOL    HW2 8597   1.660   7.196   4.010  0.2992 -0.8786  0.3064
34937SOL     OW 8598   7.505   9.495   6.434  0.2235  0.8312  0.0413
34937SOL    HW1 8599   7.482   9.465   6.522  0.3380 -2.2166 -0.8540
34937SOL    HW2 8600   7.421   9.514   6.392 -0.0011 -0.0687  0.0722
34938SOL     OW 8601   3.070   7.415   3.766  0.1228 -0.2661 -0.1661
34938SOL    HW1 8602   3.032   7.487   3.715 -0.4169 -0.9643 -0.7629
34938SOL    HW2 8603   3.165   7.431   3.762 -0.0334  0.9058  0.4600
34939SOL     OW 8604   7.770  10.337   5.532 -0.4364 -0.0036  0.2160
34939SOL    HW1 8605   7.802  10.421   5.564 -1.5559  0.8278 -0.7385
34939SOL    HW2 8606   7.751  10.352   5.439  0.6068 -1.6950 -0.3119
34940SOL     OW 8607   5.343   6.881   2.281 -0.1545  0.4206  0.2706
34940SOL    HW1 8608   5.336   6.905   2.374 -0.6189  2.5218 -0.2355
34940SOL    HW2 8609   5.436   6.868   2.266 -0.1708 -1.0195  1.2463
34941SOL     OW 8610   5.083   6.468   1.789 -0.5422  0.1036  0.3086
34941SOL    HW1 8611   5.145   6.461   1.862  0.8885 -2.3801 -1.0260
34941SOL    HW2 8612   5.038   6.383   1.787  1.1625 -0.8860 -3.0623
34942SOL     OW 8613   3.267   3.322   5.582  0.4005  0.2827  0.3353
34942SOL    HW1 8614   3.302   3.255   5.641 -1.3345 -0.2619  0.7985
34942SOL    HW2 8615   3.223   3.273   5.512  1.8596  0.9273 -1.0981
34943SOL     OW 8616   2.458   1.117   8.016 -0.4787  0.2704 -0.2208
34943SOL    HW1 8617   2.434   1.120   7.923  0.7950 -1.0709 -0.6418
34943SOL    HW2 8618   2.515   1.040   8.023  1.1429  1.5460  1.2816
34944SOL     OW 8619   4.831   0.551   7.983 -0.0416 -0.4346 -0.2366
34944SOL    HW1 8620   4.854   0.610   8.054  0.9516 -0.5379 -0.4619
34944SOL    HW2 8621   4.831   0.464   8.023 -1.5007 -0.3155  0.0950
34945SOL     OW 8622   2.882   2.245   1.673 -0.0025  0.0880 -0.0767
34945SOL    HW1 8623   2.877   2.283   1.585 -1.1508  1.2211  0.4392
34945SOL    HW2 8624   2.794   2.209   1.688  0.6576 -1.5463  0.0059
34946SOL     OW 8625   4.492   8.831   0.222  0.1640 -0.5377  0.0763
34946SOL    HW1 8626   4.555   8.892   0.183 -0.0193 -0.5203 -0.1972
34946SOL    HW2 8627   4.478   8.865   0.310  0.6144 -0.6003  0.1761
34947SOL     OW 8628   8.197   3.617   2.735  0.0370 -0.1727 -0.1714
34947SOL    HW1 8629   8.107   3.645   2.714 -0.6079  2.0727  4.2918
34947SOL    HW2 8630   8.250   3.696   2.725  1.5982 -1.3720 -2.3138
34948SOL     OW 8631   6.697   5.655   1.979  0.0699  0.1637  0.2142
34948SOL    HW1 8632   6.788   5.653   1.952  0.3924 -1.1160  1.2730
34948SOL    HW2 8633   6.647   5.646   1.897  0.9019  0.1146 -0.2968
34949SOL     OW 8634   3.159   5.086   1.915 -0.0284  0.1485 -0.1385
34949SOL    HW1 8635   3.228   5.020   1.904  0.0330  0.1841  0.0252
34949SOL    HW2 8636   3.140   5.085   2.009  0.6853  1.0721  0.0245
34950SOL     OW 8637   7.382   9.306   0.431  0.4168 -0.0838 -0.7901
34950SOL    HW1 8638   7.426   9.303   0.516 -1.8487  0.6909  0.4927
34950SOL    HW2 8639   7.397   9.395   0.399  1.8969 -0.5894 -1.6282
34951SOL     OW 8640   9.819   6.924   1.548  0.7232 -0.1251 -0.3629
34951SOL    HW1 8641   9.790   6.842   1.589 -0.3068 -0.2751 -1.3498
34951SOL    HW2 8642   9.765   6.992   1.587  1.1857  0.0206  0.0367
34952SOL     OW 8643   0.153   6.605   3.487  0.2706  0.1373 -0.4122
34952SOL    HW1 8644   0.085   6.558   3.438 -0.0457  2.1077 -2.0245
34952SOL    HW2 8645   0.234   6.560   3.464 -0.1444 -0.3768 -0.9426
34953SOL     OW 8646   7.443   1.457   6.384 -0.3264 -0.0082  0.0369
34953SOL    HW1 8647   7.358   1.417   6.364  0.2436 -0.7004 -1.0723
34953SOL    HW2 8648   7.437   1.545   6.348 -0.2716 -0.3511 -0.8255
34954SOL     OW 8649   9.319  10.093   3.122  0.1117 -0.0594  0.2964
34954SOL    HW1 8650   9.340  10.007   3.084 -1.4753 -0.5576  0.4518
34954SOL    HW2 8651   9.278  10.072   3.206 -1.1481  0.7945 -0.0771
34955SOL     OW 8652   9.744   0.216   9.070 -0.1975 -1.0565  0.6584
34955SOL    HW1 8653   9.796   0.141   9.099  0.7672 -0.9776 -0.7580
34955SOL    HW2 8654   9.808   0.278   9.036 -0.9567  0.5999  2.1136
34956SOL     OW 8655   1.103   9.230   0.367  0.0324  0.1955  0.2184
34956SOL    HW1 8656   1.021   9.274   0.385  0.4403  0.6473  1.0035
34956SOL    HW2 8657   1.125   9.184   0.448  0.7070  0.3339  0.1223
34957SOL     OW 8658   3.030   1.745   8.382 -0.5773 -0.3718  0.7220
34957SOL    HW1 8659   3.045   1.668   8.327  0.3819  0.3425 -0.0542
34957SOL    HW2 8660   3.065   1.722   8.467  4.8305  0.9498 -0.7786
34958SOL     OW 8661   3.189   3.585   2.166 -0.2608 -0.1832  0.2362
34958SOL    HW1 8662   3.109   3.535   2.147  0.7297 -1.6058 -0.3319
34958SOL    HW2 8663   3.234   3.532   2.233  0.8012 -0.0570 -0.3613
34959SOL     OW 8664   8.195   8.989   6.422  0.0254 -0.2176  0.2517
34959SOL    HW1 8665   8.192   8.897   6.395 -0.3719  0.2975 -1.6499
34959SOL    HW2 8666   8.207   9.037   6.340  0.6083  1.4173  1.2472
34960SOL     OW 8667   4.140   9.396   3.808 -0.5284  0.1888  0.5750
34960SOL    HW1 8668   4.181   9.314   3.836  0.8402  0.3505 -0.7771
34960SOL    HW2 8669   4.213   9.450   3.777 -1.4830  1.6405  0.7301
34961SOL     OW 8670   0.696   0.652   1.573  0.4996 -0.1011 -0.2526
34961SOL    HW1 8671   0.667   0.718   1.509  0.9015  0.0147 -0.3137
34961SOL    HW2 8672   0.750   0.591   1.522  3.3466  1.6167  0.5043
34962SOL     OW 8673   5.226   1.026   0.583 -0.4110 -0.0306 -0.3041
34962SOL    HW1 8674   5.196   1.092   0.646  0.8819  1.1541 -0.8541
34962SOL    HW2 8675   5.204   0.942   0.623 -1.9622  0.7313  0.4980
34963SOL     OW 8676   8.780   1.966   3.134  0.1981  0.2641 -0.5598
34963SOL    HW1 8677   8.845   2.012   3.081  0.0023  2.1442  0.7324
34963SOL    HW2 8678   8.782   2.011   3.219  1.5225 -3.4349  1.6050
34964SOL     OW 8679   0.099   0.648   0.512  0.1246  0.0957 -0.3172
34964SOL    HW1 8680   0.032   0.692   0.461  0.1984  1.1014  0.4374
34964SOL    HW2 8681   0.053   0.574   0.553 -0.3051  0.2484 -0.5161
34965SOL     OW 8682  10.061   6.994   3.313 -0.3930  0.2636 -0.1368
34965SOL    HW1 8683  10.154   7.012   3.299 -0.4244  0.2913 -0.3141
34965SOL    HW2 8684  10.050   6.904   3.281 -0.2791 -0.0036  0.5536
34966SOL     OW 8685   0.322   8.739   7.698  0.0428  0.3824 -0.3254
34966SOL    HW1 8686   0.229   8.758   7.702 -0.6126 -2.2277 -0.8838
34966SOL    HW2 8687   0.339   8.687   7.777  0.6378 -0.4481 -0.9746
34967SOL     OW 8688   6.367   0.146   9.230  0.0316  0.3608 -0.8150
34967SOL    HW1 8689   6.345   0.094   9.153  0.7604  1.3377 -1.6985
34967SOL    HW2 8690   6.450   0.188   9.209  0.2604  0.6392  0.5146
34968SOL     OW 8691   8.633   8.507   8.287 -0.4654  0.4018 -0.1952
34968SOL    HW1 8692   8.652   8.450   8.362 -1.1186 -1.2996 -1.2703
34968SOL    HW2 8693   8.686   8.586   8.303  0.4912 -0.4985  1.3422
34969SOL     OW 8694   8.602   9.117   4.884  0.4557  0.8524  0.0037
34969SOL    HW1 8695   8.553   9.140   4.805  0.9117  1.7452 -0.0213
34969SOL    HW2 8696   8.669   9.185   4.892  1.2714  0.0278  0.4135
34970SOL     OW 8697   9.513   9.527   0.123  0.1965 -0.2233 -0.6973
34970SOL    HW1 8698   9.470   9.607   0.091  0.8002 -0.1260 -1.3115
34970SOL    HW2 8699   9.604   9.553   0.135  0.2622 -0.6527 -0.2655
34971SOL     OW 8700   2.981   1.725   7.162 -0.5723  0.0882  0.4188
34971SOL    HW1 8701   2.998   1.643   7.117  2.1409  0.6836  0.1838
34971SOL    HW2 8702   2.931   1.777   7.099 -0.7896 -0.7538 -0.1159
34972SOL     OW 8703   7.029   1.436   9.622 -0.4842  0.5481  0.2060
34972SOL    HW1 8704   7.027   1.526   9.590 -3.3785  0.8173  0.8945
34972SOL    HW2 8705   6.966   1.434   9.694  0.1705 -1.8445  0.8326
34973SOL     OW 8706   2.134   9.142   0.881  0.5612 -0.0157 -0.1364
34973SOL    HW1 8707   2.156   9.137   0.974  0.4821 -0.7308 -0.1536
34973SOL    HW2 8708   2.094   9.229   0.871  1.7112  0.5845  0.2424
34974SOL     OW 8709   6.942   1.486   0.564 -0.1096  0.3878 -0.3671
34974SOL    HW1 8710   6.854   1.507   0.533 -1.3933 -0.1460  2.5689
34974SOL    HW2 8711   6.950   1.391   0.551 -0.2913  0.3095  0.0797
34975SOL     OW 8712   3.406   9.102   2.128 -0.4297 -0.9516 -0.6517
34975SOL    HW1 8713   3.436   9.028   2.075  1.0968 -1.3677  0.7200
34975SOL    HW2 8714   3.463   9.101   2.205 -0.4433  1.6116 -0.5455
34976SOL     OW 8715   2.970   5.350   6.240  0.1314  0.4254 -0.1762
34976SOL    HW1 8716   3.008   5.417   6.182 -0.8948  1.6653  0.5234
34976SOL    HW2 8717   2.883   5.333   6.204 -0.1868  0.5808  0.4956
34977SOL     OW 8718   2.826   8.874   1.195 -0.0905  0.0003 -0.0776
34977SOL    HW1 8719   2.793   8.792   1.158  0.3212 -0.1907 -0.0305
34977SOL    HW2 8720   2.888   8.847   1.262  0.3379  0.3546 -0.3258
34978SOL     OW 8721   5.768   5.846   0.882 -0.2284 -0.0525  0.4644
34978SOL    HW1 8722   5.678   5.864   0.854 -0.8757 -1.2882  1.5988
34978SOL    HW2 8723   5.775   5.750   0.875  1.4127  0.1237 -0.7444
34979SOL     OW 8724   3.638   1.335  10.357  0.1424 -0.4209  0.1905
34979SOL    HW1 8725   3.606   1.423  10.374  0.0351 -0.2183 -0.9787
34979SOL    HW2 8726   3.683   1.310  10.437 -1.8350 -0.2287  1.4211
34980SOL     OW 8727   8.047   0.687   9.860  0.1185 -0.4580 -0.1445
34980SOL    HW1 8728   8.001   0.754   9.911 -0.0651 -0.9045  0.2910
34980SOL    HW2 8729   8.139   0.707   9.873  0.1014  1.4062 -2.3045
34981SOL     OW 8730   9.671   6.673   8.059  0.2351  0.0273 -0.0048
34981SOL    HW1 8731   9.758   6.709   8.071 -0.1014  0.8257  0.1168
34981SOL    HW2 8732   9.628   6.734   7.999 -0.5838  0.2375  0.7738
34982SOL     OW 8733   5.994   5.745   3.061  0.1719  0.0724 -0.5714
34982SOL    HW1 8734   6.045   5.825   3.048  1.0898 -0.7348 -2.3837
34982SOL    HW2 8735   6.042   5.678   3.011 -0.5321 -1.6267  0.9219
34983SOL     OW 8736   2.148   3.234   9.304  0.3436  0.3747 -0.5313
34983SOL    HW1 8737   2.140   3.282   9.386  0.5655  0.0908 -0.3438
34983SOL    HW2 8738   2.232   3.261   9.268  1.6222 -1.6496  0.7389
34984SOL     OW 8739   8.342   3.775   6.371 -0.0411  0.5613  0.0925
34984SOL    HW1 8740   8.255   3.741   6.392  0.0432 -0.3880 -0.9620
34984SOL    HW2 8741   8.366   3.731   6.290  1.1352  1.3445 -0.0166
34985SOL     OW 8742   6.012   6.933   8.065 -0.1656  0.3717 -0.1953
34985SOL    HW1 8743   6.044   7.019   8.039 -1.2363  1.0160  0.5463
34985SOL    HW2 8744   6.066   6.872   8.016 -0.4421  1.4796 -1.9810
34986SOL     OW 8745   0.398   0.427   6.976  0.0097  0.1555 -0.0689
34986SOL    HW1 8746   0.360   0.462   6.895 -0.0455  0.4344  0.0785
34986SOL    HW2 8747   0.482   0.390   6.949  0.1405  0.5458 -0.1947
34987SOL     OW 8748   8.743   4.385   0.135 -0.1772  0.0390  0.0193
34987SOL    HW1 8749   8.790   4.402   0.054  0.3793 -0.2495  0.2733
34987SOL    HW2 8750   8.657   4.424   0.122  0.0950  0.4824 -0.4977
34988SOL     OW 8751   6.952   4.883   6.441  0.5670 -0.4721 -0.1683
34988SOL    HW1 8752   6.953   4.789   6.461 -0.9511 -0.5900 -0.5173
34988SOL    HW2 8753   6.867   4.898   6.399  0.6350  1.1282  0.1969
34989SOL     OW 8754   3.681   8.789   4.583  0.0523  0.0277 -0.2528
34989SOL    HW1 8755   3.629   8.799   4.663 -2.6364 -2.6561 -1.4812
34989SOL    HW2 8756   3.758   8.740   4.611 -1.9505 -2.9506  0.5077
34990SOL     OW 8757   9.175   1.413   0.883 -0.2029  0.0006  0.4262
34990SOL    HW1 8758   9.082   1.431   0.876 -0.7223 -2.3619  0.3323
34990SOL    HW2 8759   9.188   1.387   0.975  0.6540  1.5391  0.7826
34991SOL     OW 8760   9.513   8.406   7.166  0.3370 -0.2030  0.1516
34991SOL    HW1 8761   9.589   8.392   7.110  0.0267 -0.3250 -0.2429
34991SOL    HW2 8762   9.550   8.436   7.249  0.7394  0.9983 -0.4395
34992SOL     OW 8763   1.155   0.563   1.067  0.0890 -0.3118  0.8716
34992SOL    HW1 8764   1.208   0.563   0.988  0.9792  0.4267  1.4506
34992SOL    HW2 8765   1.127   0.472   1.077  1.3168 -0.7398  0.5918
34993SOL     OW 8766   3.367   6.534   8.688  0.3802  0.2427  0.4363
34993SOL    HW1 8767   3.339   6.459   8.741  3.1450 -1.1832  0.0833
34993SOL    HW2 8768   3.321   6.523   8.605 -0.4192 -0.1554  0.9163
34994SOL     OW 8769   1.472   9.439   7.351 -0.7346 -0.5500  0.2563
34994SOL    HW1 8770   1.491   9.406   7.263 -2.2158 -1.7580  0.3542
34994SOL    HW2 8771   1.553   9.482   7.378  0.2599 -1.4856 -1.0956
34995SOL     OW 8772   0.645   8.040   3.939  0.2800 -0.2699 -0.8720
34995SOL    HW1 8773   0.622   8.133   3.937 -2.7173 -0.9140 -0.9753
34995SOL    HW2 8774   0.702   8.031   4.015  0.0837  1.5566 -0.4643
34996SOL     OW 8775   5.935   1.139   6.029 -0.1034  0.2455 -0.3634
34996SOL    HW1 8776   5.882   1.092   6.092 -0.9172  2.8153  1.0059
34996SOL    HW2 8777   5.919   1.094   5.946 -0.7773 -1.8329  0.8294
34997SOL     OW 8778   8.059   4.303   7.019  0.3381 -0.0537 -0.3897
34997SOL    HW1 8779   8.130   4.255   7.060  0.9836  0.0645 -1.3371
34997SOL    HW2 8780   8.046   4.380   7.075  1.0645  0.0084 -0.2960
34998SOL     OW 8781   4.519   1.031   7.057 -0.1409 -0.4591 -0.0908
34998SOL    HW1 8782   4.470   0.985   6.989 -0.0417 -0.3186 -0.2587
34998SOL    HW2 8783   4.494   0.988   7.139 -2.8344  1.4518  0.2316
34999SOL     OW 8784   7.496   1.735   5.674  0.6367  0.5563 -0.0850
34999SOL    HW1 8785   7.429   1.750   5.607 -0.0360  0.8714  0.6425
34999SOL    HW2 8786   7.475   1.649   5.709  1.1784  0.2564 -0.4841
35000SOL     OW 8787   5.825   3.909   3.562 -0.3590  0.2115  0.3128
35000SOL    HW1 8788   5.894   3.844   3.549 -1.1277 -0.5559  0.0239
35000SOL    HW2 8789   5.774   3.906   3.482 -0.6782  0.8411  0.4892
35001SOL     OW 8790   1.764   2.659   0.223 -0.7474  0.4492 -0.0801
35001SOL    HW1 8791   1.685   2.641   0.172 -0.1378  0.5532 -1.1046
35001SOL    HW2 8792   1.774   2.582   0.279 -1.0017 -0.0531 -0.7055
35002SOL     OW 8793   2.520   0.436   7.415 -0.3056 -0.1497  0.2553
35002SOL    HW1 8794   2.479   0.482   7.488  1.3100 -0.5379  1.4502
35002SOL    HW2 8795   2.499   0.344   7.430 -1.8799 -0.0671 -1.0701
35003SOL     OW 8796   8.356   7.841   5.686  0.0192  0.1105 -0.1676
35003SOL    HW1 8797   8.396   7.828   5.599 -0.0272  0.3253 -0.2202
35003SOL    HW2 8798   8.421   7.804   5.746 -0.2103 -0.5802 -0.3303
35004SOL     OW 8799   3.272   9.861   7.864 -0.0046  0.7552  0.0080
35004SOL    HW1 8800   3.300   9.803   7.793 -0.4460  1.3036 -0.6234
35004SOL    HW2 8801   3.193   9.819   7.898  0.2284  0.4710  0.2002
35005SOL     OW 8802   9.103   7.230   9.260 -0.1401 -0.1679 -0.2421
35005SOL    HW1 8803   9.146   7.178   9.191  0.1013 -0.6133  0.2397
35005SOL    HW2 8804   9.175   7.278   9.302 -0.1925 -0.4525  0.1739
35006SOL     OW 8805   5.079   0.848   5.205 -0.0536  0.3528  0.1069
35006SOL    HW1 8806   5.092   0.759   5.173  0.0682 -0.2544  1.7529
35006SOL    HW2 8807   5.162   0.872   5.245 -0.1770  1.0940 -0.0622
35007SOL     OW 8808   4.417   6.430  10.150  0.3003  0.3629 -0.0415
35007SOL    HW1 8809   4.372   6.481  10.217 -0.5514 -2.7902  2.0272
35007SOL    HW2 8810   4.496   6.399  10.193 -0.1233 -1.5229 -0.5384
35008SOL     OW 8811   3.904   4.545   0.534 -0.0107  0.5521 -0.4738
35008SOL    HW1 8812   3.946   4.630   0.544  1.0937 -0.2123  2.0277
35008SOL    HW2 8813   3.810   4.564   0.537  0.2227  1.6636  0.3222
35009SOL     OW 8814   2.643   7.717  10.137  0.6561  0.2932 -0.6860
35009SOL    HW1 8815   2.679   7.655  10.074  2.0254  0.7471 -0.3758
35009SOL    HW2 8816   2.661   7.677  10.222 -0.3259  0.1485 -0.5247
35010SOL     OW 8817   3.255   0.724   2.190 -0.2200  0.1883  0.3609
35010SOL    HW1 8818   3.233   0.790   2.124  1.5862  0.0370 -0.4327
35010SOL    HW2 8819   3.294   0.652   2.140  0.1644 -0.4135  1.4954
35011SOL     OW 8820   3.982   5.846   3.377 -0.1670  0.0218  0.0182
35011SOL    HW1 8821   3.937   5.872   3.458  0.2114 -0.3532  0.3524
35011SOL    HW2 8822   4.073   5.870   3.391  1.0925 -4.7037  1.9306
35012SOL     OW 8823   3.924   5.603   9.423 -0.0516  0.2679  0.7452
35012SOL    HW1 8824   3.908   5.664   9.351 -0.5211 -0.9551 -0.2088
35012SOL    HW2 8825   4.000   5.640   9.468  0.3467  0.9863 -0.4575
35013SOL     OW 8826   3.479   6.816   0.698 -0.3278 -0.6482 -0.0170
35013SOL    HW1 8827   3.501   6.906   0.719 -1.3095 -0.4028  0.0046
35013SOL    HW2 8828   3.446   6.779   0.780  1.0938 -1.3618  0.2525
35014SOL     OW 8829   0.007   9.130   2.689 -0.5676 -0.2102 -0.5225
35014SOL    HW1 8830   0.059   9.071   2.744  0.6566  0.7754 -0.5791
35014SOL    HW2 8831  -0.038   9.187   2.750  1.4066  1.4079 -0.4593
35015SOL     OW 8832   8.159   1.508   4.285  0.1200 -0.6847 -0.1930
35015SOL    HW1 8833   8.228   1.544   4.342 -0.4720  1.4615 -0.7433
35015SOL    HW2 8834   8.127   1.432   4.333  1.1466 -0.2457  1.2923
35016SOL     OW 8835   9.809   0.058   3.046 -0.2490 -0.3041 -0.4646
35016SOL    HW1 8836   9.743  -0.008   3.067 -1.0118  0.1334 -1.4236
35016SOL    HW2 8837   9.845   0.030   2.962  0.1507 -0.0501 -0.3792
35017SOL     OW 8838   1.704   4.537   4.448 -0.0521 -0.4535  0.0525
35017SOL    HW1 8839   1.772   4.598   4.419  0.5986 -1.3371 -0.3548
35017SOL    HW2 8840   1.650   4.587   4.509 -1.3952  1.4875 -2.5452
35018SOL     OW 8841   0.968   3.197   7.485  0.0135 -0.1817  0.3144
35018SOL    HW1 8842   1.037   3.247   7.529 -0.0368 -0.7879  1.1262
35018SOL    HW2 8843   0.938   3.253   7.414  1.2456  0.1470  0.0392
35019SOL     OW 8844   1.307   9.163   4.312 -0.9012 -0.0529 -0.2525
35019SOL    HW1 8845   1.368   9.234   4.329 -0.5728 -0.5826  0.8553
35019SOL    HW2 8846   1.239   9.202   4.257 -2.1336  1.8569  2.4296
35020SOL     OW 8847   3.388   0.248   4.348  0.5687 -0.5316 -0.3950
35020SOL    HW1 8848   3.469   0.248   4.298  0.2034  0.1914 -1.0165
35020SOL    HW2 8849   3.326   0.296   4.293 -0.1387 -0.6321  0.2914
35021SOL     OW 8850   4.696   3.311   3.301  0.0897 -0.2812  0.0313
35021SOL    HW1 8851   4.689   3.232   3.354  0.9734 -0.0908  0.4512
35021SOL    HW2 8852   4.644   3.376   3.347 -0.0706 -0.4194  0.0494
35022SOL     OW 8853   2.353   9.542   3.985 -0.1494  0.4235  0.0336
35022SOL    HW1 8854   2.267   9.583   3.978  0.2440  1.0216 -1.8111
35022SOL    HW2 8855   2.415   9.615   3.984  0.4121 -0.0389  0.4759
35023SOL     OW 8856   7.708   0.130   0.415  0.2409  0.5891 -0.2030
35023SOL    HW1 8857   7.671   0.202   0.365  2.0844  1.4092 -0.4823
35023SOL    HW2 8858   7.775   0.093   0.357 -1.0559 -1.8015 -0.3324
35024SOL     OW 8859   2.758   9.819   0.131 -0.0000 -0.2515 -0.0927
35024SOL    HW1 8860   2.676   9.789   0.172 -0.1286  0.5149  0.2358
35024SOL    HW2 8861   2.757   9.914   0.143  1.5706 -0.3344  1.1204
35025SOL     OW 8862   9.148   9.851   8.234 -1.0373  0.1512 -0.3123
35025SOL    HW1 8863   9.233   9.893   8.248 -1.6578  0.9139  1.4082
35025SOL    HW2 8864   9.143   9.840   8.139  0.9457  0.1386 -0.4692
35026SOL     OW 8865   4.018   0.674   8.414 -0.4223 -0.2756 -0.0690
35026SOL    HW1 8866   3.985   0.638   8.496  0.7399  3.4369  2.2790
35026SOL    HW2 8867   3.947   0.729   8.380 -0.0935  0.0494 -0.2503
35027SOL     OW 8868   0.015   3.276   6.498  0.5821 -0.1588 -0.2771
35027SOL    HW1 8869   0.110   3.290   6.494  0.3914  1.4320 -0.0354
35027SOL    HW2 8870  -0.002   3.255   6.590  0.6340  0.2014 -0.1833
35028SOL     OW 8871   0.437   1.901   2.399  0.0445 -0.0057 -0.4361
35028SOL    HW1 8872   0.500   1.946   2.343  1.7579 -0.3689  1.1192
35028SOL    HW2 8873   0.480   1.818   2.422 -1.6240 -0.9332 -0.4881
35029SOL     OW 8874   2.211   4.931   4.241 -0.6534 -0.4252 -0.9554
35029SOL    HW1 8875   2.157   4.903   4.167 -0.2340  1.0276 -1.8638
35029SOL    HW2 8876   2.195   5.025   4.248 -1.9561 -0.7741  1.9105
35030SOL     OW 8877   4.949   8.092   0.230 -0.5237 -0.5985  0.2235
35030SOL    HW1 8878   4.923   8.095   0.138  0.1463 -1.6991 -0.0215
35030SOL    HW2 8879   4.920   8.176   0.266 -1.3277 -0.3979 -0.8410
35031SOL     OW 8880   3.505   1.555   1.511 -0.4876  0.1367  0.1993
35031SOL    HW1 8881   3.516   1.650   1.522  1.4783 -0.2912  2.5897
35031SOL    HW2 8882   3.464   1.526   1.592  1.3729 -1.3850  0.6450
35032SOL     OW 8883   1.826   5.463   1.120  0.0353  0.3533 -0.3245
35032SOL    HW1 8884   1.794   5.410   1.046 -1.3691  0.6321  0.0506
35032SOL    HW2 8885   1.794   5.417   1.198 -1.2401  1.7036  0.0147
35033SOL     OW 8886   4.634   5.431   2.201  0.2658  0.1175 -0.1577
35033SOL    HW1 8887   4.588   5.382   2.133 -1.7829 -0.9655  1.8479
35033SOL    HW2 8888   4.621   5.523   2.177  1.2546 -0.2132 -2.1719
35034SOL     OW 8889   6.937   6.902   7.462  0.1069 -0.3365  0.7535
35034SOL    HW1 8890   6.851   6.866   7.484 -0.4546  1.0374  0.9206
35034SOL    HW2 8891   6.985   6.829   7.423 -1.0217 -1.2081  0.9673
35035SOL     OW 8892   2.114   2.489   9.608 -0.3419  0.3301 -0.4367
35035SOL    HW1 8893   2.108   2.558   9.542 -0.7781 -0.1237 -0.8830
35035SOL    HW2 8894   2.122   2.408   9.557  0.4067  0.0713  0.0812
35036SOL     OW 8895   8.431   0.543   2.411  0.5117  0.1030  0.0360
35036SOL    HW1 8896   8.380   0.611   2.455  1.1328  0.0763  0.8228
35036SOL    HW2 8897   8.379   0.464   2.419  0.6104  0.1007  0.7285
35037SOL     OW 8898   6.470   1.145   4.904 -0.3322 -0.2042  0.2774
35037SOL    HW1 8899   6.386   1.144   4.950 -0.1795 -1.9483  0.5853
35037SOL    HW2 8900   6.451   1.186   4.819 -1.1323  0.8162  0.9244
35038SOL     OW 8901   7.832   1.671   1.710  0.2564  0.1487  0.0921
35038SOL    HW1 8902   7.894   1.675   1.638 -0.3509  1.8450 -0.3913
35038SOL    HW2 8903   7.882   1.699   1.787  1.0411 -2.1660  0.4916
35039SOL     OW 8904   9.982   9.137   0.916 -0.8949 -0.6156 -0.1796
35039SOL    HW1 8905   9.892   9.105   0.915 -0.5618 -1.5553 -0.9493
35039SOL    HW2 8906  10.019   9.102   0.997 -1.8083  1.5181  1.2290
35040SOL     OW 8907   0.330   5.385   8.425  0.1683 -0.2346 -0.2827
35040SOL    HW1 8908   0.276   5.372   8.347  1.2209 -2.3872 -0.7165
35040SOL    HW2 8909   0.274   5.434   8.485 -0.2805  2.5653 -2.7542
35041SOL     OW 8910   0.392   8.086   4.614 -0.2942  0.3993  0.1837
35041SOL    HW1 8911   0.300   8.065   4.630  0.0755 -0.9889  0.6101
35041SOL    HW2 8912   0.399   8.092   4.518 -0.9011  0.9297  0.1650
35042SOL     OW 8913   1.072   4.714   7.717  0.4206  0.0355  0.8815
35042SOL    HW1 8914   1.145   4.652   7.713  1.0660  0.6661  2.0519
35042SOL    HW2 8915   1.078   4.764   7.636  1.8447  0.6281  1.3116
35043SOL     OW 8916   7.662   1.683   2.469 -0.5015 -0.4335  0.1314
35043SOL    HW1 8917   7.730   1.649   2.412 -0.3783 -1.0199  0.6143
35043SOL    HW2 8918   7.593   1.713   2.410 -0.2295 -0.7143 -0.3289
35044SOL     OW 8919  10.247   1.802   9.060 -0.8187 -0.0457  0.1011
35044SOL    HW1 8920  10.329   1.825   9.104 -0.5589 -0.4110 -0.1852
35044SOL    HW2 8921  10.184   1.865   9.093 -1.0206 -1.3008  2.2423
35045SOL     OW 8922   1.802   4.098   9.467  0.2594 -0.2078  0.4897
35045SOL    HW1 8923   1.729   4.149   9.432  1.2929  0.2164 -1.1854
35045SOL    HW2 8924   1.872   4.162   9.480  1.2617 -0.9912 -0.7404
35046SOL     OW 8925   1.444   3.276   5.146 -0.4092  0.2952 -0.1818
35046SOL    HW1 8926   1.492   3.292   5.065 -1.1689  1.3174 -0.4518
35046SOL    HW2 8927   1.499   3.215   5.195 -1.0710 -2.4111 -2.5328
35047SOL     OW 8928   1.470   0.231   4.435 -0.5313  0.3202 -0.0239
35047SOL    HW1 8929   1.478   0.167   4.363  0.4500 -0.4610  0.7416
35047SOL    HW2 8930   1.482   0.316   4.392  1.7047 -0.2118 -0.5961
35048SOL     OW 8931   6.739   7.624   6.767  0.0133  0.0521 -0.0450
35048SOL    HW1 8932   6.779   7.700   6.810 -0.0410  0.0596 -0.0075
35048SOL    HW2 8933   6.795   7.607   6.692 -0.5015  0.7185 -0.5959
35049SOL     OW 8934   5.242   1.480   0.307 -0.6847  0.5662  0.4416
35049SOL    HW1 8935   5.275   1.390   0.313 -0.0346  0.6248 -1.5359
35049SOL    HW2 8936   5.206   1.487   0.219 -1.2669  2.0883  0.7607
35050SOL     OW 8937   9.469   7.867   4.127  0.5319  0.6181  0.0539
35050SOL    HW1 8938   9.546   7.837   4.176  0.9410  1.0363 -0.3377
35050SOL    HW2 8939   9.481   7.831   4.039  0.5420  1.1215 -0.1519
35051SOL     OW 8940   7.024   3.593   7.030 -0.1707  0.4330 -0.1121
35051SOL    HW1 8941   6.934   3.581   7.060  0.5782 -0.7797  1.8179
35051SOL    HW2 8942   7.061   3.658   7.090  0.5628  0.0826 -0.1669
35052SOL     OW 8943   8.331   0.239   5.363  0.2627  0.1799 -0.0456
35052SOL    HW1 8944   8.343   0.295   5.287 -1.3132  0.6829  0.0401
35052SOL    HW2 8945   8.363   0.153   5.335  0.2328  0.4956 -1.0825
35053SOL     OW 8946   8.388   1.896   0.152  0.0379  0.2202 -0.2107
35053SOL    HW1 8947   8.416   1.988   0.153 -0.1286  0.3040  2.2944
35053SOL    HW2 8948   8.385   1.873   0.059  0.7939  2.5224 -0.8695
35054SOL     OW 8949   3.306   9.934   1.142 -0.0695 -0.1180  0.6338
35054SOL    HW1 8950   3.247   9.864   1.169  0.8703 -0.2311  2.6258
35054SOL    HW2 8951   3.390   9.910   1.182  0.4965  1.6729  0.5848
35055SOL     OW 8952   4.123   8.329  10.201 -0.1191 -0.1199 -0.0134
35055SOL    HW1 8953   4.167   8.369  10.126 -0.0556 -0.5121 -0.1852
35055SOL    HW2 8954   4.088   8.404  10.250 -0.1463  0.1390 -0.4228
35056SOL     OW 8955   8.882   5.197   0.617 -0.1864 -0.2918  0.4532
35056SOL    HW1 8956   8.827   5.127   0.582  0.4397  0.2293 -1.7249
35056SOL    HW2 8957   8.960   5.152   0.650  0.3982 -0.6623 -1.2993
35057SOL     OW 8958   6.190   3.383   7.553 -0.1987  0.2304 -0.3214
35057SOL    HW1 8959   6.115   3.407   7.607 -0.6641  0.7959 -1.2018
35057SOL    HW2 8960   6.154   3.326   7.485  0.7280 -2.3240  1.1814
35058SOL     OW 8961   5.953   9.139   8.486  0.0741 -0.5988  0.0908
35058SOL    HW1 8962   5.910   9.108   8.407  0.3276 -0.0514 -0.2732
35058SOL    HW2 8963   5.897   9.108   8.557  0.5169 -2.1870 -0.2140
35059SOL     OW 8964   5.684   6.726  10.069 -0.3123 -0.2799 -0.6983
35059SOL    HW1 8965   5.676   6.634  10.044  1.1024 -0.4128 -0.7092
35059SOL    HW2 8966   5.776   6.737  10.092 -0.4954  1.1079 -0.5604
35060SOL     OW 8967   8.797   2.346   0.339 -0.9769  0.0150  0.5902
35060SOL    HW1 8968   8.728   2.409   0.317 -0.3048  0.6386  0.2011
35060SOL    HW2 8969   8.841   2.330   0.256 -0.0588  0.3537  1.0063
35061SOL     OW 8970   7.426   4.326   6.720 -0.0958  0.3366  0.0135
35061SOL    HW1 8971   7.348   4.373   6.751 -0.7140 -0.8478  0.3022
35061SOL    HW2 8972   7.499   4.371   6.762 -0.5452  1.9003 -0.7971
35062SOL     OW 8973   5.952   8.008   9.328  0.0223 -0.5292  0.4877
35062SOL    HW1 8974   5.882   8.045   9.274  0.7871 -0.1854 -0.3019
35062SOL    HW2 8975   6.033   8.033   9.283  0.6454 -1.2287  1.1786
35063SOL     OW 8976   0.049   5.273   9.141  0.2783 -0.3318  0.2440
35063SOL    HW1 8977   0.008   5.187   9.135 -1.3628  0.4020  0.6377
35063SOL    HW2 8978   0.138   5.259   9.106 -0.4870 -1.8107 -1.2606
35064SOL     OW 8979   8.304   1.818   9.242 -0.1568  0.6044  0.3087
35064SOL    HW1 8980   8.245   1.869   9.186  1.2006  1.2728 -0.5943
35064SOL    HW2 8981   8.377   1.878   9.260 -0.1257  0.0891  2.0826
35065SOL     OW 8982   0.561   5.611  10.185  0.4695  0.0398  0.1277
35065SOL    HW1 8983   0.483   5.587  10.236 -0.7883 -0.4794 -1.9007
35065SOL    HW2 8984   0.623   5.541  10.203  0.0008 -0.2272  0.7797
35066SOL     OW 8985   8.566   1.383   8.218 -0.1731  0.3157 -0.5740
35066SOL    HW1 8986   8.549   1.326   8.144 -1.1408  0.6918 -0.6546
35066SOL    HW2 8987   8.661   1.390   8.222 -0.0357 -1.3147 -0.5426
35067SOL     OW 8988   6.674   4.740   0.587 -0.2232 -0.1746 -0.1211
35067SOL    HW1 8989   6.585   4.761   0.614  0.3779  1.1240  1.0110
35067SOL    HW2 8990   6.670   4.650   0.555 -1.6769 -0.5709  1.1018
35068SOL     OW 8991   1.597   3.053   4.332 -0.2625 -0.4210  0.2619
35068SOL    HW1 8992   1.607   2.972   4.382  0.1086 -0.8496 -0.4849
35068SOL    HW2 8993   1.606   3.026   4.240  0.1517  0.5002  0.0178
35069SOL     OW 8994   5.790   9.405   4.523  0.3233 -0.0448 -0.0149
35069SOL    HW1 8995   5.752   9.362   4.447 -0.1319 -0.3865  0.4017
35069SOL    HW2 8996   5.799   9.497   4.496 -1.3533  0.1849  0.0647
35070SOL     OW 8997   8.808   0.308   6.653 -0.5601  0.2976  0.7149
35070SOL    HW1 8998   8.742   0.350   6.709 -2.6064 -1.0469 -0.5553
35070SOL    HW2 8999   8.777   0.325   6.563 -0.9434 -2.9699  0.1302
35071SOL     OW 9000   2.487   2.485   8.523  0.1304 -0.1064  0.0803
35071SOL    HW1 9001   2.513   2.396   8.498 -0.8130 -0.7020  1.0623
35071SOL    HW2 9002   2.393   2.488   8.505  0.0731  0.5427  0.4414
35072SOL     OW 9003   4.691   0.008   7.923 -0.0210  0.0729 -1.1416
35072SOL    HW1 9004   4.665   0.064   7.851 -1.1979  0.8289 -0.1684
35072SOL    HW2 9005   4.635  -0.069   7.915 -0.5612  0.4117 -0.7308
35073SOL     OW 9006   1.907   0.048   3.541 -0.6859 -0.1612 -0.2374
35073SOL    HW1 9007   1.975   0.070   3.605 -1.0343  2.0737 -0.5620
35073SOL    HW2 9008   1.936   0.091   3.461 -1.8711 -0.2393 -0.7182
35074SOL     OW 9009   1.666   8.357   9.107  0.1977 -0.4371 -0.1203
35074SOL    HW1 9010   1.731   8.401   9.052 -1.3439  2.8219  0.4232
35074SOL    HW2 9011   1.593   8.338   9.047 -0.1800  0.1787  0.1305
35075SOL     OW 9012   6.885   2.266   6.647 -0.5827 -0.1625  0.5697
35075SOL    HW1 9013   6.833   2.274   6.727 -3.1660  1.3769 -1.1401
35075SOL    HW2 9014   6.889   2.355   6.612  2.4213 -0.3957  0.0503
35076SOL     OW 9015   3.784   6.483   1.508 -0.6249  0.0879  0.3766
35076SOL    HW1 9016   3.755   6.420   1.574 -0.2063 -1.1976 -0.6244
35076SOL    HW2 9017   3.849   6.536   1.553 -1.1066 -0.0729  1.2941
35077SOL     OW 9018   6.656   7.172   4.051  0.4382 -0.3429 -0.5047
35077SOL    HW1 9019   6.649   7.148   3.959 -0.8724 -0.3902 -0.4116
35077SOL    HW2 9020   6.570   7.151   4.088  0.7318  0.2849  0.5850
35078SOL     OW 9021   9.764   2.372   3.220  0.2997  0.6360 -0.6348
35078SOL    HW1 9022   9.718   2.345   3.141  0.7825 -0.7486 -0.4707
35078SOL    HW2 9023   9.847   2.324   3.217  0.3725  0.6363  0.6536
35079SOL     OW 9024  10.042   3.040   6.497 -0.0119 -0.2904  0.2725
35079SOL    HW1 9025   9.981   3.077   6.432  1.0127 -1.5333 -1.4975
35079SOL    HW2 9026  10.018   3.082   6.579 -2.4224  0.1937 -0.5941
35080SOL     OW 9027   0.285   3.470   6.141  0.0493  0.6624 -0.5622
35080SOL    HW1 9028   0.221   3.541   6.131 -1.1712 -0.5119 -1.5058
35080SOL    HW2 9029   0.321   3.458   6.053  1.1201  0.8841 -0.1638
35081SOL     OW 9030   3.934   3.093   7.034 -0.4072 -0.5512  0.4881
35081SOL    HW1 9031   3.893   3.179   7.046 -1.1697 -1.2300  3.4491
35081SOL    HW2 9032   3.982   3.078   7.116  2.6454 -1.5069 -1.2883
35082SOL     OW 9033   0.315   1.664   5.523 -0.3521  0.1481  0.1020
35082SOL    HW1 9034   0.265   1.736   5.484  0.2653  0.2056 -0.5993
35082SOL    HW2 9035   0.371   1.633   5.453 -0.5800 -1.0018  0.4081
35083SOL     OW 9036   8.503   1.658   2.042 -0.2707 -0.2468  0.6108
35083SOL    HW1 9037   8.511   1.635   2.134 -1.3024 -0.0721  0.7646
35083SOL    HW2 9038   8.563   1.599   1.996 -0.8231 -1.3389  1.2591
35084SOL     OW 9039   5.672   2.256   4.151  0.5064  0.3860  0.4176
35084SOL    HW1 9040   5.737   2.309   4.104 -0.2278 -0.5852 -1.8382
35084SOL    HW2 9041   5.676   2.170   4.108 -3.0152  0.5999 -0.6158
35085SOL     OW 9042   5.064   4.108   6.380  0.0440 -0.9137  0.3721
35085SOL    HW1 9043   5.095   4.021   6.357  2.5310  0.2017 -0.8359
35085SOL    HW2 9044   5.023   4.141   6.300  0.3305 -0.4868  0.3982
35086SOL     OW 9045   0.974  10.138   0.135  0.1719  0.1925 -0.6404
35086SOL    HW1 9046   0.975  10.056   0.085  1.1050  0.2606 -0.7513
35086SOL    HW2 9047   1.038  10.124   0.205  0.9201  1.0908 -1.1153
35087SOL     OW 9048   2.695   9.137   2.557 -1.0776  0.2531 -0.6287
35087SOL    HW1 9049   2.771   9.131   2.499 -1.0106 -1.1740 -0.4148
35087SOL    HW2 9050   2.708   9.069   2.622 -1.8367  0.9354  0.2748
35088SOL     OW 9051   9.637   0.264   5.750  0.1523 -0.6799 -0.0904
35088SOL    HW1 9052   9.637   0.338   5.689 -0.4425 -0.2489  0.4104
35088SOL    HW2 9053   9.546   0.234   5.750  0.1250 -0.6069  0.6562
35089SOL     OW 9054   5.218   2.506   2.737  0.4774  0.0116 -0.5034
35089SOL    HW1 9055   5.203   2.584   2.685 -0.6914  0.1530  0.0217
35089SOL    HW2 9056   5.152   2.510   2.807  0.4041 -1.4259 -0.4570
35090SOL     OW 9057   9.532   4.446  10.065  0.0770 -0.7307  0.3123
35090SOL    HW1 9058   9.594   4.504  10.021 -0.6186 -1.6842 -2.0817
35090SOL    HW2 9059   9.579   4.363  10.073  0.0034 -0.7199  0.9032
35091SOL     OW 9060   4.631   0.958   2.431  0.1833 -0.3269 -0.1261
35091SOL    HW1 9061   4.645   0.876   2.479 -0.1648 -0.9780 -1.1040
35091SOL    HW2 9062   4.537   0.962   2.417  0.1771  0.3475  0.0830
35092SOL     OW 9063   3.019   8.048   9.586 -0.4539  0.5095  0.3998
35092SOL    HW1 9064   3.010   7.968   9.638 -0.0114  1.0188  1.2777
35092SOL    HW2 9065   2.930   8.081   9.577 -0.4497  0.8836  1.5985
35093SOL     OW 9066   1.003   5.354   0.719 -0.2457 -0.4943 -0.2971
35093SOL    HW1 9067   1.038   5.434   0.681  0.2079 -0.8096 -0.5569
35093SOL    HW2 9068   0.908   5.364   0.715 -0.1975  0.4879  0.6578
35094SOL     OW 9069   4.977   3.539   5.610 -0.3272  0.0851 -0.4373
35094SOL    HW1 9070   4.888   3.507   5.596 -1.1611  1.5546  1.0766
35094SOL    HW2 9071   4.974   3.630   5.582  0.8542  0.0092 -0.8528
35095SOL     OW 9072   2.075   8.872   6.978 -0.2519  0.3050  0.2391
35095SOL    HW1 9073   2.150   8.817   6.956 -0.8403 -1.1785  1.6366
35095SOL    HW2 9074   1.999   8.819   6.953 -0.8469  1.4852 -0.5125
35096SOL     OW 9075   6.825   0.665   9.537 -0.3088 -0.2816  0.0831
35096SOL    HW1 9076   6.876   0.639   9.614 -0.1928  1.3241  0.5806
35096SOL    HW2 9077   6.889   0.703   9.478 -0.9639  2.7660  1.1617
35097SOL     OW 9078   3.276   2.073   8.157  0.3387 -0.3535  0.2113
35097SOL    HW1 9079   3.241   2.141   8.099  1.4802  1.5658  1.6325
35097SOL    HW2 9080   3.198   2.032   8.195 -0.4720  1.9417  1.2237
35098SOL     OW 9081   2.593   2.164  10.132  0.1154  0.0887  0.4129
35098SOL    HW1 9082   2.540   2.176  10.053 -0.2062  0.1669  0.6362
35098SOL    HW2 9083   2.530   2.132  10.198  0.3297  0.2614  0.7036
35099SOL     OW 9084  10.271   5.256   0.625  0.2706 -0.4530  0.0254
35099SOL    HW1 9085  10.248   5.316   0.555  0.3562  0.8475  1.0630
35099SOL    HW2 9086  10.366   5.247   0.618  0.5666  1.2857  1.1501
35100SOL     OW 9087   2.496   2.913   4.939  0.1115 -0.5394 -0.0197
35100SOL    HW1 9088   2.525   2.982   4.999 -1.7146 -0.8748  1.3418
35100SOL    HW2 9089   2.576   2.886   4.893  1.3519  0.6086  1.3565
35101SOL     OW 9090   0.398   6.629   8.098 -0.1753  0.2972 -0.1500
35101SOL    HW1 9091   0.479   6.585   8.074 -0.5613 -0.1976 -0.5697
35101SOL    HW2 9092   0.341   6.617   8.022 -0.8292  0.1682  0.3511
35102SOL     OW 9093   3.125   9.946   1.519  0.0806  0.0243  0.1441
35102SOL    HW1 9094   3.088   9.888   1.585  0.9149 -1.7363 -0.8600
35102SOL    HW2 9095   3.101  10.034   1.548 -2.2647 -0.8536  1.1180
35103SOL     OW 9096   7.803   5.100   0.881  0.6121  0.3679  0.4002
35103SOL    HW1 9097   7.800   5.046   0.803  1.3383 -0.3367  0.8417
35103SOL    HW2 9098   7.752   5.051   0.946  1.4098  0.1152  0.8482
35104SOL     OW 9099   7.854   1.621   6.759  0.0105  0.1096 -0.8421
35104SOL    HW1 9100   7.814   1.593   6.677  1.8421 -0.0227 -1.7312
35104SOL    HW2 9101   7.948   1.615   6.744  0.4240  1.7122  0.6926
35105SOL     OW 9102   9.039   3.534   8.140 -0.1832 -0.6850  0.2541
35105SOL    HW1 9103   9.083   3.601   8.193 -0.9191 -0.9042  1.1678
35105SOL    HW2 9104   9.106   3.505   8.078  0.4245  0.2337  0.4587
35106SOL     OW 9105   6.988   4.156   6.396 -0.1197 -0.0557  0.7030
35106SOL    HW1 9106   6.953   4.074   6.361  1.2438  0.0959 -1.1742
35106SOL    HW2 9107   7.032   4.131   6.477  0.6007 -1.2756 -0.0372
35107SOL     OW 9108   5.911   0.557   4.374  0.1100  0.3286  0.1812
35107SOL    HW1 9109   5.822   0.588   4.393 -0.3084 -1.4117  1.2676
35107SOL    HW2 9110   5.966   0.603   4.437 -0.3524 -0.2867  1.0608
35108SOL     OW 9111   6.570   2.882   4.750  0.3056  0.2304  0.7539
35108SOL    HW1 9112   6.529   2.968   4.760 -2.2630 -0.9226  1.1164
35108SOL    HW2 9113   6.499   2.826   4.718  2.2459 -1.4792 -0.8124
35109SOL     OW 9114   7.020   1.440   1.977 -0.0753 -0.8659 -0.2442
35109SOL    HW1 9115   6.962   1.403   2.043 -0.8284  0.0117 -0.4008
35109SOL    HW2 9116   6.975   1.424   1.894  0.0034 -0.3700 -0.3858
35110SOL     OW 9117   3.264   5.318   6.124  0.5203 -0.4015  0.2782
35110SOL    HW1 9118   3.196   5.267   6.080  2.1002 -0.9616 -1.6651
35110SOL    HW2 9119   3.229   5.407   6.129  0.1653 -0.3617 -2.0073
35111SOL     OW 9120   5.818   1.170   8.550 -0.2177 -0.2470 -0.0854
35111SOL    HW1 9121   5.729   1.181   8.582  0.1867  1.3707  0.5621
35111SOL    HW2 9122   5.865   1.246   8.582  1.0881 -0.3902 -1.5348
35112SOL     OW 9123   6.725   4.135   6.482  0.3849 -0.0825  0.0552
35112SOL    HW1 9124   6.770   4.064   6.528 -0.0113  0.0247  0.6323
35112SOL    HW2 9125   6.792   4.174   6.426  0.5804 -0.9683 -0.3486
35113SOL     OW 9126   0.542   2.352  10.173 -0.3977 -0.0492  0.0160
35113SOL    HW1 9127   0.511   2.364  10.084  2.3116  1.0647 -0.8700
35113SOL    HW2 9128   0.553   2.257  10.182 -0.7355 -0.1710 -0.7781
35114SOL     OW 9129   1.885   6.248   4.782  0.3263 -0.0077  0.1357
35114SOL    HW1 9130   1.922   6.335   4.769  0.4237 -0.3634 -2.6424
35114SOL    HW2 9131   1.791   6.263   4.794  0.5175  0.5323  1.0098
35115SOL     OW 9132  10.218   4.945   4.686  0.2966 -0.4148 -0.1769
35115SOL    HW1 9133  10.168   5.026   4.676 -0.5959 -1.0296 -0.8099
35115SOL    HW2 9134  10.286   4.951   4.619  1.0698  0.4044  0.6593
35116SOL     OW 9135   2.237   8.214   0.774 -0.2324 -0.5603 -0.9793
35116SOL    HW1 9136   2.255   8.243   0.864 -1.2982 -2.3210 -0.1372
35116SOL    HW2 9137   2.164   8.268   0.745 -0.1267 -0.2368 -0.6517
35117SOL     OW 9138   3.423   7.515   4.306 -0.0925 -0.1980 -0.4340
35117SOL    HW1 9139   3.483   7.501   4.233  0.4952 -0.7569  0.1440
35117SOL    HW2 9140   3.465   7.472   4.381 -0.3033  1.0321  0.4217
35118SOL     OW 9141   3.710   9.262   1.566  0.3176 -0.3223 -0.7448
35118SOL    HW1 9142   3.677   9.238   1.653  0.9270  0.8346 -0.1837
35118SOL    HW2 9143   3.782   9.201   1.549 -1.5792 -2.4716 -1.7169
35119SOL     OW 9144   4.596   0.370   8.557 -0.6517 -0.3712 -0.0380
35119SOL    HW1 9145   4.601   0.275   8.548 -0.0798 -0.3540  0.0774
35119SOL    HW2 9146   4.686   0.397   8.577 -1.2001 -0.0779  2.4346
35120SOL     OW 9147   0.644   3.533   5.883 -0.5703 -0.0165 -0.1805
35120SOL    HW1 9148   0.618   3.547   5.974  1.0607 -1.5000  0.5741
35120SOL    HW2 9149   0.612   3.611   5.837 -1.2305  0.8831  1.6836
35121SOL     OW 9150   9.281   8.200   5.312  0.6499 -0.7450  0.1040
35121SOL    HW1 9151   9.230   8.280   5.302  0.4799 -0.8443  0.1718
35121SOL    HW2 9152   9.371   8.226   5.292  0.5124 -0.6595 -0.4209
35122SOL     OW 9153   8.847   9.902   8.156 -0.2460 -0.1063  0.7914
35122SOL    HW1 9154   8.820   9.844   8.085  0.6979  1.7064 -1.1900
35122SOL    HW2 9155   8.942   9.893   8.159  0.0457  1.9426 -0.2572
35123SOL     OW 9156   6.977   6.476   0.588  0.4281 -0.4360 -0.0803
35123SOL    HW1 9157   7.063   6.444   0.562  1.7585  0.5845  2.7526
35123SOL    HW2 9158   6.987   6.571   0.592 -0.3066 -0.4012  1.8231
35124SOL     OW 9159   5.061   3.791   4.734  0.1518  0.4405  0.4744
35124SOL    HW1 9160   5.029   3.861   4.790 -1.9112 -0.5601  0.6486
35124SOL    HW2 9161   5.006   3.794   4.657  1.6127  0.4933 -0.6093
35125SOL     OW 9162   2.027   6.729   1.240  0.2492 -0.1993  0.4619
35125SOL    HW1 9163   2.100   6.707   1.297  0.6636  1.8848  0.7908
35125SOL    HW2 9164   1.965   6.775   1.296 -1.8037 -2.6623  0.4072
35126SOL     OW 9165   7.596   0.669   2.292 -0.3307 -0.0532  0.1206
35126SOL    HW1 9166   7.542   0.710   2.225  0.3918  0.3844 -0.1958
35126SOL    HW2 9167   7.577   0.719   2.372 -0.0332  0.4202 -0.0978
35127SOL     OW 9168   7.635   6.699   4.481 -0.3286 -0.1051 -0.1944
35127SOL    HW1 9169   7.620   6.742   4.565 -0.6274  0.4971 -0.5515
35127SOL    HW2 9170   7.547   6.689   4.443 -0.0655  1.4413 -1.3176
35128SOL     OW 9171   1.970   9.859   3.122  0.0123  0.0865 -0.3708
35128SOL    HW1 9172   2.057   9.850   3.082  0.1015 -0.5376 -0.0533
35128SOL    HW2 9173   1.956   9.775   3.167 -1.8521 -0.8269 -2.5002
35129SOL     OW 9174   9.882   4.517   0.891  0.2649  0.6077  0.1017
35129SOL    HW1 9175   9.884   4.482   0.980 -0.0098  1.5360  0.4869
35129SOL    HW2 9176   9.791   4.544   0.879  0.7628  2.4877  0.3521
35130SOL     OW 9177   5.132   1.429   2.990 -0.1114  0.1589  0.2501
35130SOL    HW1 9178   5.167   1.382   2.914 -1.5688  0.7120 -0.8089
35130SOL    HW2 9179   5.208   1.442   3.047  0.5084 -2.8399  0.3127
35131SOL     OW 9180   7.393   8.083   4.402 -0.3922 -0.3620  0.3162
35131SOL    HW1 9181   7.333   8.020   4.441 -0.2257 -1.3087 -0.8835
35131SOL    HW2 9182   7.336   8.152   4.368 -0.7935 -1.0493 -0.4456
35132SOL     OW 9183   0.660   9.484   6.279 -0.0094  0.0385 -0.0724
35132SOL    HW1 9184   0.619   9.418   6.335  0.7471 -0.9256 -0.6328
35132SOL    HW2 9185   0.753   9.481   6.301 -0.1113  1.8419  0.8102
35133SOL     OW 9186   2.538   9.499   7.483 -0.3177 -0.2230 -0.1414
35133SOL    HW1 9187   2.581   9.555   7.547  0.4100  0.0106 -0.8179
35133SOL    HW2 9188   2.606   9.438   7.455 -0.1053  0.8144 -2.0010
35134SOL     OW 9189   0.130   5.629   6.854  0.4199  0.5991 -0.4980
35134SOL    HW1 9190   0.198   5.585   6.803 -0.1008 -0.3685 -0.3777
35134SOL    HW2 9191   0.048   5.593   6.821  0.0614  0.2634  0.7191
35135SOL     OW 9192   7.041   9.043   8.569 -0.1347  0.1548  0.0753
35135SOL    HW1 9193   6.991   8.995   8.635  0.5452  0.3188  0.7179
35135SOL    HW2 9194   7.018   9.135   8.583  0.3557  0.2330  0.3869
35136SOL     OW 9195   1.008   8.784   5.866 -0.3719 -0.3593  0.1146
35136SOL    HW1 9196   1.074   8.833   5.818  0.0477 -1.1298 -0.1240
35136SOL    HW2 9197   0.950   8.850   5.904 -0.3302  0.2846 -0.9146
35137SOL     OW 9198   2.337   5.084   3.934 -0.1304 -0.6302 -0.1630
35137SOL    HW1 9199   2.351   5.168   3.890 -0.9563  0.6216  1.8337
35137SOL    HW2 9200   2.426   5.051   3.951  0.2024 -0.1675 -0.9438
35138SOL     OW 9201   4.946   5.346   1.237 -0.1825  0.2831  0.4249
35138SOL    HW1 9202   4.884   5.362   1.308 -0.7372  1.4144 -0.2741
35138SOL    HW2 9203   5.008   5.419   1.242  0.1522  0.0214  0.1487
35139SOL     OW 9204   7.624   5.257   2.618  0.7154 -0.0418 -0.5874
35139SOL    HW1 9205   7.546   5.238   2.567  0.1799 -0.2069  0.2667
35139SOL    HW2 9206   7.648   5.346   2.595 -0.8016  0.6812  0.4792
35140SOL     OW 9207   7.343   4.800   6.399  0.4171  0.3360  0.3967
35140SOL    HW1 9208   7.252   4.806   6.428 -0.0320 -0.9826 -0.6505
35140SOL    HW2 9209   7.374   4.716   6.432  0.9240  0.3059 -0.1373
35141SOL     OW 9210  10.262   6.339   2.253  0.3823 -0.2658  0.1663
35141SOL    HW1 9211  10.179   6.358   2.209  0.2146 -1.2368  0.0517
35141SOL    HW2 9212  10.326   6.336   2.182  0.5673  0.6479  0.2705
35142SOL     OW 9213   3.970   1.646   2.791  0.7539 -0.2965 -0.6688
35142SOL    HW1 9214   3.889   1.694   2.776  1.0625 -0.4617 -3.4889
35142SOL    HW2 9215   4.036   1.695   2.741  2.3442 -0.3783  1.2346
35143SOL     OW 9216   5.527   4.096   8.739  0.2240 -0.2131  0.6405
35143SOL    HW1 9217   5.531   4.052   8.824 -1.8845 -0.2728  0.7528
35143SOL    HW2 9218   5.434   4.097   8.717  0.3409  2.8088 -0.1121
35144SOL     OW 9219   6.782   3.412   8.638  0.1713 -0.1056 -0.2878
35144SOL    HW1 9220   6.826   3.468   8.574  0.1786 -1.8296 -1.8699
35144SOL    HW2 9221   6.850   3.389   8.701  0.7848 -0.3289 -1.0235
35145SOL     OW 9222   6.630   3.263  10.125 -0.5164 -0.2239  0.0792
35145SOL    HW1 9223   6.666   3.177  10.148 -0.6802 -0.7917 -1.6345
35145SOL    HW2 9224   6.563   3.244  10.060 -0.4521  1.2202 -0.4412
35146SOL     OW 9225   7.009   9.975   8.144 -0.2961  0.1635 -0.0468
35146SOL    HW1 9226   6.923   9.938   8.123  0.5730 -1.4130 -0.9925
35146SOL    HW2 9227   7.066   9.899   8.154  1.3821  1.2134 -1.1951
35147SOL     OW 9228   8.018   3.255   6.547  0.1698 -0.0099  0.2041
35147SOL    HW1 9229   7.991   3.232   6.458 -3.0768 -0.2123  1.1475
35147SOL    HW2 9230   8.004   3.175   6.598  1.4225  0.2875  1.0804
35148SOL     OW 9231   0.665   3.496  10.191  0.3915 -0.1879 -0.1229
35148SOL    HW1 9232   0.710   3.542  10.261  0.5392 -0.6506  0.0891
35148SOL    HW2 9233   0.647   3.409  10.226 -0.8881  0.0529 -0.1154
35149SOL     OW 9234  10.283   5.716  10.213  0.5136  0.1064 -0.1255
35149SOL    HW1 9235  10.240   5.802  10.212  1.8053  0.7932 -1.0350
35149SOL    HW2 9236  10.334   5.715  10.132  1.5310 -1.0010  0.5037
35150SOL     OW 9237   7.736   8.833   3.105  0.1571 -0.4059  0.3502
35150SOL    HW1 9238   7.659   8.783   3.131 -0.2363 -0.2907 -0.5584
35150SOL    HW2 9239   7.704   8.892   3.037  0.6175  1.0439  1.3331
35151SOL     OW 9240   1.082   1.557   3.371  0.6993 -0.2422 -0.2557
35151SOL    HW1 9241   1.124   1.598   3.446  0.7043 -0.8222  0.0688
35151SOL    HW2 9242   1.027   1.626   3.333  0.7364  0.0695  0.2492
35152SOL     OW 9243   7.706   5.216  10.239 -0.1457  0.3502 -0.3623
35152SOL    HW1 9244   7.680   5.280  10.173 -0.1629  1.9641  1.1348
35152SOL    HW2 9245   7.800   5.231  10.250 -0.0911 -0.0935 -0.2282
35153SOL     OW 9246   2.948   4.819   7.935  0.1303  0.2041  0.7268
35153SOL    HW1 9247   2.956   4.837   7.842  0.5247 -1.2514  0.4580
35153SOL    HW2 9248   2.963   4.903   7.977 -1.4968  1.2002 -0.5673
35154SOL     OW 9249   0.847   7.137   8.959  0.1453  0.3574  0.0776
35154SOL    HW1 9250   0.799   7.220   8.950 -0.1927  0.0096 -1.7234
35154SOL    HW2 9251   0.779   7.072   8.977  0.4715  0.5256  2.0652
35155SOL     OW 9252   6.698   0.152   0.384  0.2912  0.0228  0.1831
35155SOL    HW1 9253   6.679   0.246   0.378  2.8399  0.6633  1.0909
35155SOL    HW2 9254   6.614   0.113   0.411 -0.3667  2.2999  1.7265
35156SOL     OW 9255   1.187   3.045   1.153 -0.1624 -0.4544 -0.3538
35156SOL    HW1 9256   1.200   3.090   1.236  0.4327 -2.1564  0.5227
35156SOL    HW2 9257   1.261   3.073   1.099 -1.2246  1.6427 -0.8259
35157SOL     OW 9258   4.648   6.935   5.939 -0.2615 -0.0498 -0.4183
35157SOL    HW1 9259   4.736   6.969   5.922 -0.0650  0.6769  1.8594
35157SOL    HW2 9260   4.617   6.984   6.014 -2.4683 -0.6211 -0.8994
35158SOL     OW 9261   9.324   4.375   8.362  0.6571 -0.2322  0.3868
35158SOL    HW1 9262   9.309   4.346   8.272  1.5118 -0.8688  0.4262
35158SOL    HW2 9263   9.237   4.391   8.398  0.3339  0.6166 -0.7303
35159SOL     OW 9264   0.673   6.889   1.975 -0.0695 -0.0330 -0.6923
35159SOL    HW1 9265   0.698   6.980   1.959 -1.1557  0.4912  0.3927
35159SOL    HW2 9266   0.755   6.841   1.972  0.7181  1.1908 -0.0164
35160SOL     OW 9267   1.920   7.686   0.055  0.0066  0.1797  0.3100
35160SOL    HW1 9268   1.885   7.684   0.144 -0.5420  2.3561  0.2058
35160SOL    HW2 9269   1.851   7.648   0.000 -0.9443  1.5683  0.4911
35161SOL     OW 9270   5.627   5.299   3.963  0.0942 -0.0702 -0.0102
35161SOL    HW1 9271   5.638   5.207   3.989 -1.1322 -0.7417 -1.6667
35161SOL    HW2 9272   5.566   5.335   4.028  0.4709 -0.4628  0.5672
35162SOL     OW 9273   5.145   0.735   4.549 -0.3336 -0.1281  0.0911
35162SOL    HW1 9274   5.208   0.806   4.560 -0.4958  0.5795 -2.7317
35162SOL    HW2 9275   5.077   0.752   4.614  0.7269  1.0403  0.9182
35163SOL     OW 9276   3.820   0.037   9.192  0.1121 -0.2740  0.4002
35163SOL    HW1 9277   3.807   0.117   9.243  3.7860  0.7434  0.0601
35163SOL    HW2 9278   3.795   0.061   9.102  3.9402  1.7449 -0.3611
35164SOL     OW 9279   9.315   2.649   6.076  0.2926 -0.4158  0.9780
35164SOL    HW1 9280   9.272   2.734   6.069 -1.0992 -0.8816  3.0051
35164SOL    HW2 9281   9.406   2.670   6.097  0.1410  0.5657  0.7020
35165SOL     OW 9282   8.987   0.392   1.106 -0.0634 -0.1595 -1.0791
35165SOL    HW1 9283   8.926   0.407   1.034 -0.5581 -1.0214 -0.8574
35165SOL    HW2 9284   9.016   0.479   1.132 -1.7429  0.3232 -0.7275
35166SOL     OW 9285   6.743   2.520   2.558 -0.0886  0.3629  0.2471
35166SOL    HW1 9286   6.738   2.599   2.503 -0.6556 -0.3984 -0.8439
35166SOL    HW2 9287   6.831   2.521   2.593 -0.2637  1.7904  0.7332
35167SOL     OW 9288   2.024   5.689   7.163  0.6667  0.1441 -0.2481
35167SOL    HW1 9289   2.049   5.749   7.092  0.5866 -1.2889 -1.5620
35167SOL    HW2 9290   1.950   5.639   7.126  2.4761 -2.6729 -0.3576
35168SOL     OW 9291   2.908   2.559   6.831 -0.7005  0.1839 -0.3117
35168SOL    HW1 9292   2.817   2.581   6.811 -0.1772  2.5865 -0.3318
35168SOL    HW2 9293   2.930   2.489   6.769 -2.5275 -0.5158 -0.2327
35169SOL     OW 9294   0.219   3.794   6.498 -0.8036 -0.9711  0.3736
35169SOL    HW1 9295   0.127   3.799   6.473 -0.6806 -0.1679  0.0643
35169SOL    HW2 9296   0.260   3.871   6.458  0.4506 -2.4143 -1.2997
35170SOL     OW 9297   6.238   3.967   0.407  0.0745  0.5296  0.0536
35170SOL    HW1 9298   6.195   4.015   0.336 -0.8873  1.2503  1.1023
35170SOL    HW2 9299   6.301   3.911   0.362 -0.9560  0.4945 -1.4199
35171SOL     OW 9300   0.854   3.851   0.862 -0.5479 -0.0815  0.0361
35171SOL    HW1 9301   0.872   3.764   0.897  0.3985 -0.8012 -2.0755
35171SOL    HW2 9302   0.775   3.880   0.907 -0.4982 -1.7406  1.2556
35172SOL     OW 9303   0.876   0.926   5.145 -0.2794  0.3374 -0.0948
35172SOL    HW1 9304   0.957   0.976   5.134 -0.1955 -0.0065 -1.1274
35172SOL    HW2 9305   0.829   0.937   5.063 -2.1553  2.0122  1.1001
35173SOL     OW 9306   8.137   5.643   3.722  0.2034 -0.5055  0.0059
35173SOL    HW1 9307   8.117   5.736   3.708 -1.9245 -0.8469  0.4878
35173SOL    HW2 9308   8.208   5.625   3.661  1.5311  1.7097  0.7541
35174SOL     OW 9309   0.899   0.143   6.599 -0.1297  0.1248  0.2383
35174SOL    HW1 9310   0.975   0.158   6.542  0.3333 -1.6992  0.3339
35174SOL    HW2 9311   0.937   0.128   6.686 -0.4988 -1.7302  0.1120
35175SOL     OW 9312   8.107   4.082   8.409 -0.4471  0.2952 -0.2514
35175SOL    HW1 9313   8.126   3.991   8.387  0.9078  0.2889  0.7883
35175SOL    HW2 9314   8.168   4.103   8.480 -1.8848  1.5017  0.7079
35176SOL     OW 9315   1.566   9.474   1.631 -0.0582 -0.6894 -0.4645
35176SOL    HW1 9316   1.659   9.495   1.631 -0.2105  0.2434  2.0551
35176SOL    HW2 9317   1.522   9.555   1.605 -0.2896  0.0351  1.9890
35177SOL     OW 9318   8.497   3.371   4.734  0.4260  0.4559 -0.1080
35177SOL    HW1 9319   8.510   3.364   4.639  1.6800 -2.3173  0.1641
35177SOL    HW2 9320   8.585   3.373   4.770  0.0171 -1.1257  1.0683
35178SOL     OW 9321   5.850   4.009   2.872 -0.1938 -0.1817  1.1109
35178SOL    HW1 9322   5.908   3.941   2.907  0.3648  0.4308  1.3931
35178SOL    HW2 9323   5.762   3.981   2.898 -0.0176 -1.0441  0.8101
35179SOL     OW 9324   0.452   3.079   6.661  0.1029 -0.4903 -0.3077
35179SOL    HW1 9325   0.397   3.001   6.649  0.7719 -0.8861 -0.9196
35179SOL    HW2 9326   0.496   3.090   6.576 -2.0451  2.2129 -1.2019
35180SOL     OW 9327   6.399   0.933   2.827  0.2307  0.0970  0.2059
35180SOL    HW1 9328   6.447   0.865   2.779 -0.2080  0.7230 -1.1775
35180SOL    HW2 9329   6.465   0.997   2.851  0.4435 -0.1766  0.3566
35181SOL     OW 9330   4.572   2.950   9.918 -0.2112 -0.5391 -0.9399
35181SOL    HW1 9331   4.575   2.954   9.823  3.1195 -2.5642 -1.0801
35181SOL    HW2 9332   4.657   2.982   9.947 -0.9152 -0.5161  1.3224
35182SOL     OW 9333   5.636  10.044   2.716  0.1562 -0.1687  0.2470
35182SOL    HW1 9334   5.609  10.104   2.785  0.6348 -0.3346  0.5797
35182SOL    HW2 9335   5.578   9.969   2.725 -1.8979  1.0732 -1.4935
35183SOL     OW 9336   6.800   0.697   4.585 -0.1346 -0.1685 -0.0451
35183SOL    HW1 9337   6.804   0.791   4.603 -0.8503 -0.1445  0.0285
35183SOL    HW2 9338   6.823   0.689   4.492  2.9377 -0.2270  0.6187
35184SOL     OW 9339   9.741   1.578   2.230 -0.6614  0.7383  0.2589
35184SOL    HW1 9340   9.689   1.645   2.185  1.0844  1.4120 -0.8690
35184SOL    HW2 9341   9.815   1.626   2.267 -0.6022 -0.2435  1.4956
35185SOL     OW 9342   9.839   1.419   6.964  0.2714  0.1574 -0.3618
35185SOL    HW1 9343   9.899   1.357   6.922  0.3908 -0.5325  0.7719
35185SOL    HW2 9344   9.872   1.427   7.054 -1.6169 -0.6894  0.4790
35186SOL     OW 9345   5.340   3.462   8.564  0.3703 -0.2840 -0.1842
35186SOL    HW1 9346   5.349   3.384   8.510  0.8732 -0.7665  0.5842
35186SOL    HW2 9347   5.429   3.486   8.588  0.1019 -0.9615  1.6570
35187SOL     OW 9348   2.431   3.226   2.723  0.0914 -0.6895 -0.0792
35187SOL    HW1 9349   2.373   3.219   2.799 -0.1806 -1.4024 -0.3430
35187SOL    HW2 9350   2.452   3.319   2.717  0.9474 -0.7510  1.4856
35188SOL     OW 9351   4.059   9.058   8.451 -0.8427  0.3002  0.1648
35188SOL    HW1 9352   4.043   9.025   8.362  1.6982  0.9670 -0.6350
35188SOL    HW2 9353   4.022   8.991   8.508  1.4822 -2.5970 -1.4013
35189SOL     OW 9354   5.554   4.088   2.487 -0.1499 -0.0175  0.4639
35189SOL    HW1 9355   5.536   4.040   2.406  1.2056 -0.2879  0.2868
35189SOL    HW2 9356   5.566   4.019   2.552  3.2505 -0.1406 -0.0841
35190SOL     OW 9357   7.418   5.150   2.989 -0.1083 -0.9432 -0.1896
35190SOL    HW1 9358   7.355   5.078   2.998 -0.6096 -0.4074  0.7100
35190SOL    HW2 9359   7.364   5.229   2.982  0.3530 -0.7580 -3.1935
35191SOL     OW 9360   3.660   8.901   3.319  0.5178 -0.2674 -0.4474
35191SOL    HW1 9361   3.594   8.966   3.293 -0.2779  0.1495  2.2466
35191SOL    HW2 9362   3.735   8.954   3.349  0.5837 -0.6267  0.0381
35192SOL     OW 9363   3.983   8.281   0.724  0.4523 -0.7693  0.2275
35192SOL    HW1 9364   3.900   8.268   0.770 -0.6326  1.4060 -0.9782
35192SOL    HW2 9365   3.960   8.331   0.646  2.5638 -2.2572 -1.4867
35193SOL     OW 9366   5.140   2.181   0.262  0.2631  0.4415  0.3933
35193SOL    HW1 9367   5.170   2.100   0.304 -0.7211  0.4915  1.2385
35193SOL    HW2 9368   5.165   2.171   0.171  0.9030 -0.4515  0.6490
35194SOL     OW 9369   5.298  10.190   4.367 -0.1235 -0.1569  0.3983
35194SOL    HW1 9370   5.288  10.095   4.359  1.1750 -0.2425 -0.5753
35194SOL    HW2 9371   5.254  10.226   4.290  1.4761 -0.1545 -0.5548
35195SOL     OW 9372  10.221   3.819   2.340 -0.2119  0.0346 -0.0234
35195SOL    HW1 9373  10.242   3.738   2.293 -0.1381  0.9507 -1.6378
35195SOL    HW2 9374  10.303   3.868   2.343 -0.3935  0.3191  0.3953
35196SOL     OW 9375   0.733   6.768   8.230 -0.1930 -0.5651 -0.0086
35196SOL    HW1 9376   0.718   6.780   8.136  0.8429 -3.7165 -0.7064
35196SOL    HW2 9377   0.683   6.689   8.252  1.8982 -1.6168  1.3520
35197SOL     OW 9378   1.815   6.554   6.247 -0.3676  0.1104  0.3270
35197SOL    HW1 9379   1.827   6.530   6.339 -2.4072  1.2109  0.9522
35197SOL    HW2 9380   1.790   6.472   6.204 -0.5094 -0.2041  0.9960
35198SOL     OW 9381   4.439   1.678   3.991 -0.0235 -0.0770 -0.0084
35198SOL    HW1 9382   4.370   1.650   4.050 -0.2300  1.2583  0.4002
35198SOL    HW2 9383   4.395   1.696   3.908 -0.5249  2.4901  0.7300
35199SOL     OW 9384   5.795   5.231   2.310  0.1902 -0.1009 -0.9965
35199SOL    HW1 9385   5.712   5.225   2.263  0.6274 -0.7132 -1.7187
35199SOL    HW2 9386   5.861   5.212   2.244  0.9647  1.1368 -0.6164
35200SOL     OW 9387   5.217   4.279   9.648 -0.1598 -0.1188 -0.3553
35200SOL    HW1 9388   5.265   4.225   9.585 -1.0787  1.2745 -2.3824
35200SOL    HW2 9389   5.126   4.275   9.618 -0.9407 -0.6268  1.8521
35201SOL     OW 9390   5.237   3.214   3.263  0.4371 -0.2574 -0.2708
35201SOL    HW1 9391   5.211   3.122   3.261  0.0010 -0.1368 -0.3772
35201SOL    HW2 9392   5.308   3.218   3.327  0.1300 -0.5862  0.0921
35202SOL     OW 9393   9.276   2.760   1.227 -0.3775  0.0888 -0.2057
35202SOL    HW1 9394   9.286   2.848   1.262 -1.3931  0.8074 -1.5888
35202SOL    HW2 9395   9.181   2.750   1.213 -0.1792 -0.7719 -1.1305
35203SOL     OW 9396   0.976   6.752   7.168  0.1686 -0.4953 -0.2157
35203SOL    HW1 9397   0.952   6.798   7.248 -0.2219 -1.0709  0.0079
35203SOL    HW2 9398   0.959   6.814   7.098 -0.1296 -0.2210  0.0980
35204SOL     OW 9399   7.550   6.079   0.808 -0.0513  0.0711 -0.3622
35204SOL    HW1 9400   7.520   6.120   0.889  3.8855 -0.0640  1.3984
35204SOL    HW2 9401   7.508   5.993   0.808 -2.1711  1.0434  0.0739
35205SOL     OW 9402   1.851   4.374   2.923  0.6847 -0.4589 -0.3311
35205SOL    HW1 9403   1.889   4.451   2.966  0.1315 -0.6695  0.5519
35205SOL    HW2 9404   1.809   4.326   2.994  0.8675 -1.4852 -0.9098
35206SOL     OW 9405   7.711   2.328   3.782  0.2108  0.1081 -0.2486
35206SOL    HW1 9406   7.661   2.358   3.858  2.5750 -1.5476  2.1561
35206SOL    HW2 9407   7.687   2.236   3.772  2.0230 -0.4823  0.4220
35207SOL     OW 9408   7.650   3.831   7.847  0.1582  0.4832  0.4921
35207SOL    HW1 9409   7.691   3.902   7.798  0.2918  0.6394  0.8256
35207SOL    HW2 9410   7.722   3.789   7.894  0.0634  0.1938  0.3803
35208SOL     OW 9411   6.035   6.457   4.256 -0.1037  0.0174 -0.2122
35208SOL    HW1 9412   5.948   6.454   4.296 -0.2376  1.4400 -0.3314
35208SOL    HW2 9413   6.026   6.405   4.176 -0.9428  0.4045 -0.3832
35209SOL     OW 9414   4.552   8.581   8.656  0.4858  0.1974  0.2413
35209SOL    HW1 9415   4.548   8.621   8.569 -0.1582  2.2295  1.1497
35209SOL    HW2 9416   4.643   8.556   8.667  0.7463  0.6835 -0.6860
35210SOL     OW 9417   5.004   3.862   1.164  0.1116 -0.3768 -0.4025
35210SOL    HW1 9418   5.017   3.813   1.083  2.7404  0.4226 -0.5505
35210SOL    HW2 9419   5.056   3.941   1.153 -0.2844  0.2405  1.6741
35211SOL     OW 9420   9.543   0.036   2.658 -0.3948 -0.0065 -0.2480
35211SOL    HW1 9421   9.505   0.121   2.683  2.5565  1.8236 -1.4065
35211SOL    HW2 9422   9.625   0.059   2.614  1.8379 -3.5860  1.5884
35212SOL     OW 9423   0.082   8.228   8.757  0.6379 -0.5528  0.1153
35212SOL    HW1 9424   0.112   8.184   8.836 -0.4345 -1.5643 -0.0163
35212SOL    HW2 9425   0.053   8.158   8.699  0.2203  0.2407 -0.6742
35213SOL     OW 9426  10.226   0.083   5.015  0.0610 -0.0161 -0.1384
35213SOL    HW1 9427  10.185   0.122   5.092  0.7170 -0.0886  0.2491
35213SOL    HW2 9428  10.274   0.008   5.049 -0.7582 -0.8709 -0.8052
35214SOL     OW 9429   8.855   2.312   1.538 -0.3741  0.1211  0.4597
35214SOL    HW1 9430   8.896   2.307   1.624 -1.1005 -1.7620  0.7633
35214SOL    HW2 9431   8.856   2.222   1.506 -0.7024  0.6805 -1.2388
35215SOL     OW 9432   6.684   4.468   3.037 -0.5678  0.2466 -0.7559
35215SOL    HW1 9433   6.594   4.453   3.010 -0.7861  0.6621 -0.2554
35215SOL    HW2 9434   6.695   4.563   3.033  0.0001  0.1635 -1.3016
35216SOL     OW 9435   7.758   0.399   8.989  0.3530 -0.1044  0.4066
35216SOL    HW1 9436   7.719   0.370   8.906 -2.1784  1.7355  0.8397
35216SOL    HW2 9437   7.818   0.469   8.964 -2.5393  2.5067  0.1568
35217SOL     OW 9438   1.799   5.548  10.278 -0.4089  0.6016 -0.3480
35217SOL    HW1 9439   1.894   5.548  10.280 -0.4167  0.6082  0.5316
35217SOL    HW2 9440   1.773   5.470  10.328 -0.8640  0.4095 -0.8663
35218SOL     OW 9441   3.141   1.697   8.676 -0.3238  0.1875  0.3329
35218SOL    HW1 9442   3.202   1.732   8.740 -1.3731  1.2156  0.8185
35218SOL    HW2 9443   3.196   1.653   8.611  0.9588  1.4472  0.5197
35219SOL     OW 9444   3.192   7.055   9.064 -0.0284 -0.4909  0.3623
35219SOL    HW1 9445   3.283   7.027   9.070 -0.1876 -1.4331 -1.1703
35219SOL    HW2 9446   3.142   6.973   9.063 -0.8831  0.0102  0.9381
35220SOL     OW 9447   6.910   3.893   3.511  0.2752 -0.0336  0.0353
35220SOL    HW1 9448   6.996   3.929   3.531  0.7564 -0.1209 -1.7320
35220SOL    HW2 9449   6.850   3.936   3.572  1.3371  1.1960  0.2265
35221SOL     OW 9450   2.022   8.778   4.299  0.6548 -0.1393 -0.1283
35221SOL    HW1 9451   1.946   8.719   4.308  1.4301 -0.9504  1.4903
35221SOL    HW2 9452   2.075   8.737   4.231  0.3795 -0.4060 -0.1876
35222SOL     OW 9453   2.581   6.916   2.521  0.1781  0.3624 -0.3044
35222SOL    HW1 9454   2.656   6.896   2.465 -0.1815  0.8472 -0.9700
35222SOL    HW2 9455   2.539   6.990   2.478 -0.5853  0.1998  0.1611
35223SOL     OW 9456   5.171   4.637   7.723  0.0584 -0.6009  0.3392
35223SOL    HW1 9457   5.075   4.634   7.726 -0.0412 -1.3012 -1.8089
35223SOL    HW2 9458   5.199   4.550   7.752 -0.1392 -1.4716 -1.8885
35224SOL     OW 9459   3.002   7.567   5.453 -0.2092  0.1266  0.1626
35224SOL    HW1 9460   3.015   7.511   5.376  1.2852 -0.6683  0.9467
35224SOL    HW2 9461   3.006   7.507   5.527  1.3167  1.2301  1.0267
35225SOL     OW 9462   9.962   4.294   8.010 -0.1901 -0.4483 -0.2361
35225SOL    HW1 9463   9.994   4.364   7.954  0.2942  0.0684  0.6719
35225SOL    HW2 9464   9.942   4.337   8.093  1.1574 -1.5543  0.6995
35226SOL     OW 9465   4.432   0.841   7.522  0.3637  0.1182  0.1438
35226SOL    HW1 9466   4.526   0.839   7.502  0.0604 -0.9872 -1.3374
35226SOL    HW2 9467   4.404   0.750   7.511 -1.0670  0.6030 -0.4058
35227SOL     OW 9468   8.783   0.406   1.503  0.0739  0.4258 -0.1724
35227SOL    HW1 9469   8.689   0.419   1.491  0.1767  0.5267 -0.9081
35227SOL    HW2 9470   8.819   0.495   1.510  0.0606  0.3759  0.5450
35228SOL     OW 9471   2.123   1.880   3.697  0.0808  0.2659 -0.3046
35228SOL    HW1 9472   2.055   1.936   3.734 -0.6576 -0.3516 -0.7087
35228SOL    HW2 9473   2.115   1.797   3.745  0.9938  0.3959  0.1066
35229SOL     OW 9474   0.835   8.812   8.219 -0.2095  0.9387  0.3370
35229SOL    HW1 9475   0.810   8.752   8.289  0.6587 -0.0473 -0.1602
35229SOL    HW2 9476   0.866   8.890   8.265  3.3026 -0.8030  1.3105
35230SOL     OW 9477  10.232   5.857   6.563 -0.6754  0.3452  0.0957
35230SOL    HW1 9478  10.158   5.917   6.577 -1.0379 -0.1599  0.3763
35230SOL    HW2 9479  10.192   5.778   6.526  0.2343  1.7176 -4.4993
35231SOL     OW 9480   1.917   2.846   4.497 -0.2278  0.0954  1.0256
35231SOL    HW1 9481   1.906   2.884   4.409  1.2702 -1.1381  0.2566
35231SOL    HW2 9482   1.941   2.755   4.481 -3.8476 -1.3455  2.8283
35232SOL     OW 9483   7.709   1.839   0.379 -0.1050 -0.1169  0.8360
35232SOL    HW1 9484   7.756   1.796   0.451  0.6726  2.5674  2.0657
35232SOL    HW2 9485   7.628   1.870   0.419 -0.6728 -0.4532 -0.0350
35233SOL     OW 9486   8.382   1.761   2.711  0.0397  0.4631 -0.0045
35233SOL    HW1 9487   8.409   1.680   2.668 -1.4091 -0.3886  0.6100
35233SOL    HW2 9488   8.301   1.738   2.756  1.1680  1.4530  2.7129
35234SOL     OW 9489   1.636   4.757   2.946 -0.2559 -0.1265 -0.3596
35234SOL    HW1 9490   1.696   4.766   2.871 -1.0213  0.1195 -0.9550
35234SOL    HW2 9491   1.569   4.823   2.930  0.0709  0.5875  1.0416
35235SOL     OW 9492  10.080   2.396   6.505  0.0167 -0.2370  0.1757
35235SOL    HW1 9493  10.028   2.396   6.424  1.4066  0.4997 -0.7604
35235SOL    HW2 9494  10.066   2.309   6.542  0.7059 -1.2592 -1.8006
35236SOL     OW 9495   3.088   1.743   2.817 -0.0097  0.0726 -0.2460
35236SOL    HW1 9496   3.013   1.749   2.758 -0.7415 -0.6195  0.5854
35236SOL    HW2 9497   3.080   1.656   2.857  0.6017  0.4318  0.6929
35237SOL     OW 9498   9.489   8.340   1.984 -0.8010 -0.3681  0.1378
35237SOL    HW1 9499   9.519   8.306   2.068  1.2690  0.6647 -0.1292
35237SOL    HW2 9500   9.395   8.355   1.997 -0.5195 -0.1139  2.3265
35238SOL     OW 9501   2.823   7.434   4.336  0.1330  0.1200 -0.3728
35238SOL    HW1 9502   2.856   7.347   4.312  0.4445  0.1452 -0.0336
35238SOL    HW2 9503   2.854   7.448   4.425 -1.6625 -0.2812  0.3574
35239SOL     OW 9504   9.016   6.926   0.087 -0.0215 -0.0389  0.1738
35239SOL    HW1 9505   9.100   6.940   0.042  0.1164  0.1175  0.4763
35239SOL    HW2 9506   8.972   7.010   0.081 -0.2942 -0.2152 -0.2697
35240SOL     OW 9507   3.982   0.433   5.177  0.0048  0.0102  0.1405
35240SOL    HW1 9508   3.893   0.408   5.203 -0.0467  2.6133  2.9599
35240SOL    HW2 9509   3.969   0.493   5.104 -0.3014 -1.6173 -1.2188
35241SOL     OW 9510   3.044   8.037   3.141 -0.1312 -0.2390  0.3401
35241SOL    HW1 9511   2.997   8.118   3.125  0.9959  0.5629  0.9441
35241SOL    HW2 9512   3.077   8.011   3.056 -2.1218 -1.1586 -0.2201
35242SOL     OW 9513   7.809   4.712   4.308  0.4326 -0.0095 -0.1866
35242SOL    HW1 9514   7.870   4.660   4.256  0.7517  0.2326 -0.0585
35242SOL    HW2 9515   7.750   4.753   4.243  0.1300 -0.5887 -0.2817
35243SOL     OW 9516   5.965   4.327   0.464  0.1968 -0.2662 -0.4134
35243SOL    HW1 9517   6.061   4.330   0.472  0.3020  0.3517 -1.6143
35243SOL    HW2 9518   5.936   4.276   0.539  1.4954 -0.6993 -0.1833
35244SOL     OW 9519   3.522   1.904   7.551  0.3463  0.1207 -0.5674
35244SOL    HW1 9520   3.466   1.828   7.567  1.3025 -0.9386 -2.0884
35244SOL    HW2 9521   3.609   1.875   7.577  0.7060  0.7218 -1.0998
35245SOL     OW 9522   3.838   2.409   1.334 -0.1279 -0.5192  0.5832
35245SOL    HW1 9523   3.748   2.442   1.328 -0.4531 -1.5295 -0.4019
35245SOL    HW2 9524   3.886   2.457   1.267  0.7674  1.9406  2.7701
35246SOL     OW 9525   0.797   8.738   5.594 -0.1439 -0.3716  0.1279
35246SOL    HW1 9526   0.751   8.787   5.662 -0.1456 -1.4627  0.9271
35246SOL    HW2 9527   0.885   8.776   5.593  0.0373 -0.7458  1.1646
35247SOL     OW 9528   3.125   7.226   9.672 -1.0332 -0.2251 -0.2484
35247SOL    HW1 9529   3.063   7.251   9.741  0.4384 -0.6888  1.2979
35247SOL    HW2 9530   3.210   7.257   9.704 -0.1202 -1.5655 -1.2626
35248SOL     OW 9531   4.683   0.375   6.678  0.1741 -0.0271 -0.3574
35248SOL    HW1 9532   4.663   0.451   6.623 -1.7073  0.4863  0.9276
35248SOL    HW2 9533   4.652   0.300   6.627 -1.8231  0.4653  0.0486
35249SOL     OW 9534   4.254   1.015   2.870 -0.0744 -0.1850 -0.0029
35249SOL    HW1 9535   4.167   1.050   2.892 -0.6552 -1.0241 -0.9185
35249SOL    HW2 9536   4.293   0.994   2.955 -0.9378 -0.2067  0.3961
35250SOL     OW 9537   0.263   3.708   6.746 -0.3907  0.4334  0.4513
35250SOL    HW1 9538   0.211   3.705   6.666  0.0706  2.2869  0.0408
35250SOL    HW2 9539   0.280   3.616   6.767  1.8060 -0.1769 -3.1443
35251SOL     OW 9540  10.198   9.147   9.659  0.6006 -0.3211  0.9598
35251SOL    HW1 9541  10.237   9.211   9.719 -0.8614  1.7457 -0.2149
35251SOL    HW2 9542  10.210   9.184   9.572 -0.7274 -1.4097  0.2710
35252SOL     OW 9543   4.332   4.086   2.107 -0.3165  0.7545  0.2349
35252SOL    HW1 9544   4.362   4.034   2.033  1.0769  0.6867  0.8182
35252SOL    HW2 9545   4.328   4.175   2.073 -0.5200  0.5980 -0.1556
35253SOL     OW 9546   9.442   2.692   3.078 -0.0297 -0.0075 -0.3323
35253SOL    HW1 9547   9.490   2.772   3.099  0.2293 -0.5249  1.2222
35253SOL    HW2 9548   9.371   2.720   3.021 -0.4859  1.5019  0.9189
35254SOL     OW 9549   4.138   6.745   3.943  0.3125 -0.0708 -0.3373
35254SOL    HW1 9550   4.085   6.670   3.916 -0.1385  0.1429 -0.0622
35254SOL    HW2 9551   4.187   6.770   3.865 -0.3183  0.0006 -0.7134
35255SOL     OW 9552   6.916   9.836   6.896 -0.2798  0.1329  0.2050
35255SOL    HW1 9553   6.961   9.918   6.875  1.5137 -0.7028  0.6031
35255SOL    HW2 9554   6.951   9.772   6.833 -2.9357 -0.0375 -1.2882
35256SOL     OW 9555   3.920   7.806   2.074  0.1841  0.1278 -0.2746
35256SOL    HW1 9556   3.846   7.750   2.099  0.1532 -0.0597 -0.7742
35256SOL    HW2 9557   3.933   7.863   2.149  0.1839 -0.5214  0.2298
35257SOL     OW 9558   5.366   4.405   5.257  0.1736  0.0325  0.0727
35257SOL    HW1 9559   5.440   4.443   5.305 -0.5886 -0.7737  1.9738
35257SOL    HW2 9560   5.404   4.375   5.174  1.7183  0.6790  0.5117
35258SOL     OW 9561   8.817   2.753   3.479 -0.5449 -0.0433  0.1379
35258SOL    HW1 9562   8.905   2.729   3.509  0.2649 -0.5698 -2.4277
35258SOL    HW2 9563   8.827   2.841   3.443 -0.7980 -0.4858 -1.0643
35259SOL     OW 9564   8.825   6.067   1.101 -0.2256  0.1900  0.1878
35259SOL    HW1 9565   8.818   6.157   1.133 -0.0020  0.3239 -0.1412
35259SOL    HW2 9566   8.867   6.074   1.016 -2.1916 -0.0211 -0.8624
35260SOL     OW 9567   6.008   0.925   2.728 -0.8485 -0.2849  0.0581
35260SOL    HW1 9568   6.000   0.922   2.824  0.6488  1.8486  0.3250
35260SOL    HW2 9569   5.992   1.016   2.705  1.9143 -0.0360 -1.3243
35261SOL     OW 9570   5.647   3.206   6.262  0.1678  0.0533  0.0422
35261SOL    HW1 9571   5.675   3.116   6.280 -0.4429  0.0730  1.1347
35261SOL    HW2 9572   5.688   3.258   6.331 -0.7496  0.3903  0.3383
35262SOL     OW 9573   3.485   1.194   9.410 -0.3663  0.3274 -0.1392
35262SOL    HW1 9574   3.449   1.109   9.436 -0.3657  0.3041 -0.2155
35262SOL    HW2 9575   3.411   1.242   9.372  0.3412 -0.9657 -3.4711
35263SOL     OW 9576   5.164   5.516   5.175 -0.0047  0.0152 -0.1544
35263SOL    HW1 9577   5.170   5.506   5.270 -0.6376 -1.4522 -0.2447
35263SOL    HW2 9578   5.101   5.450   5.148  1.4444 -0.7932 -1.7955
35264SOL     OW 9579   9.437   5.128   8.798  0.5490 -0.0199  0.2023
35264SOL    HW1 9580   9.481   5.193   8.854  0.4522 -0.2961  0.6020
35264SOL    HW2 9581   9.438   5.167   8.711 -0.7759  1.1631  0.6871
35265SOL     OW 9582   5.153   7.163   0.658  0.3153 -0.5438 -0.0623
35265SOL    HW1 9583   5.062   7.164   0.630  0.5200  0.9955 -0.7646
35265SOL    HW2 9584   5.190   7.086   0.615 -0.0598  0.2330 -1.8719
35266SOL     OW 9585   0.416   5.815   6.499  0.0626  0.0090 -0.6528
35266SOL    HW1 9586   0.326   5.830   6.526 -0.2278 -0.0135 -1.5906
35266SOL    HW2 9587   0.423   5.856   6.413  1.6914  2.4939  0.4940
35267SOL     OW 9588   6.878   7.730   3.004  0.3172 -0.3266 -0.0813
35267SOL    HW1 9589   6.900   7.642   2.974  3.2804  0.5148 -0.7145
35267SOL    HW2 9590   6.849   7.776   2.925 -0.8123 -0.5840  0.1685
35268SOL     OW 9591   2.241   2.125   9.600 -0.4470  0.1380 -0.4614
35268SOL    HW1 9592   2.249   2.194   9.535  0.9206  0.4986  0.0503
35268SOL    HW2 9593   2.149   2.126   9.626 -0.8445  0.4924 -1.8249
35269SOL     OW 9594   9.297   6.890   1.250  0.0935  0.8023  0.1922
35269SOL    HW1 9595   9.372   6.947   1.267 -0.8430  1.4012  2.6266
35269SOL    HW2 9596   9.276   6.852   1.335 -1.2118 -0.8528 -0.8081
35270SOL     OW 9597   3.739   1.796   2.702 -0.5365  0.2446  0.1511
35270SOL    HW1 9598   3.679   1.780   2.775 -0.9517  1.8652  0.2031
35270SOL    HW2 9599   3.691   1.856   2.645  0.9783  1.4709  0.1301
35271SOL     OW 9600   1.934   9.051   6.267  0.0829 -0.2135  0.4919
35271SOL    HW1 9601   1.973   9.030   6.352  1.5425 -1.3192 -0.3988
35271SOL    HW2 9602   2.006   9.042   6.205 -0.6286  1.8340 -0.7361
35272SOL     OW 9603   2.427   6.285   7.963  0.3911 -0.7239  0.3597
35272SOL    HW1 9604   2.362   6.282   7.893 -1.3092 -0.6579  1.8519
35272SOL    HW2 9605   2.380   6.324   8.037  2.7247  1.2338  0.9320
35273SOL     OW 9606   1.302   0.664   5.075  0.4502 -0.0544  0.2018
35273SOL    HW1 9607   1.339   0.576   5.091  0.5642 -0.2166 -0.8842
35273SOL    HW2 9608   1.351   0.697   5.000 -0.9719  0.1154 -0.6752
35274SOL     OW 9609   1.820   4.301   0.491 -0.4013 -0.1395  0.1167
35274SOL    HW1 9610   1.751   4.282   0.427 -0.5480  0.7294  0.0075
35274SOL    HW2 9611   1.785   4.373   0.544  0.4308  0.3457  0.0272
35275SOL     OW 9612   8.569  10.030   0.143 -0.0001 -0.2505  0.2180
35275SOL    HW1 9613   8.501  10.091   0.173  0.4929  1.0063 -1.0630
35275SOL    HW2 9614   8.526   9.945   0.140 -1.4999  0.4861 -0.4280
35276SOL     OW 9615   4.129   6.841   7.816  0.5806  0.1334  0.5030
35276SOL    HW1 9616   4.118   6.881   7.903 -0.4249 -0.9143  0.8826
35276SOL    HW2 9617   4.040   6.822   7.787  0.9902 -1.2467  0.0875
35277SOL     OW 9618   4.518   6.326   1.863 -0.0438 -0.1732  0.5097
35277SOL    HW1 9619   4.517   6.308   1.957  0.3769 -1.6019  0.2542
35277SOL    HW2 9620   4.609   6.316   1.837  0.0434  1.3282  0.1252
35278SOL     OW 9621   4.287   2.227   4.296  0.2833 -0.4102  0.7209
35278SOL    HW1 9622   4.223   2.260   4.232  0.4746  0.0037  0.7394
35278SOL    HW2 9623   4.343   2.169   4.245 -1.4342 -2.5666  1.1416
35279SOL     OW 9624   7.220   4.315   8.384 -0.0001  0.3047 -0.0163
35279SOL    HW1 9625   7.211   4.398   8.431 -0.7355  0.2765 -0.1047
35279SOL    HW2 9626   7.228   4.341   8.292 -2.3605  0.2062 -0.2931
35280SOL     OW 9627   0.678   8.597   2.921 -0.3243 -0.0294  0.1348
35280SOL    HW1 9628   0.721   8.670   2.965  2.6642 -1.3358 -0.3126
35280SOL    HW2 9629   0.728   8.586   2.839 -2.2643 -1.0398 -0.9867
35281SOL     OW 9630   0.747   0.685   9.944 -0.2276 -0.2645 -0.1524
35281SOL    HW1 9631   0.710   0.647  10.024  0.4446  0.5450  0.5678
35281SOL    HW2 9632   0.746   0.779   9.960 -0.8677 -0.0359 -1.4618
35282SOL     OW 9633   4.299   6.558   3.727 -0.2485  0.1113 -0.1460
35282SOL    HW1 9634   4.236   6.499   3.686 -1.0127  2.5523 -2.8954
35282SOL    HW2 9635   4.377   6.504   3.743 -1.4954 -1.9936 -0.7826
35283SOL     OW 9636  10.273   0.598   8.648  0.1449 -0.2611 -0.3246
35283SOL    HW1 9637  10.287   0.676   8.703 -2.0060  0.7814 -1.1322
35283SOL    HW2 9638  10.179   0.583   8.652 -0.1756 -0.0181 -3.7835
35284SOL     OW 9639   2.711   0.241   6.202  0.1550 -0.3221 -0.7169
35284SOL    HW1 9640   2.765   0.278   6.272 -0.7425 -0.5019  0.0878
35284SOL    HW2 9641   2.621   0.263   6.227 -0.3874 -2.6619 -0.4330
35285SOL     OW 9642   2.728   8.874   0.362  0.6554 -0.1835 -0.3332
35285SOL    HW1 9643   2.636   8.848   0.352  0.9717 -1.2844 -0.5687
35285SOL    HW2 9644   2.769   8.851   0.279  0.8799  1.5831 -0.7435
35286SOL     OW 9645   3.911   7.428   0.413 -0.3273  0.1228 -0.0904
35286SOL    HW1 9646   3.907   7.521   0.435  2.2455  0.3210 -0.1260
35286SOL    HW2 9647   3.820   7.404   0.395 -1.0607  2.6399 -0.2214
35287SOL     OW 9648   0.852   1.641   7.703  0.2216  0.9662  0.2696
35287SOL    HW1 9649   0.908   1.565   7.687  0.8665  1.6619 -1.0305
35287SOL    HW2 9650   0.773   1.606   7.742  0.8964 -0.2518  0.5867
35288SOL     OW 9651   0.586   7.460   3.975  0.3752  0.3701 -0.4729
35288SOL    HW1 9652   0.491   7.445   3.979  0.5682 -0.9152 -0.1029
35288SOL    HW2 9653   0.598   7.549   4.009 -0.5105 -0.2999  1.8288
35289SOL     OW 9654   8.217   4.355   8.437 -0.5423  0.0590  0.1781
35289SOL    HW1 9655   8.165   4.280   8.407 -0.3115 -1.1300  2.4721
35289SOL    HW2 9656   8.159   4.401   8.498  0.6690 -0.6849  1.9724
35290SOL     OW 9657   0.804   1.954   6.790 -0.1108 -0.2770 -0.2740
35290SOL    HW1 9658   0.756   2.032   6.764  1.3441  0.5484 -0.5542
35290SOL    HW2 9659   0.812   1.902   6.709  2.8083  1.4289 -1.2164
35291SOL     OW 9660   6.815   8.112   8.423 -0.0325  0.1504 -0.3838
35291SOL    HW1 9661   6.870   8.072   8.489 -1.5740 -1.1688  0.1778
35291SOL    HW2 9662   6.766   8.180   8.469  0.5989  0.8589 -0.7308
35292SOL     OW 9663   1.117   8.992   3.060  0.0534 -0.0879 -0.1403
35292SOL    HW1 9664   1.130   9.066   3.120 -1.2515  1.0120 -1.1223
35292SOL    HW2 9665   1.023   8.972   3.068  0.0664 -0.5619 -1.0791
35293SOL     OW 9666   2.055   7.947   1.582  0.7658  0.0114  0.0483
35293SOL    HW1 9667   1.981   7.979   1.531  0.3189 -0.7553  0.1897
35293SOL    HW2 9668   2.024   7.947   1.673  1.1812  0.3381  0.1936
35294SOL     OW 9669   2.597   6.663   5.752 -0.0156 -0.8369  0.1485
35294SOL    HW1 9670   2.608   6.671   5.847  0.1346  0.6542  0.0300
35294SOL    HW2 9671   2.603   6.569   5.735  0.1096 -1.1130  1.5959
35295SOL     OW 9672   3.481   1.768   8.665 -0.0653  0.1627 -0.2953
35295SOL    HW1 9673   3.423   1.765   8.740  0.6331 -1.0015  0.2167
35295SOL    HW2 9674   3.555   1.712   8.689  1.5498  1.9982 -0.6938
35296SOL     OW 9675   1.268   1.474  10.309  0.0645 -0.5909 -0.0628
35296SOL    HW1 9676   1.248   1.500  10.219 -1.4691 -0.0625  0.4002
35296SOL    HW2 9677   1.348   1.422  10.302  1.0035  0.9350 -1.5120
35297SOL     OW 9678   6.435   6.184   7.720  0.1588  0.3796 -0.1433
35297SOL    HW1 9679   6.406   6.246   7.654  0.6608  1.0933  0.2998
35297SOL    HW2 9680   6.527   6.167   7.700  0.1787  0.2133  0.0751
35298SOL     OW 9681   2.998   9.711   0.098  0.1318 -0.4886 -0.2136
35298SOL    HW1 9682   2.917   9.759   0.113 -0.0765 -1.1417  0.9247
35298SOL    HW2 9683   2.980   9.623   0.130  1.4021 -0.5491  0.4160
35299SOL     OW 9684   0.005   7.567   6.060  0.2773 -0.0769 -0.4208
35299SOL    HW1 9685  -0.028   7.639   6.007 -0.5561 -0.8233 -0.9507
35299SOL    HW2 9686   0.008   7.602   6.149 -1.1325  0.2906 -0.4998
35300SOL     OW 9687   3.677   6.348   5.976  0.0703  0.8087  0.3250
35300SOL    HW1 9688   3.597   6.316   6.020  0.2799  0.1311  0.2350
35300SOL    HW2 9689   3.649   6.427   5.930 -1.7411 -1.7470 -3.4687
35301SOL     OW 9690   0.193   3.745   2.402 -0.5521 -0.0466 -0.1583
35301SOL    HW1 9691   0.257   3.705   2.342 -0.5481 -0.2157 -0.0408
35301SOL    HW2 9692   0.199   3.692   2.481  0.5297  1.0944  0.5575
35302SOL     OW 9693   0.207   0.238   7.030 -0.0589 -0.4268  0.2893
35302SOL    HW1 9694   0.135   0.282   6.986 -0.0408 -1.5414 -0.9232
35302SOL    HW2 9695   0.263   0.309   7.063 -0.2664  0.4466 -1.1833
35303SOL     OW 9696   9.624   8.415   9.627 -0.3340  0.2731  0.4672
35303SOL    HW1 9697   9.653   8.356   9.557 -0.1812  0.4462  0.3831
35303SOL    HW2 9698   9.673   8.387   9.704  1.0706  1.3976  0.0308
35304SOL     OW 9699   9.471   6.758   3.270  0.0779  0.1366 -0.0006
35304SOL    HW1 9700   9.451   6.785   3.180 -1.7055 -0.7119  0.0992
35304SOL    HW2 9701   9.523   6.830   3.305  0.2214  0.8028 -1.4826
35305SOL     OW 9702   1.934   9.861   4.144 -0.6716 -0.0444 -0.4471
35305SOL    HW1 9703   1.943   9.942   4.095  2.3059  0.4344  0.6808
35305SOL    HW2 9704   1.884   9.886   4.222  1.2818  1.0826  0.5107
35306SOL     OW 9705   9.159   1.201   6.460  0.0450  0.7050 -0.0924
35306SOL    HW1 9706   9.105   1.189   6.539  0.4126  0.3901  0.1138
35306SOL    HW2 9707   9.111   1.267   6.409 -0.2043  0.9055  0.3852
35307SOL     OW 9708   0.314   2.670   9.448 -0.0780  0.6551 -0.6021
35307SOL    HW1 9709   0.234   2.655   9.397  0.8662 -0.2398 -1.8783
35307SOL    HW2 9710   0.385   2.666   9.383  1.1353 -0.0214  0.7133
35308SOL     OW 9711   7.998   2.408   5.280 -0.0041 -0.2024 -0.2173
35308SOL    HW1 9712   8.040   2.372   5.203 -1.0198  1.2253 -1.5112
35308SOL    HW2 9713   8.015   2.344   5.349  2.4186 -0.6843 -1.1587
35309SOL     OW 9714   7.884   7.137   5.810 -0.0162  0.5297  0.1058
35309SOL    HW1 9715   7.913   7.228   5.815 -1.3903  1.0358 -0.6741
35309SOL    HW2 9716   7.790   7.142   5.797  0.0948 -0.9544 -1.7805
35310SOL     OW 9717   3.830   1.962   1.329 -0.6310 -0.3564  0.1242
35310SOL    HW1 9718   3.797   1.996   1.412 -1.4076 -2.2447  0.6341
35310SOL    HW2 9719   3.923   1.987   1.328 -0.0697 -1.9302  2.5202
35311SOL     OW 9720   3.087   3.172   2.928  0.2914  0.1666  0.7151
35311SOL    HW1 9721   3.055   3.123   2.853 -1.3444  1.7461  0.3181
35311SOL    HW2 9722   3.178   3.193   2.906 -0.5798  1.9244 -1.6033
35312SOL     OW 9723   4.696   6.814   0.195  0.3265 -0.3912  0.1332
35312SOL    HW1 9724   4.667   6.867   0.120 -2.4551 -0.2160  1.2029
35312SOL    HW2 9725   4.660   6.727   0.177 -1.3451 -0.0835  1.7065
35313SOL     OW 9726   5.004   6.958   8.094 -0.0394  0.1216 -0.0430
35313SOL    HW1 9727   5.015   6.961   8.189 -0.1181  0.2520 -0.0379
35313SOL    HW2 9728   5.090   6.981   8.059  0.0255 -0.0594 -0.0043
35314SOL     OW 9729   1.224   4.094  10.244  0.2108 -0.0319  0.2989
35314SOL    HW1 9730   1.212   4.089  10.149  0.3405  0.9117  0.2225
35314SOL    HW2 9731   1.141   4.062  10.280  0.4255 -1.0987 -0.1078
35315SOL     OW 9732   9.544   7.772   1.230 -0.4070  0.5567  0.7772
35315SOL    HW1 9733   9.612   7.753   1.166 -0.2935 -0.1258  1.0884
35315SOL    HW2 9734   9.563   7.861   1.259 -1.2120  1.3689 -1.0432
35316SOL     OW 9735   6.437   8.575   8.595 -0.5150  0.6536 -0.5183
35316SOL    HW1 9736   6.439   8.482   8.614  1.8080  0.7899  0.1730
35316SOL    HW2 9737   6.466   8.617   8.676 -1.5562  2.0152 -0.8007
35317SOL     OW 9738   4.687   1.223   8.811  0.3409  0.0641  0.3406
35317SOL    HW1 9739   4.704   1.291   8.746 -0.4489 -0.4752 -0.4555
35317SOL    HW2 9740   4.728   1.144   8.775  0.5564 -0.0692  0.8686
35318SOL     OW 9741   7.641   7.250   5.019 -0.0341 -0.1445  0.0205
35318SOL    HW1 9742   7.705   7.250   4.948 -0.2845  2.1374 -0.2766
35318SOL    HW2 9743   7.558   7.227   4.977  0.1690 -0.9132  0.0116
35319SOL     OW 9744   9.122   0.572   6.144  0.4604  0.1173 -0.0164
35319SOL    HW1 9745   9.068   0.630   6.091  0.3286 -0.5555 -0.6355
35319SOL    HW2 9746   9.060   0.518   6.193  0.5373 -0.9804 -1.0859
35320SOL     OW 9747   9.767   7.287   2.069  0.6089  0.4388  0.3960
35320SOL    HW1 9748   9.693   7.250   2.118  0.5589 -1.2444 -0.8575
35320SOL    HW2 9749   9.735   7.371   2.037 -1.1303 -0.6430 -0.8788
35321SOL     OW 9750   6.643   1.586   0.906  0.2104  1.1128  0.2948
35321SOL    HW1 9751   6.652   1.502   0.860 -0.1986  0.3645  1.5461
35321SOL    HW2 9752   6.662   1.651   0.839  1.4172  0.0087 -0.4947
35322SOL     OW 9753   7.117   5.171   1.529  0.5161  0.3374  0.2683
35322SOL    HW1 9754   7.149   5.122   1.453  0.6406  1.3851 -0.3874
35322SOL    HW2 9755   7.047   5.118   1.565 -0.9786  0.7445 -1.8530
35323SOL     OW 9756   7.401   6.357   7.762 -0.8821 -0.2580 -0.1917
35323SOL    HW1 9757   7.352   6.439   7.753 -0.9888 -0.3634 -0.6055
35323SOL    HW2 9758   7.460   6.357   7.686 -1.5423 -1.0081 -0.7143
35324SOL     OW 9759   5.261   2.065   3.629 -0.2984 -0.2009  0.1018
35324SOL    HW1 9760   5.176   2.038   3.662  0.4440 -3.0524 -0.1224
35324SOL    HW2 9761   5.310   2.092   3.708 -0.8252 -0.2217  0.4376
35325SOL     OW 9762   4.739   4.746   3.934  0.3886  0.0358  0.1315
35325SOL    HW1 9763   4.738   4.765   4.027  0.8172  0.1467  0.1154
35325SOL    HW2 9764   4.812   4.798   3.899 -0.9460  1.4937 -0.5960
35326SOL     OW 9765   8.188   1.678   0.176  0.0555 -0.5078  0.1768
35326SOL    HW1 9766   8.253   1.747   0.177 -0.9961  0.5248 -0.3031
35326SOL    HW2 9767   8.137   1.691   0.255 -1.4503  0.6042 -0.9135
35327SOL     OW 9768   1.600   8.487   9.931  0.5380 -0.0736  0.4034
35327SOL    HW1 9769   1.511   8.493   9.966 -1.1083  1.6345 -3.5155
35327SOL    HW2 9770   1.623   8.394   9.941 -1.0782 -0.3341  2.6293
35328SOL     OW 9771   2.719   7.663   1.744  0.1985  0.4940  0.0649
35328SOL    HW1 9772   2.702   7.584   1.693 -1.0660  0.3327  0.7063
35328SOL    HW2 9773   2.702   7.637   1.835 -0.9873  1.6953  0.2127
35329SOL     OW 9774   4.484   6.398   6.130 -0.1475  0.4291  0.3611
35329SOL    HW1 9775   4.461   6.362   6.045 -1.0383  2.0943 -0.1308
35329SOL    HW2 9776   4.458   6.330   6.193 -1.3505  0.0214 -0.5574
35330SOL     OW 9777   7.014   8.388   2.512 -0.1287 -0.9461 -0.4170
35330SOL    HW1 9778   7.085   8.451   2.522 -0.0655 -0.6650 -2.2416
35330SOL    HW2 9779   7.008   8.345   2.597 -0.9214  2.2611  1.3237
35331SOL     OW 9780   3.178   6.329   9.894  0.0193 -0.4704  0.1717
35331SOL    HW1 9781   3.181   6.267   9.821 -1.6441 -1.1699  0.6530
35331SOL    HW2 9782   3.170   6.275   9.972 -0.7577  0.3189  0.6610
35332SOL     OW 9783   1.475   9.800   2.918 -0.4525 -0.1929  0.1119
35332SOL    HW1 9784   1.564   9.793   2.883 -0.2707  0.1535  0.4853
35332SOL    HW2 9785   1.453   9.711   2.944 -0.1187 -0.2444  0.2324
35333SOL     OW 9786   6.017   9.613   3.237 -0.2610  0.1628 -0.9047
35333SOL    HW1 9787   6.058   9.544   3.185 -1.9447 -1.2362 -0.4579
35333SOL    HW2 9788   6.016   9.689   3.179  0.7518 -0.4470 -1.7623
35334SOL     OW 9789   2.217   3.422  10.187 -0.7442  0.5052 -0.6931
35334SOL    HW1 9790   2.252   3.347  10.234 -1.0390  0.1102 -1.0994
35334SOL    HW2 9791   2.281   3.492  10.202 -0.1261 -0.0175 -0.8745
35335SOL     OW 9792   2.671   1.469   9.788  0.1711 -0.3044  0.0006
35335SOL    HW1 9793   2.767   1.471   9.790  0.1980 -0.9155 -0.4440
35335SOL    HW2 9794   2.645   1.487   9.878  0.6986  0.0487  0.0904
35336SOL     OW 9795   9.568   7.553   3.610 -0.1147 -0.1521 -0.5250
35336SOL    HW1 9796   9.625   7.523   3.680  0.0439 -0.3792 -0.7477
35336SOL    HW2 9797   9.605   7.638   3.585 -0.8292  0.4459  0.4065
35337SOL     OW 9798   8.252   4.996   5.741 -0.2855  0.2256  0.4201
35337SOL    HW1 9799   8.286   5.085   5.745 -0.1026  0.1922 -0.2766
35337SOL    HW2 9800   8.288   4.953   5.819  1.0301  0.2828 -0.1240
35338SOL     OW 9801   5.033   0.281   6.031  0.0437  0.5557 -0.2154
35338SOL    HW1 9802   5.083   0.229   5.967  1.9608  2.5852 -0.5097
35338SOL    HW2 9803   5.100   0.325   6.083 -1.4982  0.8162  1.6376
35339SOL     OW 9804   8.874   8.062   6.160  0.7530  0.0864 -0.1097
35339SOL    HW1 9805   8.804   8.010   6.200  0.9570 -0.5438 -0.5475
35339SOL    HW2 9806   8.949   8.051   6.219  0.9306 -0.5022 -0.4357
35340SOL     OW 9807   8.820   1.377  10.357  0.2336  0.4707 -0.7110
35340SOL    HW1 9808   8.744   1.385  10.414  1.2276  1.1234  0.5847
35340SOL    HW2 9809   8.885   1.330  10.410  0.6162 -0.4124 -1.9239
35341SOL     OW 9810   2.446   0.798   5.944 -0.7644 -0.6336  0.0187
35341SOL    HW1 9811   2.539   0.820   5.953 -0.8359  0.1455 -0.9437
35341SOL    HW2 9812   2.415   0.789   6.034  0.1743 -0.5784  0.3600
35342SOL     OW 9813   4.566  10.079   6.142 -0.1044 -0.5392 -0.6531
35342SOL    HW1 9814   4.634  10.015   6.119 -0.4516 -1.4680  0.7277
35342SOL    HW2 9815   4.490  10.026   6.163 -0.8513  0.4245 -0.8657
35343SOL     OW 9816   8.620   5.732   8.346 -0.0502 -0.4923 -0.1052
35343SOL    HW1 9817   8.653   5.809   8.301  0.8004 -1.1781 -0.6871
35343SOL    HW2 9818   8.551   5.765   8.404 -1.4595  0.3997 -2.1581
35344SOL     OW 9819   8.817   6.040   2.473  0.0674 -0.7982  0.3784
35344SOL    HW1 9820   8.822   6.069   2.381  0.5769 -1.2793  0.2515
35344SOL    HW2 9821   8.742   5.981   2.475 -0.5997  0.0266  0.5064
35345SOL     OW 9822   1.011   9.222   6.437 -0.3672  0.0517  0.0403
35345SOL    HW1 9823   1.097   9.186   6.417 -0.1248  0.7961 -0.2885
35345SOL    HW2 9824   1.016   9.249   6.529  0.2506  1.4309 -0.3634
35346SOL     OW 9825   8.514   1.640   3.979  0.7869 -0.5290 -0.1979
35346SOL    HW1 9826   8.545   1.637   4.070  1.5699 -0.4263 -0.4529
35346SOL    HW2 9827   8.431   1.592   3.980  1.2122 -1.2625  0.4018
35347SOL     OW 9828   5.749  10.119   8.732 -0.2778 -0.3675 -0.1065
35347SOL    HW1 9829   5.670  10.174   8.736  0.5641  0.8284  1.6348
35347SOL    HW2 9830   5.796  10.140   8.812  1.4726 -1.6070 -0.7539
35348SOL     OW 9831   0.582   4.484   3.660 -0.2449  0.2182  0.1883
35348SOL    HW1 9832   0.619   4.563   3.701  1.3921 -0.0864 -0.6149
35348SOL    HW2 9833   0.586   4.418   3.729 -2.1985  0.9274  1.0683
35349SOL     OW 9834   1.661   2.988   4.619  0.3384  0.1152  0.2308
35349SOL    HW1 9835   1.673   2.905   4.665 -0.0792  0.2510  0.5854
35349SOL    HW2 9836   1.731   2.989   4.553 -1.8492 -2.3209 -2.4121
35350SOL     OW 9837   2.224   3.981   3.720 -0.2297 -0.2342  0.0928
35350SOL    HW1 9838   2.271   3.910   3.765 -0.9181 -0.3479  0.6611
35350SOL    HW2 9839   2.283   4.057   3.728  0.7803 -0.8675 -1.0431
35351SOL     OW 9840   1.234   6.781   7.723  0.0950  0.1385 -0.3598
35351SOL    HW1 9841   1.286   6.706   7.751 -0.2317 -0.3623 -1.0475
35351SOL    HW2 9842   1.195   6.815   7.803  0.1004 -0.5396 -0.0646
35352SOL     OW 9843   1.136   4.726   6.524  0.3235  0.3870 -0.0770
35352SOL    HW1 9844   1.066   4.764   6.471 -1.3763  0.0074  1.7597
35352SOL    HW2 9845   1.201   4.796   6.532 -0.4161  1.1807 -0.8135
35353SOL     OW 9846   7.729   2.934   1.991 -0.0832  0.2237  0.2884
35353SOL    HW1 9847   7.681   3.003   2.038  0.6595 -0.4316  2.1119
35353SOL    HW2 9848   7.820   2.946   2.019 -0.0156 -1.7750  1.0371
35354SOL     OW 9849   3.635   2.651   5.802 -0.0547  0.0406  0.2310
35354SOL    HW1 9850   3.558   2.708   5.789 -1.4803 -1.7907  0.1684
35354SOL    HW2 9851   3.656   2.661   5.894 -0.7805  0.0922  0.4033
35355SOL     OW 9852   2.349   5.381  10.298  0.3762 -0.1838 -0.1941
35355SOL    HW1 9853   2.426   5.394  10.243  0.8640 -0.7622  0.3344
35355SOL    HW2 9854   2.323   5.469  10.325  0.1514  0.1103 -1.3002
35356SOL     OW 9855   1.477   0.801   7.401 -0.2228 -0.2202 -0.2390
35356SOL    HW1 9856   1.450   0.890   7.379 -0.4362 -0.0806  0.5544
35356SOL    HW2 9857   1.468   0.796   7.496  0.7057 -0.7822 -0.1624
35357SOL     OW 9858   2.222   5.509   4.780  0.1755  0.5043 -0.0998
35357SOL    HW1 9859   2.276   5.577   4.820 -0.4590  0.1460  1.4572
35357SOL    HW2 9860   2.274   5.475   4.708  0.1224  3.2926 -1.5911
35358SOL     OW 9861   5.000   4.592   7.076 -0.0085 -0.0012 -0.5551
35358SOL    HW1 9862   5.079   4.588   7.023 -0.7753  0.9776 -1.8414
35358SOL    HW2 9863   4.944   4.523   7.042  0.3639 -0.8444  0.5066
35359SOL     OW 9864   8.975   1.397   6.365 -0.0854 -0.0644  0.0230
35359SOL    HW1 9865   8.893   1.348   6.373 -0.7708  1.0130 -0.0343
35359SOL    HW2 9866   8.951   1.474   6.313 -0.0299  2.2992  3.2130
35360SOL     OW 9867   8.130   8.986   7.935 -0.1922  0.0685 -0.8390
35360SOL    HW1 9868   8.047   9.035   7.936 -0.2237  0.0109 -0.6113
35360SOL    HW2 9869   8.109   8.903   7.978  0.1129  0.2639 -0.3154
35361SOL     OW 9870   1.152   5.383   4.049  0.2265 -0.0083 -0.0385
35361SOL    HW1 9871   1.087   5.426   4.104  2.4946  1.4380  1.7508
35361SOL    HW2 9872   1.157   5.437   3.970  1.1075  1.5534  1.0158
35362SOL     OW 9873   2.036   4.877   2.895  0.1848 -0.4350  0.4672
35362SOL    HW1 9874   2.027   4.949   2.958  0.0653 -1.4383  1.6333
35362SOL    HW2 9875   1.959   4.885   2.839 -0.0038  0.1486  0.7958
35363SOL     OW 9876   0.618   7.381   4.312  0.4031 -0.1801  0.0138
35363SOL    HW1 9877   0.546   7.444   4.306  0.4537 -0.1170  0.0699
35363SOL    HW2 9878   0.695   7.429   4.281  0.2867 -0.4663 -0.7293
35364SOL     OW 9879  10.006   7.729   2.243 -0.1782  0.1201  0.0822
35364SOL    HW1 9880   9.962   7.720   2.158 -0.3096 -0.7369  0.2307
35364SOL    HW2 9881  10.014   7.639   2.275  1.3561  0.2882  0.2287
35365SOL     OW 9882   0.344   2.941   3.331  0.2883  0.0493 -0.1336
35365SOL    HW1 9883   0.390   2.998   3.392  1.6384 -0.4774 -0.6223
35365SOL    HW2 9884   0.410   2.878   3.302 -0.6320 -0.4606 -1.2060
35366SOL     OW 9885   3.462   8.564   0.975 -0.3040  0.3338 -0.4798
35366SOL    HW1 9886   3.489   8.526   0.891 -1.7093  1.8126 -1.6537
35366SOL    HW2 9887   3.373   8.532   0.988  0.0471 -0.2212  0.6951
35367SOL     OW 9888   4.517  10.297   2.041  0.3224 -0.0437  0.4365
35367SOL    HW1 9889   4.455  10.260   2.103  0.9277 -0.1035  1.0222
35367SOL    HW2 9890   4.568  10.222   2.011 -1.2055 -0.3415 -1.6264
35368SOL     OW 9891   4.894   4.983   5.595  0.3898 -0.0381  0.2480
35368SOL    HW1 9892   4.839   4.922   5.547  0.8688 -0.7659  0.6132
35368SOL    HW2 9893   4.837   5.058   5.612 -0.2276 -0.4181 -0.1225
35369SOL     OW 9894   3.403   5.903   3.276 -0.0771  0.1587 -0.2970
35369SOL    HW1 9895   3.317   5.861   3.270 -0.2266  0.5832 -1.3988
35369SOL    HW2 9896   3.454   5.862   3.206  0.1661  0.9210 -0.5758
35370SOL     OW 9897   3.390   1.878   6.137  0.1462 -0.4006 -0.1728
35370SOL    HW1 9898   3.356   1.944   6.076  1.6598 -0.0777 -0.7204
35370SOL    HW2 9899   3.405   1.926   6.218 -0.1706 -0.4162 -0.1048
35371SOL     OW 9900   6.963   6.226   7.521 -0.1705  0.0237 -0.4195
35371SOL    HW1 9901   7.024   6.226   7.447  1.5376  0.4290  0.9431
35371SOL    HW2 9902   6.995   6.295   7.579 -2.0548  0.3863  0.2796
35372SOL     OW 9903   5.612   9.672   0.501  0.3497  0.3315  0.5134
35372SOL    HW1 9904   5.577   9.583   0.512  0.3023  0.5509  2.6784
35372SOL    HW2 9905   5.535   9.729   0.514  0.0846  0.7202 -2.2671
35373SOL     OW 9906   2.860   7.847   6.063 -0.0252 -0.0367 -0.0638
35373SOL    HW1 9907   2.843   7.890   6.147 -0.0123  2.0762 -1.0996
35373SOL    HW2 9908   2.793   7.879   6.004  1.1864  0.1352 -1.4083
35374SOL     OW 9909   5.353   4.409   0.986  0.1858 -0.7523 -0.5495
35374SOL    HW1 9910   5.439   4.367   0.982  0.9887  0.7598 -0.0862
35374SOL    HW2 9911   5.323   4.410   0.895  1.1150 -0.4267 -0.8686
35375SOL     OW 9912  10.034   6.649   8.487 -0.2817 -0.1717 -0.1444
35375SOL    HW1 9913   9.989   6.727   8.519 -0.6963  0.6257 -2.4737
35375SOL    HW2 9914   9.965   6.584   8.474 -0.2435 -0.2010 -0.2029
35376SOL     OW 9915   0.179   0.551   9.278  0.0046 -0.0426 -0.2139
35376SOL    HW1 9916   0.179   0.632   9.227  0.5916  0.1085  0.0250
35376SOL    HW2 9917   0.233   0.570   9.355  1.0234 -0.9680 -0.6683
35377SOL     OW 9918   0.590   7.050   6.828 -0.4973  0.2244  0.7388
35377SOL    HW1 9919   0.634   7.133   6.815 -0.0111 -0.0464  0.6487
35377SOL    HW2 9920   0.502   7.074   6.859 -0.9911  0.8169 -1.0202
35378SOL     OW 9921   9.085   0.287   3.707  0.1643 -0.3001  0.5897
35378SOL    HW1 9922   9.174   0.285   3.672 -0.4636  2.1063 -1.4001
35378SOL    HW2 9923   9.096   0.324   3.795  1.1782 -0.5035  0.5696
35379SOL     OW 9924  10.200   1.211   6.434  0.2511  0.1729 -0.3494
35379SOL    HW1 9925  10.230   1.254   6.514  2.6219  1.4067 -1.7924
35379SOL    HW2 9926  10.122   1.260   6.408  0.5220  0.9232  0.2365
35380SOL     OW 9927   4.806   5.981   3.654  0.5206  0.2108 -0.2450
35380SOL    HW1 9928   4.749   5.961   3.580 -2.2241  1.8161  1.2788
35380SOL    HW2 9929   4.799   5.904   3.711 -2.9812  1.5833  1.4740
35381SOL     OW 9930   7.591   5.675   7.602  0.4234  0.4004  0.0715
35381SOL    HW1 9931   7.680   5.642   7.600  0.7516  1.2029  0.8258
35381SOL    HW2 9932   7.537   5.597   7.613  1.0138 -0.0974 -0.4548
35382SOL     OW 9933   3.398   1.866   3.576 -0.1390 -0.2201 -0.2104
35382SOL    HW1 9934   3.358   1.844   3.492 -0.3655  0.9131 -0.4081
35382SOL    HW2 9935   3.486   1.827   3.571 -0.3319 -0.6032 -0.7546
35383SOL     OW 9936   1.874   8.024   4.575 -0.0186 -0.7605  0.1682
35383SOL    HW1 9937   1.863   7.975   4.494  0.6532 -0.9642  0.1971
35383SOL    HW2 9938   1.927   7.967   4.631  1.6385  0.3880 -0.1664
35384SOL     OW 9939   2.247   9.207   8.197  0.6739  0.2243  0.3202
35384SOL    HW1 9940   2.291   9.288   8.223  1.4743  0.2421 -1.0005
35384SOL    HW2 9941   2.154   9.231   8.195  0.7607  0.7088  1.3004
35385SOL     OW 9942   0.713   0.605   4.518 -0.0214  0.1751 -0.0087
35385SOL    HW1 9943   0.659   0.578   4.592  1.4610 -1.8680  0.4322
35385SOL    HW2 9944   0.722   0.526   4.464 -0.2979  1.3726 -1.9150
35386SOL     OW 9945   6.374   0.774   8.875 -0.3181 -0.3178  0.0141
35386SOL    HW1 9946   6.296   0.769   8.930  0.1363 -0.8563  0.6392
35386SOL    HW2 9947   6.446   0.779   8.938  0.2372 -1.3876 -0.5161
35387SOL     OW 9948   5.395   2.247   8.713 -0.1070  0.6088 -0.1569
35387SOL    HW1 9949   5.448   2.178   8.753 -0.7952 -0.1752 -0.5610
35387SOL    HW2 9950   5.364   2.209   8.631 -0.9628  1.1930 -0.1170
35388SOL     OW 9951   8.251   5.784   7.597  0.3448  0.0511  0.1459
35388SOL    HW1 9952   8.178   5.766   7.656 -0.5978 -0.7983 -1.2088
35388SOL    HW2 9953   8.321   5.725   7.626 -0.9661 -2.2257 -1.0543
35389SOL     OW 9954   9.796   2.028   3.301 -0.4086  0.1321 -0.4846
35389SOL    HW1 9955   9.713   2.037   3.347 -1.6878  1.2943 -2.8486
35389SOL    HW2 9956   9.793   1.941   3.261 -0.2444 -0.0158 -0.1844
35390SOL     OW 9957   0.214   2.187   3.643  1.0873  0.8450  0.2818
35390SOL    HW1 9958   0.206   2.104   3.596  0.4516  0.9128  0.2644
35390SOL    HW2 9959   0.303   2.186   3.678  1.4747  0.6666 -0.6830
35391SOL     OW 9960   8.563   5.103   3.755  0.0473  0.2048 -0.2564
35391SOL    HW1 9961   8.486   5.150   3.721  0.4835  0.3785 -1.0353
35391SOL    HW2 9962   8.558   5.017   3.713  0.6299  0.4443 -0.8345
35392SOL     OW 9963   7.508   1.502   9.438 -0.3498 -0.0738  0.2246
35392SOL    HW1 9964   7.432   1.543   9.479 -1.6912 -2.4635  0.3308
35392SOL    HW2 9965   7.500   1.523   9.345 -0.0525  1.2461  0.4771
35393SOL     OW 9966   1.973   5.823   3.762  0.1089  0.3298  0.8389
35393SOL    HW1 9967   2.050   5.874   3.738  1.7371 -3.1189 -2.4198
35393SOL    HW2 9968   2.006   5.758   3.824  0.5085 -2.1574 -1.7201
35394SOL     OW 9969   4.457   1.371  10.252  0.4585  0.2978  0.2974
35394SOL    HW1 9970   4.490   1.454  10.220 -0.8687 -0.0614 -2.2350
35394SOL    HW2 9971   4.446   1.384  10.346  4.4006  1.4994  0.7654
35395SOL     OW 9972   0.969   2.072   7.729  0.5894  0.0100 -0.2196
35395SOL    HW1 9973   0.984   2.067   7.823 -0.4725 -0.8809 -0.0693
35395SOL    HW2 9974   1.049   2.036   7.690  0.4579 -0.9927  0.3956
35396SOL     OW 9975   7.207   6.533   3.912  0.2220  0.5057  0.3874
35396SOL    HW1 9976   7.176   6.573   3.831 -0.3888  0.8380  0.7790
35396SOL    HW2 9977   7.127   6.507   3.958  0.4562  2.0668  1.7723
35397SOL     OW 9978   1.541   4.461   7.166  0.0236  0.2278 -0.2120
35397SOL    HW1 9979   1.534   4.549   7.128  0.2351  0.0389 -0.6982
35397SOL    HW2 9980   1.600   4.472   7.240 -0.7473  0.6892  0.3504
35398SOL     OW 9981   9.881   1.614   5.094 -0.2176  0.3251  0.3792
35398SOL    HW1 9982   9.938   1.654   5.160 -0.8261  0.3952  0.8760
35398SOL    HW2 9983   9.796   1.607   5.138 -0.1045 -1.6219  0.3448
35399SOL     OW 9984   6.828   4.220   3.753 -0.4543 -0.2204 -0.3336
35399SOL    HW1 9985   6.901   4.225   3.815 -1.4993 -1.9642  1.1758
35399SOL    HW2 9986   6.798   4.310   3.744  2.7677  0.7971 -2.2305
35400SOL     OW 9987   6.346   6.032   0.052  0.4456 -0.3675 -0.3307
35400SOL    HW1 9988   6.439   6.013   0.034  0.4630  0.7549 -1.6377
35400SOL    HW2 9989   6.344   6.126   0.068 -0.5966 -0.2078 -1.3229
35401SOL     OW 9990   5.506   0.011   0.418  0.6717  0.2208  0.0877
35401SOL    HW1 9991   5.415   0.009   0.390  0.4132  0.4790  0.8717
35401SOL    HW2 9992   5.538   0.098   0.394  0.1832  0.7778  1.3638
35402SOL     OW 9993   3.296   7.620   1.763  0.0918 -0.0690  0.6020
35402SOL    HW1 9994   3.348   7.605   1.842  2.3829  2.1939 -0.3548
35402SOL    HW2 9995   3.331   7.558   1.699 -1.3942 -1.5193  1.1246
35403SOL     OW 9996   3.285   6.520   9.071 -0.2294  0.4182 -0.2903
35403SOL    HW1 9997   3.212   6.496   9.129  0.0620  0.5275  0.1321
35403SOL    HW2 9998   3.296   6.444   9.015 -0.6207  0.3693 -0.3082
35404SOL     OW 9999   8.829   0.704   9.531 -0.1576 -0.2138  0.2246
35404SOL    HW110000   8.879   0.780   9.561  0.6466 -0.5194 -0.3094
35404SOL    HW210001   8.891   0.631   9.535 -0.7551 -0.7325  0.1784
35405SOL     OW10002   3.989   0.552   0.705  0.0408  0.5284  0.3462
35405SOL    HW110003   4.056   0.519   0.765  1.2829 -0.5639 -1.5368
35405SOL    HW210004   4.020   0.639   0.679  1.0256 -0.1443 -0.8490
35406SOL     OW10005   0.826   2.102   5.166 -0.0463  0.5524  0.1580
35406SOL    HW110006   0.851   2.036   5.101  0.0105 -0.8203  1.5141
35406SOL    HW210007   0.906   2.150   5.183  0.3373 -0.1582  0.4036
35407SOL     OW10008   1.423   6.481   4.859  0.3486  0.1776  0.4767
35407SOL    HW110009   1.350   6.450   4.913  0.3637  0.4990  0.6855
35407SOL    HW210010   1.464   6.549   4.912  2.1551 -1.4697  1.3532
35408SOL     OW10011   0.777   2.206   2.164  0.1453  0.0454 -0.3792
35408SOL    HW110012   0.786   2.283   2.220 -0.9755 -0.0155 -0.0900
35408SOL    HW210013   0.845   2.145   2.195 -1.6100 -0.7356  2.2049
35409SOL     OW10014   8.506   5.873   4.296  0.0159  0.1995 -0.8847
35409SOL    HW110015   8.498   5.828   4.212  0.1970 -0.1701 -0.7045
35409SOL    HW210016   8.484   5.806   4.361 -0.0742  0.4718 -0.6355
35410SOL     OW10017   0.847   0.100   6.245 -0.4070  1.1612  0.3844
35410SOL    HW110018   0.834   0.189   6.213  0.7100  1.0763 -0.3718
35410SOL    HW210019   0.880   0.052   6.169 -4.3048 -0.8425 -0.2819
35411SOL     OW10020   9.173   2.036   9.117 -0.0729  0.3672 -0.7674
35411SOL    HW110021   9.177   2.125   9.152  2.2330 -0.6610  1.9858
35411SOL    HW210022   9.246   2.031   9.056 -0.0094  0.2929 -0.6862
35412SOL     OW10023   1.963   9.976   7.584  0.1661  0.2531  0.1883
35412SOL    HW110024   1.929   9.915   7.649 -0.7560  0.1046 -0.4166
35412SOL    HW210025   1.988   9.919   7.510 -1.9909  0.6656 -0.9455
35413SOL     OW10026   2.801   0.929   3.305  0.2961 -1.1605 -0.1162
35413SOL    HW110027   2.709   0.907   3.319 -0.0309 -0.8203 -1.5938
35413SOL    HW210028   2.819   0.902   3.215  1.3021 -0.1069 -0.2479
35414SOL     OW10029   2.723   9.151   7.709  0.6799  0.5711 -0.2575
35414SOL    HW110030   2.770   9.109   7.781  0.2268  1.3064  0.4846
35414SOL    HW210031   2.751   9.243   7.712 -0.6965  1.0019  0.1378
35415SOL     OW10032   0.262   7.810   2.145  0.1140  0.2171  0.2300
35415SOL    HW110033   0.320   7.879   2.178  0.3800  0.0657  0.0815
35415SOL    HW210034   0.214   7.780   2.222 -0.3228  0.8756  0.2145
35416SOL     OW10035   8.187   4.330   5.028  0.1373 -0.2866  0.0828
35416SOL    HW110036   8.229   4.252   4.992  0.7934 -0.0070  0.2397
35416SOL    HW210037   8.255   4.373   5.080 -1.3574 -1.9075  3.7254
35417SOL     OW10038   1.517   7.286   8.038  0.1173  0.0980 -0.4662
35417SOL    HW110039   1.504   7.360   8.097  1.1165  1.1624 -1.5413
35417SOL    HW210040   1.543   7.213   8.095 -0.9475  0.5287  0.6092
35418SOL     OW10041   1.269   8.983   8.143 -0.3882  0.8499 -0.0084
35418SOL    HW110042   1.336   9.044   8.176 -1.3789  1.2026  1.4852
35418SOL    HW210043   1.241   8.934   8.220 -1.1339 -0.0039 -0.7945
35419SOL     OW10044   8.314   1.103   0.893  0.2354  0.1624  0.7307
35419SOL    HW110045   8.397   1.152   0.893 -0.6441  1.7384  1.9982
35419SOL    HW210046   8.266   1.138   0.818  0.5603 -0.5138  0.1958
35420SOL     OW10047   0.008   7.034   5.868 -0.6071 -0.7405  0.3583
35420SOL    HW110048   0.093   7.020   5.909 -0.3625  1.0304  0.5605
35420SOL    HW210049   0.029   7.060   5.778 -0.8140  0.8444  0.7234
35421SOL     OW10050   4.606   9.853   0.393  0.4755  0.0255 -0.1734
35421SOL    HW110051   4.567   9.938   0.411 -1.0318 -0.9178  1.3348
35421SOL    HW210052   4.562   9.793   0.453  1.0659 -1.9380 -1.5935
35422SOL     OW10053   0.862   8.214   9.034 -0.0655 -0.2496  0.1040
35422SOL    HW110054   0.937   8.252   9.079  0.2711 -1.4257  0.5731
35422SOL    HW210055   0.818   8.289   8.994  0.9205  0.5482  0.4602
35423SOL     OW10056   9.220   5.384   0.877 -0.6213  0.3124  0.0660
35423SOL    HW110057   9.137   5.350   0.843 -0.6318 -0.7977  1.1137
35423SOL    HW210058   9.197   5.468   0.916 -0.9885  0.6460 -0.8369
35424SOL     OW10059   9.572   5.132   8.219  0.2626 -0.3197 -0.4985
35424SOL    HW110060   9.530   5.094   8.142 -0.7702  0.4722 -0.3520
35424SOL    HW210061   9.662   5.150   8.191 -0.1711  0.1878 -1.6116
35425SOL     OW10062   7.608   5.609   2.791  0.1621 -0.1280  0.1846
35425SOL    HW110063   7.533   5.577   2.742 -0.3761 -0.8276  1.4275
35425SOL    HW210064   7.601   5.567   2.876  0.8510  1.3620  1.0169
35426SOL     OW10065   0.895   0.216   7.482 -0.0204  0.2311  0.6354
35426SOL    HW110066   0.927   0.145   7.538 -0.4019  0.8183  1.6402
35426SOL    HW210067   0.866   0.173   7.402 -0.5438 -0.8003  1.3521
35427SOL     OW10068   8.587   0.435   4.285 -0.1709  0.1267 -0.4481
35427SOL    HW110069   8.598   0.519   4.330 -0.5689  1.4497 -2.6641
35427SOL    HW210070   8.676   0.409   4.260 -0.1658  0.5468 -0.8692
35428SOL     OW10071   4.524   6.633   1.100  0.0909  0.2920 -0.2567
35428SOL    HW110072   4.523   6.686   1.020  0.3423  1.2139  0.3382
35428SOL    HW210073   4.539   6.696   1.170 -3.1685 -0.0375  0.8936
35429SOL     OW10074  10.190   3.766   5.384 -0.2861  0.6434 -0.3268
35429SOL    HW110075  10.266   3.709   5.376 -0.4747  0.2523  0.5435
35429SOL    HW210076  10.126   3.730   5.323 -0.5376 -0.3211  0.4734
35430SOL     OW10077   9.522   2.380   3.813 -0.3360 -0.7562  0.1022
35430SOL    HW110078   9.436   2.341   3.801 -0.6778  0.1480 -0.4121
35430SOL    HW210079   9.553   2.343   3.896  0.2588 -3.7431 -1.3316
35431SOL     OW10080  10.206   5.454   3.892  0.2381 -0.6173 -0.5410
35431SOL    HW110081  10.218   5.477   3.800 -1.3452 -0.3082 -0.6967
35431SOL    HW210082  10.288   5.411   3.917  2.2859  2.6147 -1.0410
35432SOL     OW10083   5.831   0.833   7.477 -0.3581 -0.5939  0.1096
35432SOL    HW110084   5.736   0.847   7.473 -0.4231 -0.6563  1.1925
35432SOL    HW210085   5.844   0.782   7.557  0.5354 -1.1041 -0.3451
35433SOL     OW10086   3.657   5.595   7.461 -0.1044 -0.5737 -1.4252
35433SOL    HW110087   3.639   5.656   7.532  0.1998  0.8215 -2.5017
35433SOL    HW210088   3.583   5.606   7.401 -1.4478 -3.2323 -0.4212
35434SOL     OW10089  10.154   6.181   5.552  0.1320  0.2935  0.0069
35434SOL    HW110090  10.239   6.224   5.567  0.2274  0.0307  0.2467
35434SOL    HW210091  10.146   6.174   5.457 -0.2098  1.4781 -0.0556
35435SOL     OW10092   2.965   5.408  10.038 -0.0396 -0.2252  0.2086
35435SOL    HW110093   2.921   5.456  10.107  0.3475 -0.6047  0.7320
35435SOL    HW210094   3.004   5.333  10.082  2.2510  0.7733  0.0252
35436SOL     OW10095   9.029   6.971   9.813 -0.5031 -0.1149 -0.0458
35436SOL    HW110096   8.967   6.986   9.741  1.1184  0.6973 -1.3411
35436SOL    HW210097   9.007   6.884   9.845 -1.7526 -0.2057 -1.0392
35437SOL     OW10098   2.752   0.656   5.035  0.4722 -0.6227 -0.1247
35437SOL    HW110099   2.777   0.586   5.095  0.6609 -1.1279 -0.7770
35437SOL    HW210100   2.691   0.614   4.974 -0.2259  0.0447  0.1045
35438SOL     OW10101   1.237   4.008   7.253 -0.2516 -0.3928 -0.2786
35438SOL    HW110102   1.267   4.098   7.268  0.1282 -0.4175 -0.8739
35438SOL    HW210103   1.262   3.989   7.163 -0.8747 -0.8858 -0.3527
35439SOL     OW10104   6.074   9.618   4.059 -0.3628 -0.3260 -0.1453
35439SOL    HW110105   5.982   9.633   4.081 -0.0744 -1.2888  1.9631
35439SOL    HW210106   6.123   9.664   4.127  0.6791 -1.0705 -0.3600
35440SOL     OW10107   0.417   0.963   5.772  0.1041 -0.0249  0.3375
35440SOL    HW110108   0.468   0.916   5.706  0.5682  1.9244 -0.7656
35440SOL    HW210109   0.443   1.054   5.761 -3.5378  1.0865 -0.1932
35441SOL     OW10110   9.170   5.636   9.005 -0.6629  0.3960  0.2270
35441SOL    HW110111   9.214   5.707   8.957  2.2859 -0.7942  0.9611
35441SOL    HW210112   9.156   5.673   9.092  0.8110  0.1684  0.5914
35442SOL     OW10113  10.255   8.456   5.183  0.1765  0.3213 -0.5835
35442SOL    HW110114  10.172   8.477   5.227  0.8454 -0.6697  1.2223
35442SOL    HW210115  10.247   8.363   5.161  0.6697  0.3108 -0.7172
35443SOL     OW10116   3.498   8.714   5.213  0.1055 -0.1138 -0.3020
35443SOL    HW110117   3.453   8.667   5.283 -0.9430  2.0713  0.5684
35443SOL    HW210118   3.506   8.649   5.143 -2.4097 -1.2371  0.3373
35444SOL     OW10119   6.679   3.132   3.872 -0.3106 -0.2105 -0.2656
35444SOL    HW110120   6.598   3.169   3.906 -0.2858  0.5847 -1.0071
35444SOL    HW210121   6.661   3.039   3.859 -0.7973 -0.2168  0.4432
35445SOL     OW10122   6.433   8.252   2.244 -0.1248 -0.6743 -0.4170
35445SOL    HW110123   6.343   8.267   2.217 -0.5962 -0.0854  1.3106
35445SOL    HW210124   6.486   8.284   2.171 -1.2772  1.6399 -0.3281
35446SOL     OW10125   5.456   7.162   7.127  0.7045 -0.7898 -0.1273
35446SOL    HW110126   5.521   7.232   7.127 -0.8704  0.7470  0.9058
35446SOL    HW210127   5.372   7.207   7.132 -0.4684 -2.7245 -1.1045
35447SOL     OW10128   2.651   8.022   8.898  0.1561 -0.1223  0.1111
35447SOL    HW110129   2.557   8.024   8.877  0.3044  0.6950 -0.5222
35447SOL    HW210130   2.693   8.056   8.819  1.0133 -0.8103  0.2591
35448SOL     OW10131   1.540   6.701   6.245  1.0175  0.5583 -0.1555
35448SOL    HW110132   1.532   6.706   6.150  0.3006  0.0776 -0.1289
35448SOL    HW210133   1.615   6.643   6.259  0.5353 -0.1569 -0.4423
35449SOL     OW10134  10.330   0.587   2.234 -0.4191 -0.1773  0.7515
35449SOL    HW110135  10.307   0.579   2.141 -0.6260 -0.6996  0.8429
35449SOL    HW210136  10.426   0.585   2.234 -0.3142  2.2495  0.3523
35450SOL     OW10137   7.582   4.263   3.070  0.2329 -0.1497  0.0398
35450SOL    HW110138   7.559   4.202   3.001  0.0655 -0.9080  0.7494
35450SOL    HW210139   7.501   4.311   3.088  0.0751 -0.4850  0.2318
35451SOL     OW10140   1.115   5.954   9.170 -0.1253 -0.1454  0.0792
35451SOL    HW110141   1.172   5.877   9.159 -0.9621 -0.7277 -0.3382
35451SOL    HW210142   1.066   5.936   9.250 -2.0701 -1.2546 -1.2577
35452SOL     OW10143   7.061   7.003   3.113  0.4368 -0.2795 -0.0287
35452SOL    HW110144   6.966   7.005   3.102  0.1356 -0.9547  2.0010
35452SOL    HW210145   7.074   6.956   3.196  2.4742  1.0922  0.4906
35453SOL     OW10146   0.251   1.191   6.934 -0.5077  0.0745 -0.5468
35453SOL    HW110147   0.240   1.132   6.860  1.6321  0.2218 -1.0595
35453SOL    HW210148   0.274   1.134   7.007  0.1125  0.1286 -0.6906
35454SOL     OW10149   1.924   6.510   1.741 -0.7206 -0.3356 -0.2602
35454SOL    HW110150   1.873   6.561   1.678 -2.8993 -1.7860  0.2367
35454SOL    HW210151   1.955   6.575   1.804 -0.0283  0.8842 -1.7856
35455SOL     OW10152   6.746   8.506   1.888 -0.3625  0.1449  0.1217
35455SOL    HW110153   6.724   8.594   1.916  1.9029  0.8648 -0.1831
35455SOL    HW210154   6.679   8.483   1.823 -0.5539  1.9475 -0.3571
35456SOL     OW10155   2.020   7.082   6.321  0.1851  0.3775 -0.0507
35456SOL    HW110156   2.018   7.069   6.416  1.0523 -0.6948 -0.1567
35456SOL    HW210157   1.987   7.000   6.285  1.5917  0.0521 -0.6891
35457SOL     OW10158   9.136   9.237   7.334 -0.4007  0.2945  0.5575
35457SOL    HW110159   9.182   9.268   7.412 -0.0785 -0.2484  0.5854
35457SOL    HW210160   9.063   9.186   7.367  0.6296 -1.2735  0.5326
35458SOL     OW10161   6.622   6.776   6.486 -0.1216  0.3229  0.6367
35458SOL    HW110162   6.716   6.774   6.468 -0.2636 -0.7623 -0.0878
35458SOL    HW210163   6.612   6.721   6.564 -0.5150 -2.6743 -1.3670
35459SOL     OW10164   9.760   9.485   1.978 -0.9761 -0.4886  0.0111
35459SOL    HW110165   9.758   9.414   1.914  0.6302 -0.2009 -0.3997
35459SOL    HW210166   9.781   9.441   2.061  0.6515 -0.4644 -0.3534
35460SOL     OW10167   4.178   8.108   3.024 -0.0304 -0.5716  0.1044
35460SOL    HW110168   4.135   8.120   3.109  0.7259  0.5722  0.3451
35460SOL    HW210169   4.194   8.014   3.019 -0.6942 -0.7446  0.9254
35461SOL     OW10170   7.718   5.856   5.118 -0.1574 -0.2042  0.1499
35461SOL    HW110171   7.797   5.884   5.071  0.2819  0.8991  1.4899
35461SOL    HW210172   7.736   5.877   5.209 -2.4843  1.2110  0.3400
35462SOL     OW10173   3.277   9.316   6.726  0.0329 -0.3231  0.0310
35462SOL    HW110174   3.256   9.235   6.679 -1.1697  0.6915 -1.2767
35462SOL    HW210175   3.203   9.374   6.708  0.4976  0.8238  1.5675
35463SOL     OW10176   7.098   0.636   0.113  0.4830  0.1201  0.3090
35463SOL    HW110177   7.183   0.661   0.078  0.3804  1.5430  1.0275
35463SOL    HW210178   7.092   0.681   0.197 -0.9388 -0.0264  0.3091
35464SOL     OW10179   9.634   7.127   9.446  0.4557 -0.3030  0.0432
35464SOL    HW110180   9.584   7.137   9.365  1.1861 -1.1631 -0.5329
35464SOL    HW210181   9.570   7.095   9.510  0.5669 -3.3104 -1.1807
35465SOL     OW10182   5.200   0.688   7.458 -0.0948  0.0983 -0.2762
35465SOL    HW110183   5.232   0.774   7.429  0.1592  0.2242  0.3638
35465SOL    HW210184   5.120   0.674   7.407 -2.5933  2.6543  2.5499
35466SOL     OW10185   0.207   3.139   0.865  0.1583  0.5513 -0.3437
35466SOL    HW110186   0.143   3.189   0.815  0.8418  1.5454 -0.2552
35466SOL    HW210187   0.254   3.205   0.916 -0.0278 -0.3467  1.0626
35467SOL     OW10188   1.127   7.602   0.643  0.3365 -0.4975 -0.0232
35467SOL    HW110189   1.207   7.652   0.628  0.1320  0.1840  1.0140
35467SOL    HW210190   1.081   7.651   0.711 -0.3190 -1.6125  0.3600
35468SOL     OW10191   3.739   3.039   2.894 -0.1517 -0.3246 -0.3029
35468SOL    HW110192   3.766   3.103   2.960  3.2554 -0.6616 -1.1766
35468SOL    HW210193   3.728   3.090   2.814  0.6738 -0.5235 -0.5585
35469SOL     OW10194   2.617  10.158   5.786 -0.6552 -0.0623 -0.2406
35469SOL    HW110195   2.615  10.218   5.713 -0.8307 -0.9509 -0.9864
35469SOL    HW210196   2.677  10.088   5.758  1.5011  0.9150  1.5419
35470SOL     OW10197   3.247  10.159   4.784 -0.0130  0.1214 -0.4281
35470SOL    HW110198   3.276  10.090   4.843 -0.4437  0.8795  0.6947
35470SOL    HW210199   3.166  10.192   4.823 -1.7143 -1.0276 -2.7605
35471SOL     OW10200   2.290   1.920   7.889 -0.1834  0.2701 -0.0406
35471SOL    HW110201   2.304   2.011   7.861 -0.0326  0.6563  1.2345
35471SOL    HW210202   2.375   1.892   7.924 -0.2516 -0.3459 -0.3493
35472SOL     OW10203   0.820   9.487   2.756 -0.4783  0.3176  0.0585
35472SOL    HW110204   0.822   9.555   2.823 -0.7393 -0.9811  1.4278
35472SOL    HW210205   0.911   9.475   2.729 -0.3488  0.6952  0.3381
35473SOL     OW10206   9.322   9.654   1.884  0.1480  0.3276  0.2378
35473SOL    HW110207   9.300   9.747   1.880 -0.1096  0.2634  0.1272
35473SOL    HW210208   9.292   9.626   1.970 -2.2349 -0.2523 -0.7019
35474SOL     OW10209   0.350   5.693   9.191 -0.3567 -0.1605  0.5595
35474SOL    HW110210   0.258   5.706   9.212  0.0498  2.1132  1.1039
35474SOL    HW210211   0.398   5.727   9.267  0.9531 -0.1481 -0.2369
35475SOL     OW10212   4.502   8.316   2.037  0.1490 -0.0887 -0.1566
35475SOL    HW110213   4.409   8.331   2.051  0.4323  0.7424  0.9422
35475SOL    HW210214   4.516   8.335   1.944 -0.7595 -0.1858 -0.3168
35476SOL     OW10215   4.477   2.003   3.587 -0.0423  0.0427  0.6853
35476SOL    HW110216   4.542   1.935   3.609  0.3389  0.4127  0.7195
35476SOL    HW210217   4.528   2.084   3.581 -0.5024  0.3380  0.6937
35477SOL     OW10218   3.661   1.154   2.482 -0.4067  0.2275  0.5706
35477SOL    HW110219   3.736   1.131   2.427  0.3073 -0.6750  1.8691
35477SOL    HW210220   3.585   1.122   2.433  0.3228 -2.0623  0.8184
35478SOL     OW10221   4.197  10.170  10.211 -0.1027  0.8617  0.7657
35478SOL    HW110222   4.140  10.179  10.135  1.4546 -0.0612 -0.5890
35478SOL    HW210223   4.152  10.108  10.268 -0.9577  1.0160  0.2759
35479SOL     OW10224   4.079  10.005   0.044  0.2638  0.1068 -0.4913
35479SOL    HW110225   3.985   9.987   0.053  0.4991 -1.5774 -1.0424
35479SOL    HW210226   4.110  10.017   0.134 -0.6235  1.6602 -0.3545
35480SOL     OW10227  10.294   4.438   0.728  0.1196 -0.1549 -0.8012
35480SOL    HW110228  10.199   4.427   0.720  0.0200  0.3662 -0.4294
35480SOL    HW210229  10.315   4.402   0.815  0.3740 -0.8958 -1.1557
35481SOL     OW10230   2.325   0.460   8.347 -0.3438 -0.1374 -0.0059
35481SOL    HW110231   2.406   0.511   8.345 -0.2956 -0.2256 -0.3181
35481SOL    HW210232   2.256   0.525   8.335 -0.2805 -0.1452 -0.4396
35482SOL     OW10233   2.418   2.217   9.904  0.0676 -0.5920  0.2517
35482SOL    HW110234   2.413   2.309   9.877 -1.3857 -0.6520  0.2550
35482SOL    HW210235   2.330   2.183   9.892  0.3386 -1.7200  1.2145
35483SOL     OW10236   0.090   0.425   3.947  0.4542 -0.1732 -0.1014
35483SOL    HW110237   0.075   0.486   3.874  2.0975  0.1219 -0.2364
35483SOL    HW210238   0.111   0.482   4.021 -0.3305 -0.5063  0.3818
35484SOL     OW10239   0.367   5.333   1.852 -0.2701 -0.4694 -0.0936
35484SOL    HW110240   0.313   5.394   1.904 -3.4600 -2.7248 -0.4258
35484SOL    HW210241   0.429   5.297   1.915  0.1129  1.3626  0.6416
35485SOL     OW10242   7.894  10.038  10.150 -0.1461  0.2100 -0.0591
35485SOL    HW110243   7.901   9.943  10.148  0.7555  0.2247 -2.8252
35485SOL    HW210244   7.934  10.067  10.068 -1.0955  2.9365  0.3062
35486SOL     OW10245   0.261   5.499   4.767  0.4459 -0.1379  0.0163
35486SOL    HW110246   0.253   5.473   4.675 -0.1743 -0.4124  0.1480
35486SOL    HW210247   0.196   5.567   4.779  2.2380  1.7554 -0.3963
35487SOL     OW10248   3.588   1.315   1.049 -0.0047  0.5374  0.0544
35487SOL    HW110249   3.663   1.261   1.024 -0.5968 -0.5050  0.4802
35487SOL    HW210250   3.597   1.326   1.144 -0.3562  0.4621  0.0980
35488SOL     OW10251   3.777   1.260   3.400 -0.0551  0.1492  0.0452
35488SOL    HW110252   3.796   1.212   3.481  2.3835  1.7010  0.5050
35488SOL    HW210253   3.749   1.192   3.338  2.3790 -1.7982  0.8964
35489SOL     OW10254   6.056   5.029   5.476  0.1450 -0.0549 -0.2297
35489SOL    HW110255   5.984   5.073   5.521  0.2703 -0.2223  0.1393
35489SOL    HW210256   6.128   5.093   5.477  0.1416 -0.0514 -0.2110
35490SOL     OW10257   4.803   1.299   0.666 -0.3978 -0.0849  0.1917
35490SOL    HW110258   4.754   1.351   0.603  1.1744 -0.1545 -1.1685
35490SOL    HW210259   4.793   1.208   0.636 -0.7132 -0.2694  0.8289
35491SOL     OW10260   2.199   4.423   5.179  0.2034 -0.1874 -0.5136
35491SOL    HW110261   2.173   4.427   5.271 -0.2898 -0.5464 -0.6289
35491SOL    HW210262   2.185   4.512   5.147 -1.5910 -0.5154 -0.7398
35492SOL     OW10263   7.879   1.611   0.639 -0.7374  0.5110 -0.6100
35492SOL    HW110264   7.810   1.649   0.693 -0.8190 -0.3622 -0.0714
35492SOL    HW210265   7.839   1.531   0.603  0.4772 -0.8867  0.9998
35493SOL     OW10266   1.851   5.036   5.057  0.0165 -0.1360  0.8292
35493SOL    HW110267   1.815   5.017   4.971 -0.2894  1.6576  0.5132
35493SOL    HW210268   1.775   5.055   5.111  0.2466 -0.6026  1.3246
35494SOL     OW10269   0.937   4.323   3.817 -0.0627  0.1209  0.0094
35494SOL    HW110270   0.923   4.328   3.911  1.0379 -0.0842  0.1984
35494SOL    HW210271   0.858   4.280   3.783  0.5455 -1.9890  1.1155
35495SOL     OW10272   3.583   6.593   7.861 -0.4079  0.0133 -0.7101
35495SOL    HW110273   3.495   6.589   7.897 -0.5518  1.6472 -0.8185
35495SOL    HW210274   3.632   6.646   7.923 -0.5911  2.6691 -2.6951
35496SOL     OW10275   5.190   3.810   2.731  0.2584 -0.5491  0.6170
35496SOL    HW110276   5.217   3.805   2.639 -0.5806 -0.6027  0.3657
35496SOL    HW210277   5.173   3.719   2.756 -1.1004 -0.4007  0.3213
35497SOL     OW10278  10.315   6.915   0.459 -0.7875 -0.3175  0.0585
35497SOL    HW110279  10.331   6.883   0.370 -3.5198 -0.6031 -0.4155
35497SOL    HW210280  10.342   6.843   0.516  0.2036 -0.4544 -0.5735
35498SOL     OW10281   0.355   0.422   3.681  0.2656 -0.3776 -0.1881
35498SOL    HW110282   0.382   0.475   3.755 -0.9412  0.6515 -0.4417
35498SOL    HW210283   0.401   0.459   3.606  0.1009 -0.2547 -0.2289
35499SOL     OW10284   6.122   8.008   4.386 -0.2958  0.3829 -0.1885
35499SOL    HW110285   6.202   7.982   4.341 -0.3858  0.7073 -0.5375
35499SOL    HW210286   6.151   8.030   4.475  0.1600  1.4209 -0.5741
35500SOL     OW10287   1.275   8.346   0.799  0.1309 -0.1463 -0.0879
35500SOL    HW110288   1.305   8.337   0.889 -0.5693 -1.4792  0.0301
35500SOL    HW210289   1.223   8.427   0.799  1.9804  1.0992  0.1545
35501SOL     OW10290  10.122   8.086   8.099 -0.4836 -0.2179  0.6587
35501SOL    HW110291  10.121   8.170   8.053 -1.1792  0.6763  2.2138
35501SOL    HW210292  10.104   8.021   8.032  0.2193  0.8548 -0.6127
35502SOL     OW10293   1.356   4.879   1.021  0.3685  0.2194  0.1980
35502SOL    HW110294   1.438   4.929   1.015  1.3911 -1.4975 -0.8822
35502SOL    HW210295   1.339   4.873   1.115  2.2400 -0.5044  0.5386
35503SOL     OW10296   7.685   9.669   2.254 -0.5725 -0.1624 -0.7413
35503SOL    HW110297   7.716   9.639   2.169 -0.6970  0.8040 -1.1394
35503SOL    HW210298   7.593   9.689   2.240 -0.8363 -0.9047 -0.1282
35504SOL     OW10299   5.129   4.981   3.538 -0.5448 -0.1123 -0.1351
35504SOL    HW110300   5.102   5.058   3.488 -0.0701 -0.4600 -0.9514
35504SOL    HW210301   5.190   5.015   3.604 -0.7965  0.2885 -0.1068
35505SOL     OW10302   5.787   8.799   2.647 -0.0365  0.4935 -0.3346
35505SOL    HW110303   5.712   8.858   2.657  0.0651  0.5607  0.0469
35505SOL    HW210304   5.763   8.742   2.573 -0.9546 -0.2255  0.4899
35506SOL     OW10305   8.112  10.279   8.490  0.4909 -0.2586 -0.1725
35506SOL    HW110306   8.113  10.364   8.446  0.8625 -0.0915  0.1460
35506SOL    HW210307   8.051  10.226   8.439  0.4117  0.1349 -0.4953
35507SOL     OW10308   8.848   9.378   8.313  0.8054 -0.5237 -0.1272
35507SOL    HW110309   8.938   9.369   8.282 -0.0427 -1.7419 -2.4466
35507SOL    HW210310   8.813   9.289   8.309 -0.9506  0.1646 -0.7901
35508SOL     OW10311   4.135   0.282   8.002  0.0463 -0.2824 -0.3259
35508SOL    HW110312   4.189   0.203   7.996  1.6715  0.8419 -1.7323
35508SOL    HW210313   4.194   0.349   8.039 -0.8401  0.6103 -0.4834
35509SOL     OW10314   5.279   2.356   6.365 -0.2499 -0.2631 -0.0543
35509SOL    HW110315   5.212   2.299   6.328  0.0590 -1.2129  0.8082
35509SOL    HW210316   5.257   2.362   6.458  1.3607 -1.3572  0.4408
35510SOL     OW10317   2.833   6.913   3.666  0.4044  0.0889  0.7203
35510SOL    HW110318   2.832   7.006   3.688  1.1067  0.2989 -0.1049
35510SOL    HW210319   2.909   6.902   3.610 -0.2729 -0.7827 -0.0644
35511SOL     OW10320   6.491   8.072   2.947 -1.1841 -0.3582 -0.0952
35511SOL    HW110321   6.490   8.002   2.881 -1.8574 -0.4050 -0.0417
35511SOL    HW210322   6.577   8.064   2.988 -0.5821 -0.0662 -1.2504
35512SOL     OW10323   5.996   0.532   9.090  0.1343  0.6607 -0.6040
35512SOL    HW110324   6.029   0.578   9.167  2.1483 -1.2026 -0.2469
35512SOL    HW210325   6.007   0.593   9.018 -0.8796  2.0771  0.3898
35513SOL     OW10326   7.250   8.812   8.047 -0.0057  0.3201  0.0974
35513SOL    HW110327   7.298   8.741   8.004 -0.5650  0.2889 -0.4993
35513SOL    HW210328   7.292   8.821   8.132 -0.4346 -1.2665  0.5097
35514SOL     OW10329   2.530   1.292   5.880  0.4107 -0.7964 -0.4026
35514SOL    HW110330   2.491   1.373   5.848 -0.0941 -0.9396 -0.1643
35514SOL    HW210331   2.602   1.320   5.937  1.9730 -0.5415 -2.4107
35515SOL     OW10332   3.312   0.727   8.926 -0.4508 -0.2631 -0.7906
35515SOL    HW110333   3.251   0.757   8.994 -0.5231 -0.0292 -0.9545
35515SOL    HW210334   3.365   0.659   8.968 -0.3234  0.0586 -0.4236
35516SOL     OW10335   7.233   5.143   0.577  0.3071 -0.2913  0.3001
35516SOL    HW110336   7.242   5.048   0.581  1.4989 -0.1812  0.3191
35516SOL    HW210337   7.321   5.177   0.587 -0.0250  0.8073 -0.2702
35517SOL     OW10338   5.020   6.895   5.591 -0.6413  0.6141  0.3575
35517SOL    HW110339   4.941   6.915   5.540 -0.1173 -0.1639 -0.8203
35517SOL    HW210340   4.998   6.918   5.681 -1.9040  1.2382 -0.0902
35518SOL     OW10341  10.191   7.965   1.511  0.3583 -0.9699  0.2826
35518SOL    HW110342  10.119   7.902   1.508 -1.1692  0.7003  0.1622
35518SOL    HW210343  10.254   7.932   1.447 -1.4751 -1.1530 -1.5218
35519SOL     OW10344   0.242   6.966   5.971 -0.2428 -0.4576 -0.8288
35519SOL    HW110345   0.225   6.989   6.062 -0.3369 -0.5952 -0.8116
35519SOL    HW210346   0.209   6.877   5.962 -0.9535 -0.1594 -1.2088
35520SOL     OW10347   1.396   5.875   2.531  0.2906  0.4588  0.1062
35520SOL    HW110348   1.433   5.809   2.472  0.5286  0.2754  0.4553
35520SOL    HW210349   1.306   5.845   2.546 -0.1086  1.0544 -0.9643
35521SOL     OW10350   7.628   9.325   1.909  0.1519 -0.0445  0.1105
35521SOL    HW110351   7.641   9.412   1.948  1.6984 -0.1921 -0.0121
35521SOL    HW210352   7.609   9.343   1.817  0.8023  0.1548  0.0125
35522SOL     OW10353   7.722   2.795   2.392 -0.2021 -0.0911  0.0263
35522SOL    HW110354   7.778   2.825   2.320 -1.2001  0.6626 -0.4508
35522SOL    HW210355   7.693   2.875   2.435  1.0733 -0.5382  1.8557
35523SOL     OW10356   2.763   4.576   3.278 -0.1112  0.1297  0.3965
35523SOL    HW110357   2.858   4.564   3.278  0.2296  2.3038  1.1713
35523SOL    HW210358   2.742   4.597   3.187  0.5110  1.6604  0.5681
35524SOL     OW10359   6.850   8.772   8.620 -0.3649  0.5820 -0.0944
35524SOL    HW110360   6.847   8.850   8.676 -0.5448  0.3665  0.1997
35524SOL    HW210361   6.941   8.743   8.626 -0.3771  0.5750  0.0667
35525SOL     OW10362   4.911   3.778   9.170  0.5761 -0.0628  0.4365
35525SOL    HW110363   4.890   3.855   9.116  0.4495 -1.2778 -1.3161
35525SOL    HW210364   4.826   3.739   9.188  0.7441 -0.6579 -0.0322
35526SOL     OW10365  10.200   4.001   2.708 -0.2113 -0.2821  0.0334
35526SOL    HW110366  10.279   3.955   2.679  0.2459 -0.6914  1.7822
35526SOL    HW210367  10.150   4.016   2.628  0.9967 -1.2229 -0.9454
35527SOL     OW10368   6.558   1.136   2.790  0.3731  0.3672 -0.3151
35527SOL    HW110369   6.646   1.108   2.765  0.7126  0.4580  0.7049
35527SOL    HW210370   6.525   1.183   2.714  0.4563 -1.2956 -1.4212
35528SOL     OW10371   9.072   1.016   7.690 -0.2231  0.7518 -0.3671
35528SOL    HW110372   9.059   1.045   7.600  0.6594 -0.0400 -0.7676
35528SOL    HW210373   9.159   0.977   7.690 -1.0115 -1.1506  0.3230
35529SOL     OW10374   0.138  10.130   4.359  0.9534  0.6027  0.5603
35529SOL    HW110375   0.201  10.191   4.398  1.1539  2.2372 -2.0355
35529SOL    HW210376   0.189  10.080   4.295  0.0182  0.5083 -0.1342
35530SOL     OW10377   7.609   6.914   1.276 -0.0743 -0.8385 -0.2451
35530SOL    HW110378   7.672   6.843   1.268 -0.7753 -1.3516 -1.5570
35530SOL    HW210379   7.569   6.921   1.189 -2.4001 -1.1014  0.7161
35531SOL     OW10380   0.760   7.094   0.919 -0.4346 -0.0684  0.8114
35531SOL    HW110381   0.731   7.098   1.011  2.0918 -1.3479  1.7558
35531SOL    HW210382   0.721   7.013   0.885 -1.1428  0.2595  0.8240
35532SOL     OW10383   9.228   1.241   6.771  0.1764 -0.0719  0.5976
35532SOL    HW110384   9.141   1.280   6.765  0.1080 -0.1313  1.1588
35532SOL    HW210385   9.229   1.196   6.856 -0.4602 -3.0508 -0.8422
35533SOL     OW10386   6.757  10.314   6.457  0.4863 -0.1164 -0.0675
35533SOL    HW110387   6.806  10.392   6.431 -0.0035  0.3454  0.3711
35533SOL    HW210388   6.769  10.309   6.551  1.3363 -1.1523 -0.2101
35534SOL     OW10389   4.062   7.010   9.412 -0.3516 -0.1807  0.2079
35534SOL    HW110390   4.073   6.983   9.503  2.1042  0.8472  0.2748
35534SOL    HW210391   3.986   6.960   9.381 -2.9639  1.3375  3.5390
35535SOL     OW10392   5.400   3.858   9.295 -0.0879 -0.0640  0.1781
35535SOL    HW110393   5.321   3.818   9.260 -0.2636  1.0469 -0.7532
35535SOL    HW210394   5.470   3.797   9.271 -0.2230  0.5786 -2.0609
35536SOL     OW10395   0.680   9.494   0.900 -0.1645 -0.3142  0.0935
35536SOL    HW110396   0.604   9.496   0.843  0.7021  2.1089 -1.0978
35536SOL    HW210397   0.679   9.579   0.944  0.7206 -1.0650  1.6658
35537SOL     OW10398   0.405   5.955  10.152 -0.7500  0.1062 -0.0295
35537SOL    HW110399   0.435   5.868  10.126  0.7814  0.4626  0.4424
35537SOL    HW210400   0.386   5.946  10.246  0.1283  0.4495  0.1880
35538SOL     OW10401  10.352   4.102   8.190 -0.1699  0.3215  0.0467
35538SOL    HW110402  10.283   4.169   8.196 -0.0420  0.4484  0.1072
35538SOL    HW210403  10.432   4.152   8.174  0.0194  0.2279  0.6719
35539SOL     OW10404   6.932   1.385   7.730 -0.1878  0.0183 -0.1886
35539SOL    HW110405   6.976   1.427   7.656  0.3403  0.7992  0.5425
35539SOL    HW210406   6.896   1.458   7.781  0.2788 -0.4345  0.8254
35540SOL     OW10407   5.187   4.941   0.360  0.1271 -0.4303 -0.2297
35540SOL    HW110408   5.138   4.884   0.301 -0.7057 -0.4900  0.5041
35540SOL    HW210409   5.220   4.882   0.428  0.4668 -0.2471 -0.2333
35541SOL     OW10410   9.326   4.937   0.633  0.7136 -0.2871  0.3297
35541SOL    HW110411   9.386   4.934   0.559  0.0223  0.0385 -0.2614
35541SOL    HW210412   9.382   4.943   0.710  1.4296  0.3061 -0.2262
35542SOL     OW10413   0.782   9.103   1.532  0.2171 -0.5124 -0.3292
35542SOL    HW110414   0.764   9.018   1.572 -0.6238  0.1749  0.7835
35542SOL    HW210415   0.818   9.081   1.446  0.7894 -1.9980  0.2525
35543SOL     OW10416   1.419   1.147   3.305  0.6417 -0.2155  0.2384
35543SOL    HW110417   1.449   1.229   3.344  0.6674 -0.5810  0.9937
35543SOL    HW210418   1.324   1.146   3.320  0.5619 -0.0819 -0.2349
35544SOL     OW10419   4.463   4.848   2.450  0.6454 -0.1496  0.0511
35544SOL    HW110420   4.543   4.823   2.404 -0.4507 -1.8873 -1.0371
35544SOL    HW210421   4.452   4.941   2.430  1.8679 -0.1287 -0.6035
35545SOL     OW10422   4.740   9.511   6.917  0.2920  0.0549  0.0116
35545SOL    HW110423   4.663   9.565   6.931  0.5439  0.1649  1.0220
35545SOL    HW210424   4.775   9.540   6.833  0.3476  1.3736  0.4789
35546SOL     OW10425   0.652   9.491   2.534  0.3105 -0.5933 -0.5064
35546SOL    HW110426   0.592   9.418   2.545 -1.5259  1.0876  1.7066
35546SOL    HW210427   0.721   9.476   2.600 -1.1959  0.6040  1.4566
35547SOL     OW10428   9.798   9.457   3.120 -0.2020 -0.3343  0.3291
35547SOL    HW110429   9.858   9.424   3.186  1.3536 -0.3218 -1.0261
35547SOL    HW210430   9.754   9.378   3.087 -1.7145 -0.2470  1.9973
35548SOL     OW10431   0.824   7.819   9.690  0.4296 -0.1011  0.0482
35548SOL    HW110432   0.810   7.728   9.716  1.8846  0.1097  1.7413
35548SOL    HW210433   0.812   7.870   9.770  0.3634  1.1258 -0.7096
35549SOL     OW10434   1.084   9.231   4.099  0.1382 -0.4908 -0.8635
35549SOL    HW110435   1.029   9.174   4.152 -0.3015 -1.7728 -2.6019
35549SOL    HW210436   1.023   9.292   4.057  0.6234  1.5788  1.1953
35550SOL     OW10437   7.930   2.193   4.571  0.5526  0.5071  0.4567
35550SOL    HW110438   7.896   2.225   4.487  1.6527 -0.5782 -0.4451
35550SOL    HW210439   8.023   2.219   4.571  0.6787  0.0804  1.1237
35551SOL     OW10440   7.867   3.976   5.454 -0.4112  0.1864  0.0073
35551SOL    HW110441   7.957   4.006   5.441 -0.0424 -1.3511 -1.3341
35551SOL    HW210442   7.814   4.054   5.443  0.6331  0.7515 -1.4281
35552SOL     OW10443   1.587   9.347   0.836 -0.3704  0.1204  0.0735
35552SOL    HW110444   1.514   9.322   0.893  0.6549 -0.6569  1.1042
35552SOL    HW210445   1.616   9.432   0.870  0.4536 -0.4960  0.9734
35553SOL     OW10446   2.417   3.313   6.206 -0.3299 -0.6247 -0.2072
35553SOL    HW110447   2.476   3.309   6.281 -0.3046  0.3938 -0.1517
35553SOL    HW210448   2.390   3.223   6.192  3.0386 -1.5557 -1.6952
35554SOL     OW10449   0.285   7.283   5.586  0.2227 -0.1576  0.2651
35554SOL    HW110450   0.221   7.268   5.517  0.8394  2.6546 -1.0762
35554SOL    HW210451   0.233   7.309   5.662 -0.3644 -1.3624  0.2872
35555SOL     OW10452   1.265   8.378   3.643 -0.0574 -0.5408 -0.4727
35555SOL    HW110453   1.301   8.456   3.686 -1.6156 -0.2147  0.3175
35555SOL    HW210454   1.342   8.331   3.612  0.9468  1.0775 -0.5687
35556SOL     OW10455   2.974  10.141   4.941 -0.3250  0.2857 -0.3491
35556SOL    HW110456   2.888  10.167   4.973  0.8878 -0.5479  4.4493
35556SOL    HW210457   2.980  10.048   4.960  1.7639  0.4155 -0.1314
35557SOL     OW10458   5.072   8.353   2.911 -0.2561  0.8318 -0.2479
35557SOL    HW110459   5.022   8.434   2.914 -0.7620  0.5547 -0.9565
35557SOL    HW210460   5.142   8.369   2.848 -1.6584  0.0373 -2.1300
35558SOL     OW10461   1.727   2.588   2.764  0.1598 -0.3221 -0.3504
35558SOL    HW110462   1.717   2.499   2.798  1.7956 -0.9225 -1.2820
35558SOL    HW210463   1.764   2.638   2.837  0.7271 -0.8210 -0.2879
35559SOL     OW10464   0.513   0.768   5.058  0.3813 -0.1344 -0.0442
35559SOL    HW110465   0.486   0.793   5.146  0.9503  0.8073 -0.1307
35559SOL    HW210466   0.597   0.724   5.070  1.0262  1.0242 -0.2179
35560SOL     OW10467   5.716   0.659   6.639 -0.4264  0.6361  0.1669
35560SOL    HW110468   5.704   0.580   6.586  0.5173  0.3480  0.3550
35560SOL    HW210469   5.771   0.716   6.585  2.2083 -0.4457  1.5238
35561SOL     OW10470   7.805   7.778   8.048 -0.3854  0.3769 -0.2307
35561SOL    HW110471   7.718   7.741   8.030 -0.1514  0.5390 -1.8519
35561SOL    HW210472   7.791   7.872   8.053 -0.6894  0.2720  2.1444
35562SOL     OW10473   0.142   7.737   0.864 -0.6928 -0.3474 -0.0140
35562SOL    HW110474   0.055   7.745   0.825 -1.4601 -0.5598  1.5864
35562SOL    HW210475   0.132   7.772   0.952  1.1041  0.5621 -0.1076
35563SOL     OW10476   3.916   4.961   6.854 -0.4705 -0.4602  0.1910
35563SOL    HW110477   3.945   4.995   6.769 -1.7064 -0.5305 -0.2908
35563SOL    HW210478   3.982   4.991   6.916 -0.6771  1.4820 -0.4641
35564SOL     OW10479   8.917   6.831   5.072 -0.6027 -0.0366  0.1689
35564SOL    HW110480   8.828   6.813   5.043 -0.2064 -1.5228 -0.2129
35564SOL    HW210481   8.941   6.755   5.126  0.5555  0.1545 -0.0428
35565SOL     OW10482   4.607   1.509   8.590  0.1578  0.2466  0.4504
35565SOL    HW110483   4.641   1.430   8.548  0.9397  0.5648  0.4847
35565SOL    HW210484   4.613   1.577   8.524  0.1962  0.4557  0.6671
35566SOL     OW10485   5.239   9.480   0.994  0.0901 -0.1969  0.0521
35566SOL    HW110486   5.196   9.446   1.072  0.0053  0.5649  0.3453
35566SOL    HW210487   5.332   9.475   1.014  0.1310 -1.1442 -0.2903
35567SOL     OW10488   0.429   8.031   7.445  0.2444  0.1015 -0.2982
35567SOL    HW110489   0.420   7.970   7.518 -0.7997 -0.2841 -0.7322
35567SOL    HW210490   0.452   7.975   7.370  0.2670  0.3604 -0.4871
35568SOL     OW10491   6.873   8.919   6.230 -0.1926  0.2262  0.5816
35568SOL    HW110492   6.809   8.982   6.195  0.3171 -0.3303 -1.4863
35568SOL    HW210493   6.828   8.834   6.225 -0.3120  0.1902  1.8899
35569SOL     OW10494   7.669   9.883   9.155  0.3595 -0.4343  0.0255
35569SOL    HW110495   7.662   9.942   9.231  1.0788 -1.0093  0.5425
35569SOL    HW210496   7.757   9.897   9.121 -0.1162  0.1709 -1.0145
35570SOL     OW10497   5.834   3.910   9.852 -0.1055 -0.2354 -0.1450
35570SOL    HW110498   5.762   3.911   9.915 -0.5794  1.3144 -0.6862
35570SOL    HW210499   5.817   3.832   9.799 -0.7080 -0.5580  0.4998
35571SOL     OW10500   3.011   4.013   1.010 -0.1063 -0.2688  0.2558
35571SOL    HW110501   3.078   4.038   1.074 -1.6745 -0.0026  1.8902
35571SOL    HW210502   2.948   4.084   1.012  0.0720  0.0367 -2.1011
35572SOL     OW10503   6.066  10.100   0.989  0.1855 -0.3101  0.5076
35572SOL    HW110504   6.041  10.011   0.967 -1.7511  0.3243 -0.0780
35572SOL    HW210505   6.099  10.095   1.079 -1.4236 -1.3874  1.0875
35573SOL     OW10506   1.519   1.857   9.921  0.5345 -0.7394 -0.2085
35573SOL    HW110507   1.589   1.829   9.979  0.8383 -0.2708 -0.3421
35573SOL    HW210508   1.522   1.796   9.847  1.1873 -0.3632 -0.4988
35574SOL     OW10509   2.323   4.346   8.774 -0.0866  0.6407  0.0594
35574SOL    HW110510   2.304   4.385   8.689  0.7223  0.9778  0.0271
35574SOL    HW210511   2.326   4.252   8.757  0.9932  0.7597 -0.4821
35575SOL     OW10512   3.725   5.510   4.826 -0.8045 -0.8581  0.2760
35575SOL    HW110513   3.721   5.457   4.747  2.0407 -1.5642  0.5155
35575SOL    HW210514   3.695   5.597   4.798  2.3053 -0.4524 -2.2636
35576SOL     OW10515   5.792   9.446   3.303 -0.9197 -0.1420  0.0319
35576SOL    HW110516   5.882   9.477   3.316 -0.9893  0.0759  0.0130
35576SOL    HW210517   5.738   9.520   3.333 -1.1035 -0.7501  1.2887
35577SOL     OW10518   5.218   1.313   1.968 -0.0614 -0.1237  0.7660
35577SOL    HW110519   5.170   1.251   1.913  1.4204 -1.1780  0.6015
35577SOL    HW210520   5.244   1.383   1.908 -0.9633  0.2270  0.7656
35578SOL     OW10521  10.320   3.242   2.153  0.8445 -0.0755 -0.0137
35578SOL    HW110522  10.266   3.259   2.076 -0.2487 -1.0464  0.5026
35578SOL    HW210523  10.388   3.182   2.121  0.9621  0.2736 -0.4256
35579SOL     OW10524   2.983   5.129  10.119 -0.2120  0.5416  0.5187
35579SOL    HW110525   2.937   5.093  10.043  2.2160 -0.7521 -0.4647
35579SOL    HW210526   2.927   5.109  10.193 -1.3842 -0.6539 -0.6366
35580SOL     OW10527   8.665   2.878   0.573  0.3101 -0.4677 -0.5508
35580SOL    HW110528   8.645   2.937   0.646 -0.5009 -0.1425 -1.0227
35580SOL    HW210529   8.579   2.848   0.543  0.6923 -1.3958 -0.7268
35581SOL     OW10530   5.183   9.990   6.060 -0.0184 -0.2568 -0.6542
35581SOL    HW110531   5.245  10.041   6.008 -0.6569  0.3835 -0.8111
35581SOL    HW210532   5.097  10.020   6.030 -0.4071  0.1717  0.8059
35582SOL     OW10533   8.439   7.664   1.305  0.0492 -0.1760 -0.2423
35582SOL    HW110534   8.464   7.668   1.213 -0.9652 -1.3702 -0.6024
35582SOL    HW210535   8.343   7.656   1.304 -0.0419  0.4551  0.9456
35583SOL     OW10536   3.184   9.480   4.381 -0.0437  0.5024  0.1742
35583SOL    HW110537   3.129   9.478   4.303 -0.2360  0.6177  0.3069
35583SOL    HW210538   3.271   9.504   4.349 -0.4568  2.1476  0.1825
35584SOL     OW10539   4.335   4.076   2.973 -0.1347  0.1972  0.1491
35584SOL    HW110540   4.385   4.100   2.895  1.3161 -1.7281  0.4059
35584SOL    HW210541   4.402   4.059   3.040 -1.3121  0.9473  1.5712
35585SOL     OW10542   7.250   3.415   8.779  0.4447 -0.2819 -0.0156
35585SOL    HW110543   7.277   3.338   8.730 -1.2465 -1.1279  0.3332
35585SOL    HW210544   7.333   3.456   8.806  1.3749 -1.1171 -1.4755
35586SOL     OW10545   7.956   5.525   0.951  0.0357 -0.0588  0.5006
35586SOL    HW110546   7.940   5.590   0.884  1.9512  2.4042  2.2489
35586SOL    HW210547   7.879   5.468   0.949 -2.6444  3.2878  0.0232
35587SOL     OW10548   8.023   5.356   1.211 -0.2193 -1.0181  0.1030
35587SOL    HW110549   8.091   5.288   1.217  1.8764  1.0067  0.6129
35587SOL    HW210550   8.047   5.407   1.134 -0.4738  0.4003  0.9227
35588SOL     OW10551   7.459   1.810   9.043  0.2495 -0.4219 -0.0216
35588SOL    HW110552   7.490   1.859   9.119 -2.1599  0.9002  0.1833
35588SOL    HW210553   7.413   1.735   9.080  0.7313 -0.8385 -0.2512
35589SOL     OW10554   4.922   4.188   3.842  0.1501  0.1706 -0.4125
35589SOL    HW110555   4.853   4.133   3.805  0.7946 -0.4973 -0.6439
35589SOL    HW210556   4.912   4.181   3.936  0.7241 -1.0042 -0.4263
35590SOL     OW10557   9.674   1.659   6.762  0.3399  0.3350 -0.1802
35590SOL    HW110558   9.728   1.681   6.686  0.9322  0.1971  0.1950
35590SOL    HW210559   9.584   1.671   6.732  0.5348 -0.5740 -1.1739
35591SOL     OW10560   0.908   1.421   8.540 -0.3365 -0.3650 -0.1596
35591SOL    HW110561   0.889   1.333   8.572  1.2005 -0.5749  0.2909
35591SOL    HW210562   0.871   1.424   8.452  0.6067 -1.9018 -0.6519
35592SOL     OW10563   9.892   3.666   9.026  0.5231  0.0412 -0.0120
35592SOL    HW110564   9.799   3.688   9.013  0.7163  1.9434  1.4161
35592SOL    HW210565   9.914   3.612   8.950 -1.5428  0.1793 -0.7905
35593SOL     OW10566   4.338   1.942   8.882 -0.2556 -0.6601 -0.5642
35593SOL    HW110567   4.398   1.905   8.947 -0.0225 -0.1292 -0.4660
35593SOL    HW210568   4.252   1.909   8.906 -0.7882  2.1801  2.1668
35594SOL     OW10569   9.744  10.214   7.818  0.0771 -0.1199  0.2561
35594SOL    HW110570   9.827  10.246   7.782  0.9691 -0.7045  1.6986
35594SOL    HW210571   9.727  10.133   7.768 -0.6125  0.9453 -1.3055
35595SOL     OW10572   8.569   9.638  10.257  0.4187  0.1896  0.1048
35595SOL    HW110573   8.663   9.629  10.241  0.6589 -1.1423  1.9038
35595SOL    HW210574   8.532   9.555  10.226 -0.1375  0.6367 -0.4361
35596SOL     OW10575   5.196   0.073   6.808  0.6574  0.2537  0.5646
35596SOL    HW110576   5.125   0.029   6.855 -0.0165  0.3263 -0.3626
35596SOL    HW210577   5.217   0.013   6.736  0.4938  0.9200 -0.0499
35597SOL     OW10578   5.433   1.198   7.173 -0.6216  0.3096 -0.4486
35597SOL    HW110579   5.473   1.171   7.256 -1.6837 -2.3735 -0.6951
35597SOL    HW210580   5.499   1.178   7.107 -0.7666 -0.0832 -0.4767
35598SOL     OW10581   0.139   2.096   6.819  0.4427  0.6624  0.5317
35598SOL    HW110582   0.190   2.016   6.805  1.8439  1.5102  0.6785
35598SOL    HW210583   0.110   2.090   6.910 -1.1336 -0.5837  0.0000
35599SOL     OW10584   3.553   2.334  10.259  0.3264 -0.6140 -0.2720
35599SOL    HW110585   3.483   2.278  10.292  0.2160 -0.4369 -0.2075
35599SOL    HW210586   3.554   2.318  10.165 -0.7669  0.4679 -0.4855
35600SOL     OW10587  10.054   2.979   5.347 -0.2358 -0.1239  0.6956
35600SOL    HW110588  10.002   2.936   5.280  0.3882 -1.2191  0.9013
35600SOL    HW210589  10.133   3.009   5.302 -0.0670 -0.3772  0.8180
35601SOL     OW10590   4.199   5.848  10.315 -0.4532  0.2909 -0.3345
35601SOL    HW110591   4.179   5.898  10.236  0.4314  0.5699 -0.3946
35601SOL    HW210592   4.189   5.911  10.386  0.3169  0.4741 -0.3788
35602SOL     OW10593   4.019   1.402  10.342 -0.0243  0.0576 -0.0489
35602SOL    HW110594   4.002   1.492  10.371  1.1904  0.1780  0.3591
35602SOL    HW210595   4.041   1.354  10.422 -1.4623 -0.8184 -0.1586
35603SOL     OW10596   2.357   9.659   9.569 -0.0017  0.2718 -0.0954
35603SOL    HW110597   2.268   9.625   9.557  0.2575  0.0724 -1.6284
35603SOL    HW210598   2.345   9.752   9.587 -0.5017  0.5795 -1.8028
35604SOL     OW10599   3.328   4.344   2.725 -0.2342  0.1222  0.3569
35604SOL    HW110600   3.350   4.353   2.632 -0.0485 -0.6143  0.3243
35604SOL    HW210601   3.356   4.255   2.748 -0.7185  0.1278  0.9977
35605SOL     OW10602   3.608   3.238   1.484 -0.1947 -0.6818  0.2790
35605SOL    HW110603   3.607   3.321   1.436 -0.3367 -1.0411 -0.3596
35605SOL    HW210604   3.623   3.172   1.416 -1.4360 -1.2987  0.5852
35606SOL     OW10605   3.172  10.073   2.998  0.3109 -0.7611 -0.3410
35606SOL    HW110606   3.261  10.053   2.968  1.3721  1.0056  1.3999
35606SOL    HW210607   3.183  10.102   3.088 -2.0897 -0.6481 -0.0151
35607SOL     OW10608   7.858   3.463   9.003 -0.1355  0.1860  0.0737
35607SOL    HW110609   7.896   3.535   9.054  2.0440 -0.0914 -1.0614
35607SOL    HW210610   7.931   3.429   8.951 -2.0538 -0.0095 -2.7074
35608SOL     OW10611   8.653   6.988   2.806  0.7060  0.4411  0.1659
35608SOL    HW110612   8.562   6.992   2.777  0.6376 -0.2820  0.2692
35608SOL    HW210613   8.705   7.004   2.727  0.4927  1.0542  0.1443
35609SOL     OW10614   2.384   9.518   0.333 -0.0133  0.1851  0.0980
35609SOL    HW110615   2.394   9.460   0.258  0.7664 -0.6267  0.8041
35609SOL    HW210616   2.468   9.565   0.339  0.6745 -1.1472  1.5690
35610SOL     OW10617   8.645   0.692   5.740  0.1481 -0.7018 -0.0439
35610SOL    HW110618   8.609   0.734   5.662  0.1166 -0.6177  0.0158
35610SOL    HW210619   8.740   0.693   5.726  0.1666 -0.3580  0.0839
35611SOL     OW10620   2.219   9.016   2.133 -0.3255  0.0155 -0.5786
35611SOL    HW110621   2.147   9.020   2.070  0.1131  1.1697 -1.0411
35611SOL    HW210622   2.197   9.083   2.199  1.0562  1.5295 -1.5765
35612SOL     OW10623   5.439   1.011   5.714  0.1693  0.8802  0.1485
35612SOL    HW110624   5.496   1.085   5.734 -0.5244  2.0399 -1.7816
35612SOL    HW210625   5.413   1.026   5.623 -2.0263 -0.3671  0.5021
35613SOL     OW10626   2.753   3.195   9.012 -0.0239  0.2793 -0.6365
35613SOL    HW110627   2.739   3.290   9.017  0.8649  0.3687  0.6961
35613SOL    HW210628   2.837   3.185   8.968 -0.0452  0.1130 -0.6405
35614SOL     OW10629   0.609   7.991   6.908 -0.2387  0.3832 -0.4824
35614SOL    HW110630   0.687   8.039   6.881 -0.6532  1.5415  0.2920
35614SOL    HW210631   0.540   8.058   6.913 -1.2367 -0.5747 -0.9356
35615SOL     OW10632   8.428   3.042   6.038  0.2256  0.1460 -0.7228
35615SOL    HW110633   8.336   3.043   6.061 -0.1711  0.7046 -2.1924
35615SOL    HW210634   8.447   3.132   6.011  0.9009 -0.2137 -1.5027
35616SOL     OW10635   0.894   1.229   4.525 -0.0606  0.1481 -0.6732
35616SOL    HW110636   0.873   1.136   4.520 -0.3471  0.2355 -1.1417
35616SOL    HW210637   0.985   1.231   4.555 -0.8317 -0.2159  1.9574
35617SOL     OW10638   6.925   7.242   3.692 -0.3446  0.1175  0.2597
35617SOL    HW110639   6.981   7.197   3.756  2.6874  2.8960 -0.1956
35617SOL    HW210640   6.933   7.189   3.613  1.4490  0.2805  0.2987
35618SOL     OW10641   9.463   4.984   0.373 -0.4367  0.0027 -0.1208
35618SOL    HW110642   9.431   4.962   0.286 -0.9210 -1.4027  0.3961
35618SOL    HW210643   9.558   4.976   0.367 -0.4200  0.5586 -0.6838
35619SOL     OW10644   6.902   0.591   5.804  0.2544  0.4891  0.7593
35619SOL    HW110645   6.814   0.622   5.825  0.1373  0.5130  0.2371
35619SOL    HW210646   6.960   0.645   5.857  0.0300  1.3111  0.1801
35620SOL     OW10647   5.261   7.185  10.348 -0.0882 -0.5139  0.1122
35620SOL    HW110648   5.284   7.209  10.438 -0.3212  1.2412 -0.2761
35620SOL    HW210649   5.166   7.177  10.349 -0.4907  2.7826 -0.6467
35621SOL     OW10650   6.239   2.963   2.437  0.1456  0.4683 -0.0569
35621SOL    HW110651   6.335   2.963   2.447  0.1641  0.3355 -0.2189
35621SOL    HW210652   6.220   2.879   2.394 -0.0885  0.2861  0.3928
35622SOL     OW10653   0.914  10.357   3.072 -0.0234 -0.2692 -0.3502
35622SOL    HW110654   0.994  10.380   3.120 -0.5591  0.8697  0.0273
35622SOL    HW210655   0.897  10.434   3.017 -1.9634  0.3593  1.0485
35623SOL     OW10656   0.557   1.315   5.949 -0.3746  0.1420 -0.4916
35623SOL    HW110657   0.520   1.392   5.906 -0.1727  1.3088  1.3206
35623SOL    HW210658   0.613   1.275   5.882 -0.5109  1.5465 -1.4896
35624SOL     OW10659   6.776   6.382   0.749  0.1102 -0.1041 -0.3032
35624SOL    HW110660   6.813   6.307   0.795  1.1475 -0.5111 -1.7278
35624SOL    HW210661   6.851   6.422   0.704 -0.8028  0.4268 -1.3979
35625SOL     OW10662   2.017   3.530   8.213 -0.3144 -0.2056 -0.6762
35625SOL    HW110663   1.968   3.483   8.280 -1.6746  0.6278 -1.0419
35625SOL    HW210664   1.950   3.561   8.152  0.6300  1.3109 -0.9912
35626SOL     OW10665   9.232   9.415   5.930  0.5537 -0.1278 -0.1462
35626SOL    HW110666   9.184   9.394   6.010  0.0444  2.4394  0.2966
35626SOL    HW210667   9.275   9.333   5.905 -0.5951 -1.3906  1.8339
35627SOL     OW10668   3.912   8.406   1.539  0.4561  0.7097 -0.0012
35627SOL    HW110669   3.832   8.366   1.573  0.8315  1.5152  2.0251
35627SOL    HW210670   3.954   8.444   1.617  4.3193 -2.2010 -0.3409
35628SOL     OW10671   6.208   0.098   9.692  0.0909 -0.0424  0.4739
35628SOL    HW110672   6.228   0.149   9.613 -1.2162  0.4422  0.4373
35628SOL    HW210673   6.246   0.012   9.674  3.9832  1.3188  1.2835
35629SOL     OW10674   9.002   8.335   5.697 -0.1889  0.5140 -0.7204
35629SOL    HW110675   8.935   8.384   5.745 -0.7454 -1.0733  0.2333
35629SOL    HW210676   8.960   8.251   5.677  1.3477 -0.3319 -0.5620
35630SOL     OW10677   8.911   0.883  10.343 -0.0005  0.0645 -0.0179
35630SOL    HW110678   8.856   0.810  10.314 -1.1265  0.6752  0.4990
35630SOL    HW210679   9.000   0.850  10.337 -0.5038 -1.5393  0.6623
35631SOL     OW10680   5.042   6.692   1.644 -0.3841 -0.0855  0.0176
35631SOL    HW110681   5.046   6.623   1.711 -1.0551 -0.4821 -0.3329
35631SOL    HW210682   4.988   6.654   1.574  2.0508 -0.5484 -1.7493
35632SOL     OW10683   3.592   6.875   1.889  0.7196 -0.4192  0.0558
35632SOL    HW110684   3.641   6.817   1.831  0.2668  0.3393 -1.1341
35632SOL    HW210685   3.504   6.877   1.851  0.8078  1.2901 -0.1423
35633SOL     OW10686   3.239   2.708   3.194  0.6664 -0.0088 -0.1861
35633SOL    HW110687   3.207   2.752   3.115 -0.1325 -0.0156  0.1289
35633SOL    HW210688   3.301   2.642   3.161 -2.4861 -2.7307 -1.2158
35634SOL     OW10689   5.757   5.128   6.853  0.0447  0.5216  0.0024
35634SOL    HW110690   5.823   5.066   6.823  1.3547  1.1328  1.5117
35634SOL    HW210691   5.791   5.214   6.829  0.1688  0.8885  1.3847
35635SOL     OW10692   4.960   7.727   9.934 -0.0210  0.1716  0.4030
35635SOL    HW110693   4.996   7.723  10.023  1.6510 -1.1279 -0.3026
35635SOL    HW210694   4.994   7.809   9.898 -0.1427  0.3592  0.7079
35636SOL     OW10695   2.604   2.035   1.336  0.0731  0.7271 -0.2080
35636SOL    HW110696   2.564   2.070   1.256  1.4793 -0.0223 -1.2893
35636SOL    HW210697   2.545   2.062   1.406 -1.3280  1.2196 -1.5198
35637SOL     OW10698   4.229   7.462   9.017 -0.4728  0.2260 -0.2636
35637SOL    HW110699   4.244   7.542   9.067 -0.5180 -0.7653  1.4425
35637SOL    HW210700   4.134   7.457   9.008 -0.5905 -0.3759  1.0068
35638SOL     OW10701   8.431   6.949  10.171  0.5864  0.0245 -0.6238
35638SOL    HW110702   8.349   6.981  10.207  0.6710  0.4737 -0.8220
35638SOL    HW210703   8.413   6.858  10.148 -0.0303  0.2780 -1.1859
35639SOL     OW10704   9.936   9.108  10.135 -0.3985 -0.5536 -0.2544
35639SOL    HW110705  10.019   9.062  10.118 -0.4898  0.0282 -2.5285
35639SOL    HW210706   9.869   9.040  10.128 -0.3153 -0.5711 -0.8696
35640SOL     OW10707   8.294   1.623   3.528 -0.3497 -0.6566 -0.0814
35640SOL    HW110708   8.356   1.628   3.456  0.5110  0.6260  0.7209
35640SOL    HW210709   8.346   1.637   3.607 -1.8754  3.0761  0.5054
35641SOL     OW10710   9.509   0.877   1.623  0.0016  1.1082 -0.4739
35641SOL    HW110711   9.506   0.920   1.708 -0.4611  1.0061 -0.4364
35641SOL    HW210712   9.514   0.783   1.643 -0.6178  1.0556 -0.5583
35642SOL     OW10713   4.852   4.990   4.383 -0.6182  0.4494 -0.4145
35642SOL    HW110714   4.778   5.005   4.442 -1.9097 -0.7134 -1.6590
35642SOL    HW210715   4.888   5.078   4.368 -1.2017  0.9449  0.8843
35643SOL     OW10716   6.830   8.106   8.036  0.2859 -0.7363  0.5048
35643SOL    HW110717   6.812   8.187   8.084 -1.7104  0.5273 -2.0733
35643SOL    HW210718   6.746   8.060   8.034  0.5655 -1.2465 -0.8072
35644SOL     OW10719   1.803   8.457   0.470  0.5331  0.4646 -0.9166
35644SOL    HW110720   1.746   8.508   0.414  0.3145  1.6100  0.3028
35644SOL    HW210721   1.870   8.519   0.499  0.3924  0.0270  0.4117
35645SOL     OW10722   0.732   7.279   6.755  0.2096  0.7851 -0.0718
35645SOL    HW110723   0.726   7.371   6.779 -0.6054  0.5206  0.7891
35645SOL    HW210724   0.704   7.276   6.664 -0.6207  1.2759  0.1587
35646SOL     OW10725   8.525   1.838   8.962  0.3429  0.0314  0.3040
35646SOL    HW110726   8.442   1.864   8.921  0.8612 -0.2553 -0.9598
35646SOL    HW210727   8.519   1.873   9.051 -0.0665  2.2513 -0.5344
35647SOL     OW10728   5.413   0.890   0.248 -0.2757 -1.0826  0.6733
35647SOL    HW110729   5.482   0.920   0.308 -0.6316 -1.4060  1.2520
35647SOL    HW210730   5.417   0.951   0.175 -0.5726 -0.0064  1.5402
35648SOL     OW10731   1.430   6.115   5.986 -0.2050  0.4937 -0.2968
35648SOL    HW110732   1.443   6.187   5.923  0.8730  2.6557  2.1898
35648SOL    HW210733   1.354   6.142   6.038  0.4657  0.0592  0.9471
35649SOL     OW10734   6.254   2.948   7.087  0.1217  0.0154 -0.5019
35649SOL    HW110735   6.346   2.968   7.102  0.2318  1.3771 -2.5398
35649SOL    HW210736   6.223   2.912   7.170  2.5531 -0.8210  0.1133
35650SOL     OW10737   9.267   2.928   8.261 -0.0418  0.4265 -0.1377
35650SOL    HW110738   9.299   2.955   8.175  0.8008  0.4110  0.1643
35650SOL    HW210739   9.198   2.865   8.242  1.2129 -0.8072 -0.8082
35651SOL     OW10740   0.972   7.729   9.355 -0.0879  0.7799  0.3254
35651SOL    HW110741   1.030   7.734   9.430 -2.0302 -0.7047  2.0668
35651SOL    HW210742   0.901   7.791   9.374 -0.3674  0.7404 -0.5172
35652SOL     OW10743   5.329   7.785  10.229  0.6525  0.2817  0.2086
35652SOL    HW110744   5.420   7.754  10.229  1.2773  1.9357 -1.1644
35652SOL    HW210745   5.322   7.837  10.149 -2.1232 -1.4566 -0.8444
35653SOL     OW10746   3.109   8.911   7.522  0.2589 -0.5508  0.0939
35653SOL    HW110747   3.180   8.910   7.587  1.2031 -0.7701 -0.9247
35653SOL    HW210748   3.040   8.859   7.562  0.5786 -0.1683  1.1899
35654SOL     OW10749   5.342   3.416   8.860  0.0824  0.6947  0.4158
35654SOL    HW110750   5.375   3.398   8.772 -0.8551 -0.6446  0.3040
35654SOL    HW210751   5.248   3.423   8.849 -0.5114 -3.0429  1.7417
35655SOL     OW10752   1.034   2.640   3.032  0.2162  0.2869  0.2483
35655SOL    HW110753   1.102   2.681   3.086  0.0131  1.7842 -0.5664
35655SOL    HW210754   1.037   2.688   2.949 -1.4321 -0.0028 -0.0199
35656SOL     OW10755   0.960   8.770   8.673 -0.4012  0.4695 -0.6779
35656SOL    HW110756   0.876   8.772   8.720 -1.1772  1.8677 -2.0279
35656SOL    HW210757   1.019   8.723   8.731 -2.0902 -0.4495  0.3699
35657SOL     OW10758   8.917   5.430   8.701  0.7282 -0.5517  0.3992
35657SOL    HW110759   8.903   5.435   8.606  2.8308 -0.4896  0.0509
35657SOL    HW210760   8.856   5.494   8.737 -0.1378 -0.6023 -0.8996
35658SOL     OW10761   8.775   3.356   0.197 -0.1231 -0.3097 -0.0352
35658SOL    HW110762   8.788   3.403   0.279  1.8415 -2.4093  0.9740
35658SOL    HW210763   8.762   3.424   0.132  0.5218  1.5131  1.6360
35659SOL     OW10764   5.128   1.046  10.278  0.0618  0.1133 -0.2282
35659SOL    HW110765   5.110   0.958  10.310 -0.9608  0.8898  1.4481
35659SOL    HW210766   5.069   1.103  10.328 -0.4028  1.6096 -2.3263
35660SOL     OW10767   5.291   0.220   9.364 -0.2537  0.1798  0.2697
35660SOL    HW110768   5.331   0.292   9.411  1.3920 -1.2006  1.1099
35660SOL    HW210769   5.307   0.240   9.271 -0.0634  1.0027  0.4738
35661SOL     OW10770   0.616   3.510   1.115 -0.5992 -0.3464  0.6184
35661SOL    HW110771   0.669   3.500   1.194  0.5582 -0.3683 -0.1290
35661SOL    HW210772   0.566   3.429   1.109 -1.3804  0.0300  1.7985
35662SOL     OW10773   5.942   8.581   3.669 -0.0425 -0.3942 -0.2605
35662SOL    HW110774   5.920   8.496   3.630 -0.3774 -1.6136  2.3798
35662SOL    HW210775   5.878   8.642   3.633 -0.9070 -1.6315 -0.8676
35663NA      NA10776   4.370   7.843   8.596  0.1596  0.1546 -0.1124
35664NA      NA10777   0.905   7.606   6.676 -0.0504  0.2423  0.6456
35665NA      NA10778   4.619   6.548   6.230 -0.2079 -0.3735 -0.0388
35666NA      NA10779   4.684   6.079   5.252 -0.0878 -0.0699  0.0152
35667NA      NA10780   3.336   5.981   5.252  0.2840  0.0418 -0.1855
35668NA      NA10781   2.478   7.864   7.157 -0.4715 -0.1770  0.4738
35669NA      NA10782   9.988   5.882   1.921  0.1016 -0.3657 -0.0196
35670NA      NA10783   9.041   7.353   2.887  0.2675  0.1296  0.1637
35671NA      NA10784   8.549   7.727   8.323 -0.2921 -0.0113 -0.3513
35672NA      NA10785   8.534   6.049   3.512  0.0690 -0.1423  0.3129
35673NA      NA10786   6.592   7.751   7.661  0.5857 -0.4327  0.1867
35674NA      NA10787   2.426   6.412   0.373  0.8730  0.1192 -0.4536
35675NA      NA10788   5.735   7.340   4.402 -0.3726  0.1045  0.0015
35676NA      NA10789   2.771  10.297   9.829  0.1197  0.2455 -0.1424
35677NA      NA10790   9.611   4.067   5.720 -0.3351 -0.1142  0.5192
35678NA      NA10791   5.723   6.566   5.494  0.0965 -0.2147 -0.1139
35679NA      NA10792   4.714   6.559   7.820  0.5138 -0.2977  0.4437
35680NA      NA10793   6.673   6.101   4.659  0.3429  0.0265 -0.0270
35681NA      NA10794   6.142   3.514   1.772  0.4717  0.1350 -0.0997
35682NA      NA10795   6.093   6.933   7.026 -0.1823 -0.0968  0.2186
35683NA      NA10796   2.411   1.868   9.975  0.5184 -0.6742  0.0689
35684NA      NA10797   3.752   6.031   1.022  0.1235  0.1774  0.2491
35685NA      NA10798   1.284   3.876   1.470 -0.0691 -0.3160 -0.0946
35686NA      NA10799   7.447   9.518   9.427  0.2408  0.3637 -0.2425
35687NA      NA10800   7.780   2.601   7.898  0.3668 -0.0235  0.1678
35688NA      NA10801   4.893   9.150   6.819  0.0760  0.1997  0.1458
35689NA      NA10802   8.764  10.308  10.279  0.1095  0.2356  0.3350
35690NA      NA10803   4.525   4.915   0.745  0.3539  0.0298  0.2219
35691NA      NA10804   8.572   7.322   1.580 -0.5090  0.0166  0.1941
35692NA      NA10805   2.909   3.200   5.416  0.1367 -0.0629  0.3942
35693NA      NA10806   7.055   8.679   5.205 -0.1403 -0.3935 -0.8156
35694NA      NA10807   1.413   3.567   1.056  0.6551 -0.1432 -0.3701
35695NA      NA10808   2.899   4.221   9.979 -0.3259  0.2666  0.7340
35696NA      NA10809   0.983   3.514   8.939  0.5469 -0.3507 -0.1747
35697NA      NA10810   5.556   8.767   5.261  0.0408  0.1522 -0.3999
35698NA      NA10811   3.187   8.128   5.812 -0.2481  0.1172 -0.0028
35699NA      NA10812   9.365   2.471   1.547 -0.1423  0.2392 -0.1548
35700NA      NA10813   2.474   8.579   6.959  0.2756  1.0765  0.4644
35701NA      NA10814   2.694   1.527   5.029  0.2360  0.0478 -0.5628
35702NA      NA10815   7.767   5.709  10.179 -0.4142 -0.0818 -0.5444
35703NA      NA10816  10.156   8.761   2.459  0.3255  0.3810 -0.3149
35704NA      NA10817   0.448   9.936   2.561 -0.0706  0.1019  0.2494
35705NA      NA10818   4.586   9.710   4.998  0.0774  0.0904  0.1507
35706NA      NA10819   2.993  10.303   6.014  0.1554 -0.1637 -0.1294
35707NA      NA10820   2.842   9.276   9.981  0.0227  0.6551 -0.1135
35708NA      NA10821   6.054  10.343   6.895 -0.6815 -0.0689 -0.0801
35709NA      NA10822   6.695   9.861   4.628  0.2882  0.4014 -0.7138
35710NA      NA10823   2.776   3.065   9.190 -0.1184 -0.2026  0.1377
35711NA      NA10824   8.018   1.874   5.877  0.4514 -0.6825  0.3354
35712NA      NA10825   3.627   9.372   5.052 -0.6689 -0.0367  0.3212
35713NA      NA10826   3.923   8.456   8.190  0.3015  0.0935 -0.2427
35714NA      NA10827   7.400   3.349   3.333 -0.3730 -0.0455  0.1513
35715NA      NA10828   3.968   6.385   6.572  0.2041 -0.3982  0.1953
35716NA      NA10829   8.176   0.091   5.882 -0.1120  0.2963  0.1243
35717NA      NA10830   9.281  10.008   7.339 -0.0359 -0.3590  0.1990
35718NA      NA10831  10.319   2.102   5.965  0.6375  0.2027  0.1123
35719NA      NA10832   5.156   9.500   7.211 -0.3415 -0.3128  1.0010
35720NA      NA10833   3.247   2.828   3.386 -0.2557  0.4520  0.0905
35721NA      NA10834   3.214  10.138   8.609 -0.6908 -0.0078 -0.1862
35722NA      NA10835   9.640   2.833   3.386  0.2584  0.3053  0.0280
35723NA      NA10836   3.026  10.111   2.853  0.2211 -0.0786  0.1129
35724NA      NA10837   7.104   4.069   2.511 -0.1591 -0.0686 -0.1865
35725NA      NA10838   1.489  10.121   3.974  0.2947 -0.0797  0.1517
35726NA      NA10839   8.571   7.786   9.397  0.2855  0.4167 -0.1726
35727NA      NA10840   3.801   7.020   5.099 -0.1686  0.3786  0.1239
35728NA      NA10841   4.425   7.820   0.911  0.2807 -0.4058  0.3999
35729NA      NA10842   3.252   9.112   7.155  0.1681  0.0099 -0.5905
35730NA      NA10843   4.291   9.625   6.193 -0.1537  0.4108 -0.2361
35731NA      NA10844   7.147   0.723   7.912 -0.0266  0.2802  0.0752
35732NA      NA10845   6.835   8.176   2.167  0.0041  0.0268  0.1907
35733NA      NA10846   2.996   6.007   7.241  0.4409 -0.0800 -0.0332
35734NA      NA10847   9.109   5.217   9.040 -0.1482 -0.0148  0.3402
35735NA      NA10848   6.897   4.238   8.742  0.3609 -0.4068  0.9898
35736NA      NA10849  10.178   4.284   9.426  0.1550  0.0415 -0.5138
35737NA      NA10850   4.338   0.712   1.520  0.7079 -0.4058  0.0395
35738NA      NA10851   5.328   6.211   4.278 -0.0382 -0.2722 -0.0133
35739NA      NA10852   4.802   6.698   4.404 -0.1282  0.3059 -0.5538
35740NA      NA10853   1.958   5.627   1.075 -0.3055  0.6436 -0.0567
35741NA      NA10854  10.299   0.498   6.040  0.4273 -0.1130 -0.0017
35742NA      NA10855   5.482   7.854   7.896  0.1074 -0.4143 -0.6054
35743NA      NA10856   7.738   7.973   6.473 -0.1037  0.9891  0.0364
35744NA      NA10857  10.345   5.390   1.100  0.5473  0.4702 -0.5123
35745NA      NA10858  10.038   9.462   5.144 -0.0567  0.1717 -0.4889
35746NA      NA10859   2.162   6.801   7.447  0.1493 -0.3517  0.2347
35747NA      NA10860   4.275   0.543   4.759  0.1472 -0.0878 -0.3619
35748NA      NA10861   7.243   3.226   0.993  0.2125 -0.0829  0.0523
35749NA      NA10862   8.007   4.633   5.714 -0.0558 -0.4217 -0.3141
35750NA      NA10863   7.231   5.831   3.757 -0.0224  0.1858 -0.3913
35751NA      NA10864   6.866   9.078   7.407  0.8389  0.5320  0.2040
35752NA      NA10865   6.428   9.889   6.303 -0.3217  0.4754  0.3074
35753NA      NA10866   4.977   5.670   6.939 -0.3303 -0.4134 -0.1113
35754NA      NA10867   7.067   9.287   5.614  0.7389 -0.1880  0.4885
35755NA      NA10868   7.925   9.390   6.598  0.3540 -0.2044  0.1731
35756NA      NA10869   1.596   9.809   6.661 -0.2295  0.7217  0.5392
35757NA      NA10870   2.742   2.961   8.091  0.0703  0.4262  0.1291
35758NA      NA10871   6.043   9.066   4.337  0.1597 -0.0292  0.5901
35759NA      NA10872   4.925   9.916   8.178 -0.2033  0.1501  0.1331
35760NA      NA10873   6.115   9.111   9.023 -0.0033  0.0434 -0.1273
35761NA      NA10874   4.026   2.645   5.492 -0.0703  0.1023  0.2475
35762NA      NA10875   4.723   8.033   2.485  0.0202  0.0493 -0.1076
35763NA      NA10876   6.178   3.919   0.609  0.0309 -0.1254  0.1797
35764NA      NA10877  10.291   5.454   9.149  0.3112 -0.0276  0.0784
35765CL      CL10878   5.699   3.163   9.894 -0.6342 -0.2782  0.5473
35766CL      CL10879   3.861  10.277   6.387 -0.4839  0.3605 -0.0575
35767CL      CL10880   8.764   4.178   2.598  0.0456 -0.6067  0.1396
35768CL      CL10881   8.801   5.066   8.285 -0.3141  0.1153  0.2455
35769CL      CL10882   5.918   4.586   1.683 -0.0645  0.2958 -0.3446
35770CL      CL10883   4.405   3.149   0.651 -0.0650 -0.1729  0.0077
35771CL      CL10884   2.735   6.236   3.810 -0.0056 -0.2355 -0.0250
35772CL      CL10885   5.438   7.781   8.332 -0.0718 -0.1851  0.0798
35773CL      CL10886   7.086   5.652   3.857  0.4108 -0.2630  0.2710
35774CL      CL10887   0.408   9.604   4.683  0.0186 -0.1398 -0.2305
35775CL      CL10888   3.672   7.182   5.213 -0.1223 -0.1073 -0.4234
35776CL      CL10889   3.209   8.991  10.148  0.1178 -0.0232 -0.1611
35777CL      CL10890   7.939   7.818   9.309 -0.0741  0.0119 -0.3426
35778CL      CL10891   6.350   3.961   5.917 -0.5870 -0.2880 -0.4341
35779CL      CL10892   3.225   8.313   8.673 -0.1108 -0.0355  0.1401
35780CL      CL10893  10.283   0.420   0.605  0.0179 -0.4569  0.0826
35781CL      CL10894   8.122   1.267   0.376  0.2237 -0.0797 -0.0468
35782CL      CL10895   8.228   1.018   6.050 -0.2348  0.3369 -0.0128
35783CL      CL10896   9.471   9.328   3.963  0.0323 -0.1082  0.0677
35784CL      CL10897   8.832   1.908   5.334  0.0245  0.3901 -0.1666
35785CL      CL10898   6.669   6.375   8.756 -0.2361  0.0405 -0.2124
35786CL      CL10899   5.694   2.790   7.405  0.1981  0.0481  0.2203
35787CL      CL10900   8.772   5.832   9.564 -0.5155 -0.4458 -0.1269
35788CL      CL10901   8.579   8.896   8.411 -0.4920 -0.0108 -0.3426
35789CL      CL10902  10.211   4.741   5.344  0.2941  0.3856  0.1639
35790CL      CL10903   3.403   7.054   3.338  0.0243 -0.0469  0.1080
35791CL      CL10904   1.169   3.661   1.026  0.2543 -0.0573  0.4553
35792CL      CL10905   2.195   2.343   5.165  0.1156  0.1311  0.0003
35793CL      CL10906   2.014   5.408   8.862  0.1343 -0.0764  0.4880
35794CL      CL10907   0.289   0.830   6.714  0.0232  0.2361 -0.1979
35795CL      CL10908   3.297   6.899   1.741 -0.3422 -0.2971  0.1836
35796CL      CL10909   6.968   8.286   4.616  0.2578 -0.0794  0.0591
35797CL      CL10910   2.500   2.618   4.062  0.1080  0.2295 -0.1323
35798CL      CL10911   4.287   1.145   2.023 -0.1973  0.1618 -0.1325
35799CL      CL10912   2.317   9.012   6.691  0.4442  0.0678  0.7031
35800CL      CL10913   5.524   9.490   1.108 -0.1161  0.2983 -0.0579
35801CL      CL10914   2.346   1.065   7.486 -0.0735  0.1283 -0.2040
35802CL      CL10915   4.756   6.171   4.017  0.1951 -0.0061 -0.1124
35803CL      CL10916   5.268   0.126   5.899 -0.2286 -0.1208 -0.3158
35804CL      CL10917   6.329   7.106   4.134 -0.0561 -0.3691 -0.1625
35805CL      CL10918   0.442   0.718   4.156  0.3804 -0.0028  0.0644
35806CL      CL10919   4.282   5.970   6.253 -0.1420  0.3455  0.6261
35807CL      CL10920   6.290   1.925   9.442  0.0132 -0.6260 -0.3925
35808CL      CL10921   3.755   3.368   7.989 -0.1810 -0.1221  0.1136
35809CL      CL10922   4.493   1.190   7.952 -0.0943 -0.7917  0.2499
35810CL      CL10923   6.642   6.895   5.442  0.2912 -0.0522 -0.4744
35811CL      CL10924   7.708   4.702   7.066 -0.0766  0.4860 -0.1906
35812CL      CL10925   5.814   1.034   5.758  0.4058  0.1802  0.1928
35813CL      CL10926   6.501   8.221   9.719 -0.3677  0.2967  0.0261
35814CL      CL10927   6.956   3.302   0.602 -0.1052  0.2226  0.1878
35815CL      CL10928   8.523   9.710   6.610  0.1644  0.4484  0.3204
35816CL      CL10929   2.579   3.739   5.459  0.4038  0.3438 -0.1221
35817CL      CL10930   7.201   0.280   6.261 -0.1576 -0.1250 -0.1208
35818CL      CL10931   3.185   1.257   6.795  0.1863 -0.0724  0.2666
35819CL      CL10932   9.136   5.110   1.908  0.1843 -0.1080 -0.1210
35820CL      CL10933   8.130   8.220   0.698  0.3755 -0.0317 -0.1194
35821CL      CL10934   2.599   6.881   1.171 -0.2910  0.0975  0.0806
35822CL      CL10935   9.760   7.090   8.057  0.0211  0.2250  0.1598
35823CL      CL10936   7.003   1.170   0.499  0.0874 -0.0539  0.1576
35824CL      CL10937   3.766   6.304   6.687 -0.1316  0.0459  0.0578
35825CL      CL10938   1.739   8.352   8.644  0.3607  0.0102 -0.0005
35826CL      CL10939   8.388  10.301   5.235  0.0950  0.1852  0.0311
35827CL      CL10940   2.708   0.030  10.061  0.1331  0.2975  0.2051
35828CL      CL10941   4.558   1.622  10.121  0.2335 -0.1632  0.1190
35829CL      CL10942   0.586   0.547   2.328 -0.0295 -0.0243 -0.2046
35830CL      CL10943   4.712   6.685   4.155 -0.2852  0.1801 -0.2492
35831CL      CL10944   0.053   7.743   6.335  0.4132 -0.1428  0.1285
35832CL      CL10945   8.978   1.114   3.147  0.1271 -0.1459  0.2005
35833CL      CL10946   3.265   0.805   2.844  0.1131  0.1974 -0.3873
35834CL      CL10947   2.947   6.106   4.665  0.5202  0.0585  0.1936
35835CL      CL10948   9.999   8.407   0.213 -0.3294  0.3851  0.1335
35836CL      CL10949   6.756   5.162   4.131  0.0544 -0.1628  0.2190
35837CL      CL10950   8.373   7.011   2.726 -0.1363 -0.2908  0.2141
35838CL      CL10951   1.304   9.600   6.138  0.0548 -0.3476 -0.0865
35839CL      CL10952   7.580   8.844   4.128  0.1725  0.4502 -0.1206
35840CL      CL10953   5.420   6.236   6.036 -0.5111  0.1494 -0.2992
35841CL      CL10954   9.937   6.291   1.788  0.1214 -0.0040 -0.3422
35842CL      CL10955   7.886   5.536   8.353 -0.2502  0.3151 -0.1525
35843CL      CL10956  10.050   2.398   5.644  0.0216  0.2509 -0.2153
35844CL      CL10957   0.901   9.178   5.753  0.4080 -0.0489  0.0895
35845CL      CL10958   6.771   9.726   6.147 -0.1718 -0.2827  0.0819
35846CL      CL10959   7.254   9.885   9.380 -0.3700 -0.0455 -0.2681
35847CL      CL10960   0.753   6.588   3.242  0.2467 -0.0038 -0.3819
35848CL      CL10961   4.358   9.867   6.184 -0.4782 -0.1291 -0.0495
35849CL      CL10962   8.141   7.222   7.188 -0.2139 -0.1183  0.4445
35850CL      CL10963   1.030   3.829   3.774  0.0540 -0.0036  0.0023
35851CL      CL10964   9.548   9.272   7.620  0.0758 -0.1734  0.4148
35852CL      CL10965   4.348   7.396   3.241 -0.0253 -0.0788  0.2113
35853CL      CL10966   3.281   4.953   1.251 -0.0901  0.2085  0.0596
35854CL      CL10967   6.497   9.105  10.219 -0.0927  0.4139 -0.0458
35855CL      CL10968   3.007   0.359   2.794 -0.0465  0.3787 -0.0930
35856CL      CL10969   3.152   3.132   5.382 -0.0258  0.2808 -0.1348
35857CL      CL10970   4.897   2.651   7.844 -0.4401  0.1357  0.0928
35858CL      CL10971   0.147   5.131   7.060 -0.3653  0.2686  0.2226
35859CL      CL10972   5.278   9.170   4.029  0.6003  0.3247  0.0893
35860CL      CL10973   7.714   9.306   9.840  0.3509 -0.2689  0.2413
35861CL      CL10974   1.993   8.959   5.818  0.2843  0.1351 -0.1177
35862CL      CL10975   9.567   2.970   3.170 -0.3644  0.0679  0.0274
35863CL      CL10976   5.095   7.553   9.492 -0.1057  0.1258 -0.5048
35864CL      CL10977   3.784   5.865   9.339  0.2538 -0.2510  0.2347
35865CL      CL10978   1.132   1.596   9.505  0.1649 -0.2976  0.0673
35866CL      CL10979   7.029   8.342   7.619  0.2853 -0.2122  0.0647
  10.36216  10.36216  10.36216
